<event>
 7    1  0.2294216E-010  0.4778726E+02  0.7816164E-02  0.1312668E+00
        -11   -1    0    0    0    0  0.00000000000E+00  0.00000000000E+00  0.45593999997E+02  0.45594000000E+02  0.51100000000E-03 0.  1.
         11   -1    0    0    0    0 -0.00000000000E+00 -0.00000000000E+00 -0.45593999997E+02  0.45594000000E+02  0.51100000000E-03 0. -1.
    9900012    2    1    2    0    0 -0.41855423219E+02  0.99477292378E+01 -0.57262588444E+01  0.47787264866E+02  0.19999971828E+02 0.  0.
        -12    1    1    2    0    0  0.41855423219E+02 -0.99477292378E+01  0.57262588444E+01  0.43400735134E+02  0.00000000000E+00 0.  1.
         11    1    3    3    0    0 -0.10850878681E+02  0.11383414353E+01  0.88751871203E+00  0.10946464228E+02  0.51100000000E-03 0. -1.
        -11    1    3    3    0    0 -0.15852921787E+02 -0.68999010648E+00  0.35653128295E+01  0.16263538095E+02  0.51100000000E-03 0.  1.
        -12    1    3    3    0    0 -0.15151622751E+02  0.94993779090E+01 -0.10179090386E+02  0.20577262542E+02  0.00000000000E+00 0.  1.
</event>
<event>
 7    1  0.2294216E-010  0.4778728E+02  0.7816164E-02  0.1312668E+00
        -11   -1    0    0    0    0  0.00000000000E+00  0.00000000000E+00  0.45593999997E+02  0.45594000000E+02  0.51100000000E-03 0. -1.
         11   -1    0    0    0    0 -0.00000000000E+00 -0.00000000000E+00 -0.45593999997E+02  0.45594000000E+02  0.51100000000E-03 0.  1.
    9900012    2    1    2    0    0 -0.26980229035E+02  0.33771337051E+02 -0.38970051463E+01  0.47787278646E+02  0.20000034657E+02 0.  0.
        -12    1    1    2    0    0  0.26980229035E+02 -0.33771337051E+02  0.38970051463E+01  0.43400721354E+02  0.00000000000E+00 0.  1.
         11    1    3    3    0    0 -0.27171358761E+00  0.13993626918E+02 -0.13132561463E+01  0.14057740379E+02  0.51100000000E-03 0. -1.
        -11    1    3    3    0    0 -0.57685994008E+01  0.28286500824E+01 -0.21871063900E+01  0.67868575171E+01  0.51100000000E-03 0.  1.
         12    1    3    3    0    0 -0.20939916046E+02  0.16949060050E+02 -0.39664261003E+00  0.26942680750E+02  0.00000000000E+00 0. -1.
</event>
<event>
 7    1  0.2294216E-010  0.4778726E+02  0.7816164E-02  0.1312668E+00
        -11   -1    0    0    0    0  0.00000000000E+00  0.00000000000E+00  0.45593999997E+02  0.45594000000E+02  0.51100000000E-03 0.  1.
         11   -1    0    0    0    0 -0.00000000000E+00 -0.00000000000E+00 -0.45593999997E+02  0.45594000000E+02  0.51100000000E-03 0. -1.
    9900012    2    1    2    0    0  0.29544873849E+02  0.24093804095E+02 -0.20741584511E+02  0.47787259286E+02  0.19999946387E+02 0.  0.
        -12    1    1    2    0    0 -0.29544873849E+02 -0.24093804095E+02  0.20741584511E+02  0.43400740714E+02  0.00000000000E+00 0.  1.
         11    1    3    3    0    0 -0.10818405970E+00  0.28835686370E+01 -0.30571756926E+01  0.42039261829E+01  0.51100000000E-03 0.  1.
        -11    1    3    3    0    0  0.14795587946E+02  0.12567599310E+01 -0.50703175725E+01  0.15690665656E+02  0.51100000000E-03 0. -1.
         12    1    3    3    0    0  0.14857469963E+02  0.19953475527E+02 -0.12614091246E+02  0.27892667446E+02  0.00000000000E+00 0. -1.
</event>
<event>
 7    1  0.2294216E-010  0.4778729E+02  0.7816164E-02  0.1312668E+00
        -11   -1    0    0    0    0  0.00000000000E+00  0.00000000000E+00  0.45593999997E+02  0.45594000000E+02  0.51100000000E-03 0. -1.
         11   -1    0    0    0    0 -0.00000000000E+00 -0.00000000000E+00 -0.45593999997E+02  0.45594000000E+02  0.51100000000E-03 0.  1.
    9900012    2    1    2    0    0  0.40019420339E+02  0.16699472842E+02  0.17874591979E+01  0.47787292542E+02  0.20000098013E+02 0.  0.
        -12    1    1    2    0    0 -0.40019420339E+02 -0.16699472842E+02 -0.17874591979E+01  0.43400707458E+02  0.00000000000E+00 0.  1.
         11    1    3    3    0    0  0.36312159797E+02  0.11236419218E+02  0.15026392449E+00  0.38011217364E+02  0.51100000000E-03 0. -1.
        -11    1    3    3    0    0  0.44472308730E+01  0.55246458453E+01 -0.88465654754E+00  0.71471806765E+01  0.51100000000E-03 0.  1.
        -12    1    3    3    0    0 -0.73997033063E+00 -0.61592221100E-01  0.25218518209E+01  0.26288945012E+01  0.00000000000E+00 0.  1.
</event>
<event>
 7    1  0.2294216E-010  0.4778727E+02  0.7816164E-02  0.1312668E+00
        -11   -1    0    0    0    0  0.00000000000E+00  0.00000000000E+00  0.45593999997E+02  0.45594000000E+02  0.51100000000E-03 0. -1.
         11   -1    0    0    0    0 -0.00000000000E+00 -0.00000000000E+00 -0.45593999997E+02  0.45594000000E+02  0.51100000000E-03 0.  1.
    9900012    2    1    2    0    0 -0.38739463477E+02  0.66545337711E+01  0.18400930448E+02  0.47787273145E+02  0.20000009578E+02 0.  0.
        -12    1    1    2    0    0  0.38739463477E+02 -0.66545337711E+01 -0.18400930448E+02  0.43400726855E+02  0.00000000000E+00 0.  1.
         11    1    3    3    0    0 -0.11457048043E+02  0.27179051109E+01  0.90182416633E+01  0.14831710657E+02  0.51100000000E-03 0. -1.
        -11    1    3    3    0    0 -0.10484268265E+02  0.88432646191E+01  0.16202973174E+01  0.13811175686E+02  0.51100000000E-03 0.  1.
        -12    1    3    3    0    0 -0.16798147169E+02 -0.49066359589E+01  0.77623914672E+01  0.19144386802E+02  0.00000000000E+00 0.  1.
</event>
<event>
 7    1  0.2294216E-010  0.4778727E+02  0.7816164E-02  0.1312668E+00
        -11   -1    0    0    0    0  0.00000000000E+00  0.00000000000E+00  0.45593999997E+02  0.45594000000E+02  0.51100000000E-03 0.  1.
         11   -1    0    0    0    0 -0.00000000000E+00 -0.00000000000E+00 -0.45593999997E+02  0.45594000000E+02  0.51100000000E-03 0. -1.
    9900012    2    1    2    0    0 -0.54440287588E+01 -0.32453619550E+02 -0.28297504075E+02  0.47787267197E+02  0.19999982456E+02 0.  0.
        -12    1    1    2    0    0  0.54440287588E+01  0.32453619550E+02  0.28297504075E+02  0.43400732803E+02  0.00000000000E+00 0.  1.
         11    1    3    3    0    0 -0.68789252671E+01 -0.20466332196E+02 -0.21051589626E+02  0.30155593054E+02  0.51100000000E-03 0. -1.
        -11    1    3    3    0    0  0.15365595203E+01 -0.13390272835E+02 -0.83398435132E+01  0.15849713304E+02  0.51100000000E-03 0.  1.
        -12    1    3    3    0    0 -0.10166301195E+00  0.14029854813E+01  0.10939290648E+01  0.17819608378E+01  0.00000000000E+00 0.  1.
</event>
<event>
 7    1  0.2294216E-010  0.4778727E+02  0.7816164E-02  0.1312668E+00
        -11   -1    0    0    0    0  0.00000000000E+00  0.00000000000E+00  0.45593999997E+02  0.45594000000E+02  0.51100000000E-03 0.  1.
         11   -1    0    0    0    0 -0.00000000000E+00 -0.00000000000E+00 -0.45593999997E+02  0.45594000000E+02  0.51100000000E-03 0. -1.
    9900012    2    1    2    0    0 -0.47506234562E+01 -0.42587146291E+02 -0.68840053918E+01  0.47787274400E+02  0.20000015298E+02 0.  0.
        -12    1    1    2    0    0  0.47506234562E+01  0.42587146291E+02  0.68840053918E+01  0.43400725600E+02  0.00000000000E+00 0.  1.
         11    1    3    3    0    0  0.61240740771E+00 -0.27605540302E+02 -0.56359132056E+01  0.28181632603E+02  0.51100000000E-03 0. -1.
        -11    1    3    3    0    0 -0.14658865720E+01 -0.83190968864E+01 -0.61617090189E+01  0.10455757014E+02  0.51100000000E-03 0.  1.
        -12    1    3    3    0    0 -0.38971442919E+01 -0.66625091018E+01  0.49136168326E+01  0.91498847829E+01  0.00000000000E+00 0.  1.
</event>
<event>
 7    1  0.2294216E-010  0.4778727E+02  0.7816164E-02  0.1312668E+00
        -11   -1    0    0    0    0  0.00000000000E+00  0.00000000000E+00  0.45593999997E+02  0.45594000000E+02  0.51100000000E-03 0.  1.
         11   -1    0    0    0    0 -0.00000000000E+00 -0.00000000000E+00 -0.45593999997E+02  0.45594000000E+02  0.51100000000E-03 0. -1.
    9900012    2    1    2    0    0 -0.29792217590E+02 -0.75055199417E+01 -0.30654755443E+02  0.47787273165E+02  0.20000009671E+02 0.  0.
        -12    1    1    2    0    0  0.29792217590E+02  0.75055199417E+01  0.30654755443E+02  0.43400726835E+02  0.00000000000E+00 0.  1.
         11    1    3    3    0    0 -0.73136215354E+01 -0.68567829445E+01 -0.27140489173E+01  0.10386076935E+02  0.51100000000E-03 0.  1.
        -11    1    3    3    0    0 -0.92302516502E+01 -0.51739436076E+01 -0.92912390687E+01  0.14081703081E+02  0.51100000000E-03 0. -1.
         12    1    3    3    0    0 -0.13248344404E+02  0.45252066103E+01 -0.18649467457E+02  0.23319493149E+02  0.00000000000E+00 0. -1.
</event>
<event>
 7    1  0.2294216E-010  0.4778728E+02  0.7816164E-02  0.1312668E+00
        -11   -1    0    0    0    0  0.00000000000E+00  0.00000000000E+00  0.45593999997E+02  0.45594000000E+02  0.51100000000E-03 0. -1.
         11   -1    0    0    0    0 -0.00000000000E+00 -0.00000000000E+00 -0.45593999997E+02  0.45594000000E+02  0.51100000000E-03 0.  1.
    9900012    2    1    2    0    0 -0.21068789563E+02  0.37561773113E+02  0.53704331661E+01  0.47787282893E+02  0.20000054022E+02 0.  0.
        -12    1    1    2    0    0  0.21068789563E+02 -0.37561773113E+02 -0.53704331661E+01  0.43400717107E+02  0.00000000000E+00 0.  1.
         11    1    3    3    0    0 -0.53499594097E+01  0.68538408348E+01  0.16100920379E+01  0.88424881399E+01  0.51100000000E-03 0. -1.
        -11    1    3    3    0    0 -0.36026398358E+01  0.22352738447E+02 -0.28328848188E+01  0.22817737980E+02  0.51100000000E-03 0.  1.
        -12    1    3    3    0    0 -0.12116190318E+02  0.83551938306E+01  0.65932259471E+01  0.16127056773E+02  0.00000000000E+00 0.  1.
</event>
<event>
 7    1  0.2294216E-010  0.4778727E+02  0.7816164E-02  0.1312668E+00
        -11   -1    0    0    0    0  0.00000000000E+00  0.00000000000E+00  0.45593999997E+02  0.45594000000E+02  0.51100000000E-03 0. -1.
         11   -1    0    0    0    0 -0.00000000000E+00 -0.00000000000E+00 -0.45593999997E+02  0.45594000000E+02  0.51100000000E-03 0.  1.
    9900012    2    1    2    0    0 -0.14416654621E+02 -0.11822317080E+02  0.39192040777E+02  0.47787272219E+02  0.20000005357E+02 0.  0.
        -12    1    1    2    0    0  0.14416654621E+02  0.11822317080E+02 -0.39192040777E+02  0.43400727781E+02  0.00000000000E+00 0.  1.
         11    1    3    3    0    0 -0.10481302857E+01 -0.11160521996E+02  0.13788466925E+02  0.17770133616E+02  0.51100000000E-03 0. -1.
        -11    1    3    3    0    0 -0.13649480454E+00  0.24024532396E+01  0.36692723426E+01  0.43879348429E+01  0.51100000000E-03 0.  1.
        -12    1    3    3    0    0 -0.13232029530E+02 -0.30642483235E+01  0.21734301510E+02  0.25629203760E+02  0.00000000000E+00 0.  1.
</event>
<event>
 7    1  0.2294216E-010  0.4778727E+02  0.7816164E-02  0.1312668E+00
        -11   -1    0    0    0    0  0.00000000000E+00  0.00000000000E+00  0.45593999997E+02  0.45594000000E+02  0.51100000000E-03 0.  1.
         11   -1    0    0    0    0 -0.00000000000E+00 -0.00000000000E+00 -0.45593999997E+02  0.45594000000E+02  0.51100000000E-03 0. -1.
    9900012    2    1    2    0    0 -0.98051154137E+01 -0.26876089687E+01 -0.42193125666E+02  0.47787269779E+02  0.19999994229E+02 0.  0.
        -12    1    1    2    0    0  0.98051154137E+01  0.26876089687E+01  0.42193125666E+02  0.43400730221E+02  0.00000000000E+00 0.  1.
         11    1    3    3    0    0 -0.12253396828E+02  0.29741676400E+01 -0.33245385248E+02  0.35556251876E+02  0.51100000000E-03 0. -1.
        -11    1    3    3    0    0 -0.78734522971E+00 -0.32496378270E+01 -0.69832854502E+01  0.77425018216E+01  0.51100000000E-03 0.  1.
         12    1    3    3    0    0  0.32356266441E+01 -0.24121387817E+01 -0.19644549687E+01  0.44885160807E+01  0.00000000000E+00 0. -1.
</event>
<event>
 7    1  0.2294216E-010  0.4778727E+02  0.7816164E-02  0.1312668E+00
        -11   -1    0    0    0    0  0.00000000000E+00  0.00000000000E+00  0.45593999997E+02  0.45594000000E+02  0.51100000000E-03 0. -1.
         11   -1    0    0    0    0 -0.00000000000E+00 -0.00000000000E+00 -0.45593999997E+02  0.45594000000E+02  0.51100000000E-03 0.  1.
    9900012    2    1    2    0    0  0.64825886842E+00  0.29563406059E+02  0.31768032715E+02  0.47787272817E+02  0.20000008083E+02 0.  0.
        -12    1    1    2    0    0 -0.64825886842E+00 -0.29563406059E+02 -0.31768032715E+02  0.43400727183E+02  0.00000000000E+00 0.  1.
         11    1    3    3    0    0 -0.73106693893E+01  0.88220569418E+01  0.13653892079E+02  0.17824234760E+02  0.51100000000E-03 0. -1.
        -11    1    3    3    0    0  0.24971534709E+01  0.78514818543E+01  0.17409334787E+01  0.84209496141E+01  0.51100000000E-03 0.  1.
        -12    1    3    3    0    0  0.54617747868E+01  0.12889867263E+02  0.16373207158E+02  0.21542088444E+02  0.00000000000E+00 0.  1.
</event>
<event>
 7    1  0.2294216E-010  0.4778727E+02  0.7816164E-02  0.1312668E+00
        -11   -1    0    0    0    0  0.00000000000E+00  0.00000000000E+00  0.45593999997E+02  0.45594000000E+02  0.51100000000E-03 0. -1.
         11   -1    0    0    0    0 -0.00000000000E+00 -0.00000000000E+00 -0.45593999997E+02  0.45594000000E+02  0.51100000000E-03 0.  1.
    9900012    2    1    2    0    0  0.36256803509E+02 -0.11637644076E+00  0.23854851611E+02  0.47787270864E+02  0.19999999177E+02 0.  0.
        -12    1    1    2    0    0 -0.36256803509E+02  0.11637644076E+00 -0.23854851611E+02  0.43400729136E+02  0.00000000000E+00 0.  1.
         11    1    3    3    0    0  0.26957979375E+01  0.17256554506E+01  0.55764812255E+01  0.64298022033E+01  0.51100000000E-03 0. -1.
        -11    1    3    3    0    0  0.69833922968E+01 -0.68425062713E+01  0.26800368276E+01  0.10137566656E+02  0.51100000000E-03 0.  1.
         12    1    3    3    0    0  0.26577613275E+02  0.50004743800E+01  0.15598333557E+02  0.31219902005E+02  0.00000000000E+00 0. -1.
</event>
<event>
 7    1  0.2294216E-010  0.4778727E+02  0.7816164E-02  0.1312668E+00
        -11   -1    0    0    0    0  0.00000000000E+00  0.00000000000E+00  0.45593999997E+02  0.45594000000E+02  0.51100000000E-03 0.  1.
         11   -1    0    0    0    0 -0.00000000000E+00 -0.00000000000E+00 -0.45593999997E+02  0.45594000000E+02  0.51100000000E-03 0. -1.
    9900012    2    1    2    0    0  0.28731895881E+02  0.31708034395E+02 -0.72596263742E+01  0.47787268887E+02  0.19999990162E+02 0.  0.
        -12    1    1    2    0    0 -0.28731895881E+02 -0.31708034395E+02  0.72596263742E+01  0.43400731113E+02  0.00000000000E+00 0.  1.
         11    1    3    3    0    0  0.20863409904E+02  0.19592962788E+02 -0.31880906207E+01  0.28798089966E+02  0.51100000000E-03 0. -1.
        -11    1    3    3    0    0  0.92270627506E+01  0.11333638357E+02 -0.65829160957E+01  0.16028874883E+02  0.51100000000E-03 0.  1.
         12    1    3    3    0    0 -0.13585767737E+01  0.78143324926E+00  0.25113803423E+01  0.29603040379E+01  0.00000000000E+00 0. -1.
</event>
<event>
 7    1  0.2294216E-010  0.4778728E+02  0.7816164E-02  0.1312668E+00
        -11   -1    0    0    0    0  0.00000000000E+00  0.00000000000E+00  0.45593999997E+02  0.45594000000E+02  0.51100000000E-03 0. -1.
         11   -1    0    0    0    0 -0.00000000000E+00 -0.00000000000E+00 -0.45593999997E+02  0.45594000000E+02  0.51100000000E-03 0.  1.
    9900012    2    1    2    0    0 -0.18876902415E+02  0.36175108686E+02  0.14786710725E+02  0.47787277110E+02  0.20000027657E+02 0.  0.
        -12    1    1    2    0    0  0.18876902415E+02 -0.36175108686E+02 -0.14786710725E+02  0.43400722890E+02  0.00000000000E+00 0.  1.
         11    1    3    3    0    0 -0.54384939547E+01  0.19174643574E+02  0.10622011213E+02  0.22584758027E+02  0.51100000000E-03 0. -1.
        -11    1    3    3    0    0 -0.86705927470E+01  0.20874183078E+01  0.33430613683E+01  0.95243137994E+01  0.51100000000E-03 0.  1.
         12    1    3    3    0    0 -0.47678157134E+01  0.14913046805E+02  0.82163814347E+00  0.15678205284E+02  0.00000000000E+00 0. -1.
</event>
<event>
 7    1  0.2294216E-010  0.4778727E+02  0.7816164E-02  0.1312668E+00
        -11   -1    0    0    0    0  0.00000000000E+00  0.00000000000E+00  0.45593999997E+02  0.45594000000E+02  0.51100000000E-03 0.  1.
         11   -1    0    0    0    0 -0.00000000000E+00 -0.00000000000E+00 -0.45593999997E+02  0.45594000000E+02  0.51100000000E-03 0. -1.
    9900012    2    1    2    0    0  0.14125543713E+02 -0.19275613621E+01 -0.40992402332E+02  0.47787268129E+02  0.19999986708E+02 0.  0.
        -12    1    1    2    0    0 -0.14125543713E+02  0.19275613621E+01  0.40992402332E+02  0.43400731871E+02  0.00000000000E+00 0.  1.
         11    1    3    3    0    0  0.51810845495E+00 -0.12997882628E+01 -0.87322258395E+01  0.88436222371E+01  0.51100000000E-03 0. -1.
        -11    1    3    3    0    0 -0.24318063624E+01 -0.30193303542E+01 -0.14740474745E+01  0.41476323596E+01  0.51100000000E-03 0.  1.
         12    1    3    3    0    0  0.16039241620E+02  0.23915572548E+01 -0.30786129018E+02  0.34796013533E+02  0.00000000000E+00 0. -1.
</event>
<event>
 7    1  0.2294216E-010  0.4778727E+02  0.7816164E-02  0.1312668E+00
        -11   -1    0    0    0    0  0.00000000000E+00  0.00000000000E+00  0.45593999997E+02  0.45594000000E+02  0.51100000000E-03 0.  1.
         11   -1    0    0    0    0 -0.00000000000E+00 -0.00000000000E+00 -0.45593999997E+02  0.45594000000E+02  0.51100000000E-03 0. -1.
    9900012    2    1    2    0    0  0.46126539033E+00  0.22804437438E+02 -0.36923819319E+02  0.47787267683E+02  0.19999984673E+02 0.  0.
        -12    1    1    2    0    0 -0.46126539033E+00 -0.22804437438E+02  0.36923819319E+02  0.43400732317E+02  0.00000000000E+00 0.  1.
         11    1    3    3    0    0 -0.61258665640E+01  0.20691639597E+02 -0.27157798301E+02  0.34687406925E+02  0.51100000000E-03 0. -1.
        -11    1    3    3    0    0  0.29287345814E+01  0.36886186882E+01 -0.46811173053E+01  0.66405010023E+01  0.51100000000E-03 0.  1.
        -12    1    3    3    0    0  0.36583973730E+01 -0.15758208478E+01 -0.50849037127E+01  0.64593597555E+01  0.00000000000E+00 0.  1.
</event>
<event>
 7    1  0.2294216E-010  0.4778727E+02  0.7816164E-02  0.1312668E+00
        -11   -1    0    0    0    0  0.00000000000E+00  0.00000000000E+00  0.45593999997E+02  0.45594000000E+02  0.51100000000E-03 0.  1.
         11   -1    0    0    0    0 -0.00000000000E+00 -0.00000000000E+00 -0.45593999997E+02  0.45594000000E+02  0.51100000000E-03 0. -1.
    9900012    2    1    2    0    0  0.46131045604E+01  0.39454172040E+02 -0.17484586794E+02  0.47787271890E+02  0.20000003857E+02 0.  0.
        -12    1    1    2    0    0 -0.46131045604E+01 -0.39454172040E+02  0.17484586794E+02  0.43400728110E+02  0.00000000000E+00 0.  1.
         11    1    3    3    0    0 -0.42799148552E+01  0.92529003450E+01 -0.46642644730E+01  0.11211119449E+02  0.51100000000E-03 0. -1.
        -11    1    3    3    0    0  0.36560522791E+01  0.27877792660E+02 -0.12684378751E+02  0.30845283374E+02  0.51100000000E-03 0.  1.
        -12    1    3    3    0    0  0.52369671365E+01  0.23234790356E+01 -0.13594357093E+00  0.57308690678E+01  0.00000000000E+00 0.  1.
</event>
<event>
 7    1  0.2294216E-010  0.4778726E+02  0.7816164E-02  0.1312668E+00
        -11   -1    0    0    0    0  0.00000000000E+00  0.00000000000E+00  0.45593999997E+02  0.45594000000E+02  0.51100000000E-03 0. -1.
         11   -1    0    0    0    0 -0.00000000000E+00 -0.00000000000E+00 -0.45593999997E+02  0.45594000000E+02  0.51100000000E-03 0.  1.
    9900012    2    1    2    0    0 -0.25787072210E+01 -0.14993442390E+01  0.43298116374E+02  0.47787255241E+02  0.19999927948E+02 0.  0.
        -12    1    1    2    0    0  0.25787072210E+01  0.14993442390E+01 -0.43298116374E+02  0.43400744759E+02  0.00000000000E+00 0.  1.
         11    1    3    3    0    0 -0.46377052939E+01 -0.56951295446E+00  0.70282525924E+01  0.84397269009E+01  0.51100000000E-03 0. -1.
        -11    1    3    3    0    0 -0.23967854039E+00  0.34265824342E+00 -0.14638745733E+01  0.15224288167E+01  0.51100000000E-03 0.  1.
         12    1    3    3    0    0  0.22986766133E+01 -0.12724895280E+01  0.37733738355E+02  0.37825099524E+02  0.00000000000E+00 0. -1.
</event>
<event>
 7    1  0.2294216E-010  0.4778727E+02  0.7816164E-02  0.1312668E+00
        -11   -1    0    0    0    0  0.00000000000E+00  0.00000000000E+00  0.45593999997E+02  0.45594000000E+02  0.51100000000E-03 0.  1.
         11   -1    0    0    0    0 -0.00000000000E+00 -0.00000000000E+00 -0.45593999997E+02  0.45594000000E+02  0.51100000000E-03 0. -1.
    9900012    2    1    2    0    0  0.41659127699E+02  0.88278209731E+01 -0.83791337608E+01  0.47787271591E+02  0.20000002494E+02 0.  0.
        -12    1    1    2    0    0 -0.41659127699E+02 -0.88278209731E+01  0.83791337608E+01  0.43400728409E+02  0.00000000000E+00 0.  1.
         11    1    3    3    0    0  0.84513306789E+01  0.59564194088E+01 -0.19622543879E+01  0.10523989974E+02  0.51100000000E-03 0. -1.
        -11    1    3    3    0    0 -0.15224651154E+01  0.83083994888E+00 -0.11392135473E+01  0.20750910379E+01  0.51100000000E-03 0.  1.
         12    1    3    3    0    0  0.34730262136E+02  0.20405616154E+01 -0.52776658256E+01  0.35188190580E+02  0.00000000000E+00 0. -1.
</event>
<event>
 7    1  0.2294216E-010  0.4778727E+02  0.7816164E-02  0.1312668E+00
        -11   -1    0    0    0    0  0.00000000000E+00  0.00000000000E+00  0.45593999997E+02  0.45594000000E+02  0.51100000000E-03 0. -1.
         11   -1    0    0    0    0 -0.00000000000E+00 -0.00000000000E+00 -0.45593999997E+02  0.45594000000E+02  0.51100000000E-03 0.  1.
    9900012    2    1    2    0    0 -0.20584519901E+02  0.35108592948E+02 -0.15076057415E+02  0.47787271141E+02  0.20000000439E+02 0.  0.
        -12    1    1    2    0    0  0.20584519901E+02 -0.35108592948E+02  0.15076057415E+02  0.43400728859E+02  0.00000000000E+00 0.  1.
         11    1    3    3    0    0 -0.10903166504E+02  0.12872160192E+02 -0.54165119362E+01  0.17717509690E+02  0.51100000000E-03 0. -1.
        -11    1    3    3    0    0 -0.92683776339E+01  0.87509446314E+01  0.11263879813E+01  0.12796507572E+02  0.51100000000E-03 0.  1.
        -12    1    3    3    0    0 -0.41297576397E+00  0.13485488124E+02 -0.10785933460E+02  0.17273253878E+02  0.00000000000E+00 0.  1.
</event>
<event>
 7    1  0.2294216E-010  0.4778727E+02  0.7816164E-02  0.1312668E+00
        -11   -1    0    0    0    0  0.00000000000E+00  0.00000000000E+00  0.45593999997E+02  0.45594000000E+02  0.51100000000E-03 0.  1.
         11   -1    0    0    0    0 -0.00000000000E+00 -0.00000000000E+00 -0.45593999997E+02  0.45594000000E+02  0.51100000000E-03 0. -1.
    9900012    2    1    2    0    0 -0.14298595007E+02  0.56656678101E+01 -0.40584160470E+02  0.47787266228E+02  0.19999978038E+02 0.  0.
        -12    1    1    2    0    0  0.14298595007E+02 -0.56656678101E+01  0.40584160470E+02  0.43400733772E+02  0.00000000000E+00 0.  1.
         11    1    3    3    0    0 -0.63321283341E+01  0.52096986883E+01 -0.13970945162E+02  0.16199509827E+02  0.51100000000E-03 0. -1.
        -11    1    3    3    0    0 -0.96569111478E+01  0.48372745894E+01 -0.11566643905E+02  0.15825372345E+02  0.51100000000E-03 0.  1.
        -12    1    3    3    0    0  0.16904444746E+01 -0.43813054676E+01 -0.15046571403E+02  0.15762384056E+02  0.00000000000E+00 0.  1.
</event>
<event>
 7    1  0.2294216E-010  0.4778729E+02  0.7816164E-02  0.1312668E+00
        -11   -1    0    0    0    0  0.00000000000E+00  0.00000000000E+00  0.45593999997E+02  0.45594000000E+02  0.51100000000E-03 0.  1.
         11   -1    0    0    0    0 -0.00000000000E+00 -0.00000000000E+00 -0.45593999997E+02  0.45594000000E+02  0.51100000000E-03 0. -1.
    9900012    2    1    2    0    0  0.22609656454E+02  0.30949584879E+02 -0.20360461815E+02  0.47787288318E+02  0.20000078759E+02 0.  0.
        -12    1    1    2    0    0 -0.22609656454E+02 -0.30949584879E+02  0.20360461815E+02  0.43400711682E+02  0.00000000000E+00 0.  1.
         11    1    3    3    0    0  0.38034566944E+01 -0.49251621710E+00 -0.37157959572E+00  0.38531709938E+01  0.51100000000E-03 0. -1.
        -11    1    3    3    0    0  0.56945773274E+01  0.49085800502E+01  0.10927239576E+01  0.75971320217E+01  0.51100000000E-03 0.  1.
         12    1    3    3    0    0  0.13111622432E+02  0.26533521046E+02 -0.21081606177E+02  0.36336985303E+02  0.00000000000E+00 0. -1.
</event>
<event>
 7    1  0.2294216E-010  0.4778728E+02  0.7816164E-02  0.1312668E+00
        -11   -1    0    0    0    0  0.00000000000E+00  0.00000000000E+00  0.45593999997E+02  0.45594000000E+02  0.51100000000E-03 0.  1.
         11   -1    0    0    0    0 -0.00000000000E+00 -0.00000000000E+00 -0.45593999997E+02  0.45594000000E+02  0.51100000000E-03 0. -1.
    9900012    2    1    2    0    0 -0.12090240352E+02 -0.32736689118E+02 -0.25802286179E+02  0.47787277677E+02  0.20000030238E+02 0.  0.
        -12    1    1    2    0    0  0.12090240352E+02  0.32736689118E+02  0.25802286179E+02  0.43400722323E+02  0.00000000000E+00 0.  1.
         11    1    3    3    0    0 -0.13821434832E+01 -0.91410119640E+01 -0.58578402765E+01  0.10944528921E+02  0.51100000000E-03 0. -1.
        -11    1    3    3    0    0 -0.70646017320E+01 -0.12579354313E+02 -0.79128512856E+00  0.14449044431E+02  0.51100000000E-03 0.  1.
        -12    1    3    3    0    0 -0.36434951369E+01 -0.11016322841E+02 -0.19153160774E+02  0.22393704324E+02  0.00000000000E+00 0.  1.
</event>
<event>
 7    1  0.2294216E-010  0.4778727E+02  0.7816164E-02  0.1312668E+00
        -11   -1    0    0    0    0  0.00000000000E+00  0.00000000000E+00  0.45593999997E+02  0.45594000000E+02  0.51100000000E-03 0.  1.
         11   -1    0    0    0    0 -0.00000000000E+00 -0.00000000000E+00 -0.45593999997E+02  0.45594000000E+02  0.51100000000E-03 0. -1.
    9900012    2    1    2    0    0 -0.11251140602E+02 -0.24388996091E+02 -0.34091231051E+02  0.47787270401E+02  0.19999997065E+02 0.  0.
        -12    1    1    2    0    0  0.11251140602E+02  0.24388996091E+02  0.34091231051E+02  0.43400729599E+02  0.00000000000E+00 0.  1.
         11    1    3    3    0    0 -0.12433818727E+02 -0.70928853141E+01 -0.17396267272E+02  0.22528625912E+02  0.51100000000E-03 0. -1.
        -11    1    3    3    0    0 -0.18507511183E+01 -0.39527744137E+01 -0.77993771131E+01  0.89375605665E+01  0.51100000000E-03 0.  1.
        -12    1    3    3    0    0  0.30334292427E+01 -0.13343336363E+02 -0.88955866656E+01  0.16321083923E+02  0.00000000000E+00 0.  1.
</event>
<event>
 7    1  0.2294216E-010  0.4778727E+02  0.7816164E-02  0.1312668E+00
        -11   -1    0    0    0    0  0.00000000000E+00  0.00000000000E+00  0.45593999997E+02  0.45594000000E+02  0.51100000000E-03 0.  1.
         11   -1    0    0    0    0 -0.00000000000E+00 -0.00000000000E+00 -0.45593999997E+02  0.45594000000E+02  0.51100000000E-03 0. -1.
    9900012    2    1    2    0    0 -0.23332830167E+02 -0.23260269091E+02 -0.28251765511E+02  0.47787270326E+02  0.19999996724E+02 0.  0.
        -12    1    1    2    0    0  0.23332830167E+02  0.23260269091E+02  0.28251765511E+02  0.43400729674E+02  0.00000000000E+00 0.  1.
         11    1    3    3    0    0 -0.12642625484E+02 -0.55746493263E+01 -0.46794392411E+01  0.14588003500E+02  0.51100000000E-03 0. -1.
        -11    1    3    3    0    0 -0.15356159395E+01 -0.37061277351E+01  0.34084136418E+00  0.40261237188E+01  0.51100000000E-03 0.  1.
         12    1    3    3    0    0 -0.91545887428E+01 -0.13979492029E+02 -0.23913167634E+02  0.29173143107E+02  0.00000000000E+00 0. -1.
</event>
<event>
 7    1  0.2294216E-010  0.4778727E+02  0.7816164E-02  0.1312668E+00
        -11   -1    0    0    0    0  0.00000000000E+00  0.00000000000E+00  0.45593999997E+02  0.45594000000E+02  0.51100000000E-03 0.  1.
         11   -1    0    0    0    0 -0.00000000000E+00 -0.00000000000E+00 -0.45593999997E+02  0.45594000000E+02  0.51100000000E-03 0. -1.
    9900012    2    1    2    0    0  0.35910654598E+02  0.12874669819E+02 -0.20695193404E+02  0.47787271128E+02  0.20000000381E+02 0.  0.
        -12    1    1    2    0    0 -0.35910654598E+02 -0.12874669819E+02  0.20695193404E+02  0.43400728872E+02  0.00000000000E+00 0.  1.
         11    1    3    3    0    0  0.84299545769E+01  0.81966609293E+01 -0.12488347316E+02  0.17152498462E+02  0.51100000000E-03 0. -1.
        -11    1    3    3    0    0  0.11183881359E+02  0.20634997344E+00 -0.79686136506E+01  0.13733921011E+02  0.51100000000E-03 0.  1.
        -12    1    3    3    0    0  0.16296818661E+02  0.44716589167E+01 -0.23823243736E+00  0.16900851654E+02  0.00000000000E+00 0.  1.
</event>
<event>
 7    1  0.2294216E-010  0.4778727E+02  0.7816164E-02  0.1312668E+00
        -11   -1    0    0    0    0  0.00000000000E+00  0.00000000000E+00  0.45593999997E+02  0.45594000000E+02  0.51100000000E-03 0.  1.
         11   -1    0    0    0    0 -0.00000000000E+00 -0.00000000000E+00 -0.45593999997E+02  0.45594000000E+02  0.51100000000E-03 0. -1.
    9900012    2    1    2    0    0 -0.42194632273E+02 -0.37488016399E+01 -0.94436733623E+01  0.47787268751E+02  0.19999989544E+02 0.  0.
        -12    1    1    2    0    0  0.42194632273E+02  0.37488016399E+01  0.94436733623E+01  0.43400731249E+02  0.00000000000E+00 0.  1.
         11    1    3    3    0    0 -0.86026639322E+01 -0.54942872719E+01 -0.59023088444E+01  0.11791109757E+02  0.51100000000E-03 0. -1.
        -11    1    3    3    0    0 -0.11654790004E+02  0.26963069186E+01 -0.68584956135E+01  0.13789240856E+02  0.51100000000E-03 0.  1.
         12    1    3    3    0    0 -0.21937178336E+02 -0.95082128665E+00  0.33171310956E+01  0.22206918138E+02  0.00000000000E+00 0. -1.
</event>
<event>
 7    1  0.2294216E-010  0.4778726E+02  0.7816164E-02  0.1312668E+00
        -11   -1    0    0    0    0  0.00000000000E+00  0.00000000000E+00  0.45593999997E+02  0.45594000000E+02  0.51100000000E-03 0.  1.
         11   -1    0    0    0    0 -0.00000000000E+00 -0.00000000000E+00 -0.45593999997E+02  0.45594000000E+02  0.51100000000E-03 0. -1.
    9900012    2    1    2    0    0 -0.25408121886E+02  0.35078645221E+02  0.27459677663E+01  0.47787258678E+02  0.19999943616E+02 0.  0.
        -12    1    1    2    0    0  0.25408121886E+02 -0.35078645221E+02 -0.27459677663E+01  0.43400741322E+02  0.00000000000E+00 0.  1.
         11    1    3    3    0    0 -0.24367457859E+01  0.12784030817E+02 -0.62774904543E+00  0.13029322434E+02  0.51100000000E-03 0. -1.
        -11    1    3    3    0    0  0.63438139888E+00  0.33169313662E+00 -0.19511624998E+01  0.20783395916E+01  0.51100000000E-03 0.  1.
         12    1    3    3    0    0 -0.23605757499E+02  0.21962921268E+02  0.53248793115E+01  0.32679596653E+02  0.00000000000E+00 0. -1.
</event>
<event>
 7    1  0.2294216E-010  0.4778729E+02  0.7816164E-02  0.1312668E+00
        -11   -1    0    0    0    0  0.00000000000E+00  0.00000000000E+00  0.45593999997E+02  0.45594000000E+02  0.51100000000E-03 0.  1.
         11   -1    0    0    0    0 -0.00000000000E+00 -0.00000000000E+00 -0.45593999997E+02  0.45594000000E+02  0.51100000000E-03 0. -1.
    9900012    2    1    2    0    0 -0.25395641556E+01 -0.10326521989E+02 -0.42077724810E+02  0.47787293005E+02  0.20000100125E+02 0.  0.
        -12    1    1    2    0    0  0.25395641556E+01  0.10326521989E+02  0.42077724810E+02  0.43400706995E+02  0.00000000000E+00 0.  1.
         11    1    3    3    0    0 -0.16468753158E+01 -0.92984964159E+01 -0.20541035331E+02  0.22607705912E+02  0.51100000000E-03 0.  1.
        -11    1    3    3    0    0 -0.58459934139E+01 -0.39645096395E+01 -0.14136565196E+02  0.15803020328E+02  0.51100000000E-03 0. -1.
         12    1    3    3    0    0  0.49533045741E+01  0.29364840665E+01 -0.74001242833E+01  0.93765667643E+01  0.00000000000E+00 0. -1.
</event>
<event>
 7    1  0.2294216E-010  0.4778728E+02  0.7816164E-02  0.1312668E+00
        -11   -1    0    0    0    0  0.00000000000E+00  0.00000000000E+00  0.45593999997E+02  0.45594000000E+02  0.51100000000E-03 0. -1.
         11   -1    0    0    0    0 -0.00000000000E+00 -0.00000000000E+00 -0.45593999997E+02  0.45594000000E+02  0.51100000000E-03 0.  1.
    9900012    2    1    2    0    0 -0.41601325289E+02  0.25730219755E+01 -0.12096776174E+02  0.47787277636E+02  0.20000030054E+02 0.  0.
        -12    1    1    2    0    0  0.41601325289E+02 -0.25730219755E+01  0.12096776174E+02  0.43400722364E+02  0.00000000000E+00 0.  1.
         11    1    3    3    0    0 -0.15107793043E+02  0.39714468829E+01 -0.54418027443E+01  0.16541796104E+02  0.51100000000E-03 0. -1.
        -11    1    3    3    0    0 -0.25264064637E+02 -0.30750679335E+01 -0.12803221471E+01  0.25482704524E+02  0.51100000000E-03 0.  1.
         12    1    3    3    0    0 -0.12294676089E+01  0.16766430261E+01 -0.53746512827E+01  0.57627770085E+01  0.00000000000E+00 0. -1.
</event>
<event>
 7    1  0.2294216E-010  0.4778727E+02  0.7816164E-02  0.1312668E+00
        -11   -1    0    0    0    0  0.00000000000E+00  0.00000000000E+00  0.45593999997E+02  0.45594000000E+02  0.51100000000E-03 0.  1.
         11   -1    0    0    0    0 -0.00000000000E+00 -0.00000000000E+00 -0.45593999997E+02  0.45594000000E+02  0.51100000000E-03 0. -1.
    9900012    2    1    2    0    0  0.11659596481E+02 -0.80943167026E+01 -0.41014132783E+02  0.47787271424E+02  0.20000001732E+02 0.  0.
        -12    1    1    2    0    0 -0.11659596481E+02  0.80943167026E+01  0.41014132783E+02  0.43400728576E+02  0.00000000000E+00 0.  1.
         11    1    3    3    0    0  0.38506028927E+00  0.13281717644E+01 -0.37425736945E+01  0.39898834296E+01  0.51100000000E-03 0. -1.
        -11    1    3    3    0    0 -0.12488551830E+01  0.16734116085E+01 -0.18636194448E+02  0.18752804842E+02  0.51100000000E-03 0.  1.
         12    1    3    3    0    0  0.12523391374E+02 -0.11095900076E+02 -0.18635364640E+02  0.25044583153E+02  0.00000000000E+00 0. -1.
</event>
<event>
 7    1  0.2294216E-010  0.4778727E+02  0.7816164E-02  0.1312668E+00
        -11   -1    0    0    0    0  0.00000000000E+00  0.00000000000E+00  0.45593999997E+02  0.45594000000E+02  0.51100000000E-03 0. -1.
         11   -1    0    0    0    0 -0.00000000000E+00 -0.00000000000E+00 -0.45593999997E+02  0.45594000000E+02  0.51100000000E-03 0.  1.
    9900012    2    1    2    0    0  0.26064741164E+02 -0.18515904838E+02  0.29349847639E+02  0.47787273965E+02  0.20000013316E+02 0.  0.
        -12    1    1    2    0    0 -0.26064741164E+02  0.18515904838E+02 -0.29349847639E+02  0.43400726035E+02  0.00000000000E+00 0.  1.
         11    1    3    3    0    0  0.84450351356E+01 -0.11192315500E+02  0.64655662594E+01  0.15439886399E+02  0.51100000000E-03 0.  1.
        -11    1    3    3    0    0  0.44134541356E+01 -0.65588605527E+01  0.29806466782E+01  0.84487563604E+01  0.51100000000E-03 0. -1.
        -12    1    3    3    0    0  0.13206251893E+02 -0.76472878550E+00  0.19903634701E+02  0.23898631206E+02  0.00000000000E+00 0.  1.
</event>
<event>
 7    1  0.2294216E-010  0.4778733E+02  0.7816164E-02  0.1312668E+00
        -11   -1    0    0    0    0  0.00000000000E+00  0.00000000000E+00  0.45593999997E+02  0.45594000000E+02  0.51100000000E-03 0.  1.
         11   -1    0    0    0    0 -0.00000000000E+00 -0.00000000000E+00 -0.45593999997E+02  0.45594000000E+02  0.51100000000E-03 0. -1.
    9900012    2    1    2    0    0  0.92141977664E+01  0.40938907323E+02 -0.11078029602E+02  0.47787328195E+02  0.20000260570E+02 0.  0.
        -12    1    1    2    0    0 -0.92141977664E+01 -0.40938907323E+02  0.11078029602E+02  0.43400671805E+02  0.00000000000E+00 0.  1.
         11    1    3    3    0    0  0.87202079337E+01  0.10934607533E+02 -0.17359365908E+01  0.14093301402E+02  0.51100000000E-03 0.  1.
        -11    1    3    3    0    0  0.42103377317E+01  0.26733791772E+02 -0.59983566415E+01  0.27720080249E+02  0.51100000000E-03 0. -1.
         12    1    3    3    0    0 -0.37163478990E+01  0.32705080180E+01 -0.33437363696E+01  0.59739465441E+01  0.00000000000E+00 0. -1.
</event>
<event>
 7    1  0.2294216E-010  0.4778727E+02  0.7816164E-02  0.1312668E+00
        -11   -1    0    0    0    0  0.00000000000E+00  0.00000000000E+00  0.45593999997E+02  0.45594000000E+02  0.51100000000E-03 0.  1.
         11   -1    0    0    0    0 -0.00000000000E+00 -0.00000000000E+00 -0.45593999997E+02  0.45594000000E+02  0.51100000000E-03 0. -1.
    9900012    2    1    2    0    0  0.35917382278E+02  0.23197571407E+01 -0.24252499961E+02  0.47787269854E+02  0.19999994570E+02 0.  0.
        -12    1    1    2    0    0 -0.35917382278E+02 -0.23197571407E+01  0.24252499961E+02  0.43400730146E+02  0.00000000000E+00 0.  1.
         11    1    3    3    0    0  0.12329747700E+02  0.26805074802E+01 -0.47137741423E+01  0.13469501313E+02  0.51100000000E-03 0. -1.
        -11    1    3    3    0    0  0.61633880100E+01 -0.36870438130E+00  0.21127282590E+01  0.65258651258E+01  0.51100000000E-03 0.  1.
        -12    1    3    3    0    0  0.17424246567E+02  0.79540418046E-02 -0.21651454078E+02  0.27791903414E+02  0.00000000000E+00 0.  1.
</event>
<event>
 7    1  0.2294216E-010  0.4778727E+02  0.7816164E-02  0.1312668E+00
        -11   -1    0    0    0    0  0.00000000000E+00  0.00000000000E+00  0.45593999997E+02  0.45594000000E+02  0.51100000000E-03 0.  1.
         11   -1    0    0    0    0 -0.00000000000E+00 -0.00000000000E+00 -0.45593999997E+02  0.45594000000E+02  0.51100000000E-03 0. -1.
    9900012    2    1    2    0    0  0.25772218066E+02  0.27692611090E+02 -0.21272874706E+02  0.47787272687E+02  0.20000007490E+02 0.  0.
        -12    1    1    2    0    0 -0.25772218066E+02 -0.27692611090E+02  0.21272874706E+02  0.43400727313E+02  0.00000000000E+00 0.  1.
         11    1    3    3    0    0  0.80279326148E+01  0.17372792517E+02 -0.92941393365E+01  0.21275400071E+02  0.51100000000E-03 0. -1.
        -11    1    3    3    0    0  0.17636787864E+01  0.46724003205E+01  0.10871711248E+01  0.51111475162E+01  0.51100000000E-03 0.  1.
        -12    1    3    3    0    0  0.15980606665E+02  0.56474182526E+01 -0.13065906495E+02  0.21400725100E+02  0.00000000000E+00 0.  1.
</event>
<event>
 7    1  0.2294216E-010  0.4778728E+02  0.7816164E-02  0.1312668E+00
        -11   -1    0    0    0    0  0.00000000000E+00  0.00000000000E+00  0.45593999997E+02  0.45594000000E+02  0.51100000000E-03 0.  1.
         11   -1    0    0    0    0 -0.00000000000E+00 -0.00000000000E+00 -0.45593999997E+02  0.45594000000E+02  0.51100000000E-03 0. -1.
    9900012    2    1    2    0    0  0.99083348006E+01 -0.27321884238E+02 -0.32232935075E+02  0.47787279265E+02  0.20000037479E+02 0.  0.
        -12    1    1    2    0    0 -0.99083348006E+01  0.27321884238E+02  0.32232935075E+02  0.43400720735E+02  0.00000000000E+00 0.  1.
         11    1    3    3    0    0  0.36632080691E+01 -0.18069181613E+02 -0.22584444889E+02  0.29154271878E+02  0.51100000000E-03 0. -1.
        -11    1    3    3    0    0 -0.36011470664E+00  0.37359124895E+00 -0.65280518018E+01  0.65486421197E+01  0.51100000000E-03 0.  1.
        -12    1    3    3    0    0  0.66052414381E+01 -0.96262938741E+01 -0.31204383838E+01  0.12084365267E+02  0.00000000000E+00 0.  1.
</event>
<event>
 7    1  0.2294216E-010  0.4778727E+02  0.7816164E-02  0.1312668E+00
        -11   -1    0    0    0    0  0.00000000000E+00  0.00000000000E+00  0.45593999997E+02  0.45594000000E+02  0.51100000000E-03 0.  1.
         11   -1    0    0    0    0 -0.00000000000E+00 -0.00000000000E+00 -0.45593999997E+02  0.45594000000E+02  0.51100000000E-03 0. -1.
    9900012    2    1    2    0    0  0.30961591348E+02 -0.28033703689E+02 -0.11794684810E+02  0.47787271077E+02  0.20000000147E+02 0.  0.
        -12    1    1    2    0    0 -0.30961591348E+02  0.28033703689E+02  0.11794684810E+02  0.43400728923E+02  0.00000000000E+00 0.  1.
         11    1    3    3    0    0  0.19990635645E+02 -0.14086389972E+02 -0.80099672431E+01  0.25733469868E+02  0.51100000000E-03 0. -1.
        -11    1    3    3    0    0  0.36457375762E+01  0.18253944899E+01 -0.20873415502E+01  0.45804434858E+01  0.51100000000E-03 0.  1.
         12    1    3    3    0    0  0.73252181264E+01 -0.15772708206E+02 -0.16973760171E+01  0.17473357723E+02  0.00000000000E+00 0. -1.
</event>
<event>
 7    1  0.2294216E-010  0.4778728E+02  0.7816164E-02  0.1312668E+00
        -11   -1    0    0    0    0  0.00000000000E+00  0.00000000000E+00  0.45593999997E+02  0.45594000000E+02  0.51100000000E-03 0.  1.
         11   -1    0    0    0    0 -0.00000000000E+00 -0.00000000000E+00 -0.45593999997E+02  0.45594000000E+02  0.51100000000E-03 0. -1.
    9900012    2    1    2    0    0  0.12450520190E+02  0.31488425074E+02 -0.27149335334E+02  0.47787276783E+02  0.20000026166E+02 0.  0.
        -12    1    1    2    0    0 -0.12450520190E+02 -0.31488425074E+02  0.27149335334E+02  0.43400723217E+02  0.00000000000E+00 0.  1.
         11    1    3    3    0    0 -0.25512503925E+01  0.71512678359E+01 -0.49786432962E+01  0.90794492982E+01  0.51100000000E-03 0. -1.
        -11    1    3    3    0    0 -0.18340321036E+01  0.50991056320E+01 -0.98933494656E+00  0.55084785468E+01  0.51100000000E-03 0.  1.
        -12    1    3    3    0    0  0.16835802686E+02  0.19238051606E+02 -0.21181357091E+02  0.33199348938E+02  0.00000000000E+00 0.  1.
</event>
<event>
 7    1  0.2294216E-010  0.4778728E+02  0.7816164E-02  0.1312668E+00
        -11   -1    0    0    0    0  0.00000000000E+00  0.00000000000E+00  0.45593999997E+02  0.45594000000E+02  0.51100000000E-03 0.  1.
         11   -1    0    0    0    0 -0.00000000000E+00 -0.00000000000E+00 -0.45593999997E+02  0.45594000000E+02  0.51100000000E-03 0. -1.
    9900012    2    1    2    0    0  0.10162973096E+02  0.36807983542E+02 -0.20627875619E+02  0.47787275039E+02  0.20000018212E+02 0.  0.
        -12    1    1    2    0    0 -0.10162973096E+02 -0.36807983542E+02  0.20627875619E+02  0.43400724961E+02  0.00000000000E+00 0.  1.
         11    1    3    3    0    0 -0.44401397913E+01  0.55494337899E+01 -0.50625242793E+01  0.87258357247E+01  0.51100000000E-03 0. -1.
        -11    1    3    3    0    0  0.47034685709E+01  0.25696607119E+01 -0.35052655213E+01  0.64041126948E+01  0.51100000000E-03 0.  1.
         12    1    3    3    0    0  0.98996443163E+01  0.28688889041E+02 -0.12060085818E+02  0.32657326619E+02  0.00000000000E+00 0. -1.
</event>
<event>
 7    1  0.2294216E-010  0.4778727E+02  0.7816164E-02  0.1312668E+00
        -11   -1    0    0    0    0  0.00000000000E+00  0.00000000000E+00  0.45593999997E+02  0.45594000000E+02  0.51100000000E-03 0.  1.
         11   -1    0    0    0    0 -0.00000000000E+00 -0.00000000000E+00 -0.45593999997E+02  0.45594000000E+02  0.51100000000E-03 0. -1.
    9900012    2    1    2    0    0  0.66008583840E+01  0.17690511721E+02 -0.39078096866E+02  0.47787271999E+02  0.20000004352E+02 0.  0.
        -12    1    1    2    0    0 -0.66008583840E+01 -0.17690511721E+02  0.39078096866E+02  0.43400728001E+02  0.00000000000E+00 0.  1.
         11    1    3    3    0    0  0.26812261849E+01  0.10390997250E+02 -0.18709991877E+02  0.21569088854E+02  0.51100000000E-03 0. -1.
        -11    1    3    3    0    0  0.78908958398E+01  0.49037078251E+01 -0.19357321941E+02  0.21471341378E+02  0.51100000000E-03 0.  1.
        -12    1    3    3    0    0 -0.39712636406E+01  0.23958066460E+01 -0.10107830479E+01  0.47468417667E+01  0.00000000000E+00 0.  1.
</event>
<event>
 7    1  0.2294216E-010  0.4778731E+02  0.7816164E-02  0.1312668E+00
        -11   -1    0    0    0    0  0.00000000000E+00  0.00000000000E+00  0.45593999997E+02  0.45594000000E+02  0.51100000000E-03 0.  1.
         11   -1    0    0    0    0 -0.00000000000E+00 -0.00000000000E+00 -0.45593999997E+02  0.45594000000E+02  0.51100000000E-03 0. -1.
    9900012    2    1    2    0    0 -0.36034568190E+02  0.22085475707E+02 -0.98671925162E+01  0.47787310720E+02  0.20000180896E+02 0.  0.
        -12    1    1    2    0    0  0.36034568190E+02 -0.22085475707E+02  0.98671925162E+01  0.43400689280E+02  0.00000000000E+00 0.  1.
         11    1    3    3    0    0  0.86476869719E+00  0.66325458435E+00  0.14276790857E+01  0.17961067274E+01  0.51100000000E-03 0. -1.
        -11    1    3    3    0    0 -0.25829640648E+02  0.11107974258E+02 -0.18988570580E+01  0.28180899321E+02  0.51100000000E-03 0.  1.
         12    1    3    3    0    0 -0.11069696239E+02  0.10314246864E+02 -0.93960145440E+01  0.17810304672E+02  0.00000000000E+00 0. -1.
</event>
<event>
 7    1  0.2294216E-010  0.4778727E+02  0.7816164E-02  0.1312668E+00
        -11   -1    0    0    0    0  0.00000000000E+00  0.00000000000E+00  0.45593999997E+02  0.45594000000E+02  0.51100000000E-03 0. -1.
         11   -1    0    0    0    0 -0.00000000000E+00 -0.00000000000E+00 -0.45593999997E+02  0.45594000000E+02  0.51100000000E-03 0.  1.
    9900012    2    1    2    0    0  0.22537688264E+02  0.36172536848E+02 -0.81990008071E+01  0.47787269263E+02  0.19999991876E+02 0.  0.
        -12    1    1    2    0    0 -0.22537688264E+02 -0.36172536848E+02  0.81990008071E+01  0.43400730737E+02  0.00000000000E+00 0.  1.
         11    1    3    3    0    0  0.71575568037E+01  0.12242186282E+02 -0.38411180270E+01  0.14692036357E+02  0.51100000000E-03 0. -1.
        -11    1    3    3    0    0  0.17324617954E+02  0.18424986321E+02 -0.76113745668E+01  0.26411276592E+02  0.51100000000E-03 0.  1.
         12    1    3    3    0    0 -0.19444864935E+01  0.55053642455E+01  0.32534917867E+01  0.66839563138E+01  0.00000000000E+00 0. -1.
</event>
<event>
 7    1  0.2294216E-010  0.4778727E+02  0.7816164E-02  0.1312668E+00
        -11   -1    0    0    0    0  0.00000000000E+00  0.00000000000E+00  0.45593999997E+02  0.45594000000E+02  0.51100000000E-03 0.  1.
         11   -1    0    0    0    0 -0.00000000000E+00 -0.00000000000E+00 -0.45593999997E+02  0.45594000000E+02  0.51100000000E-03 0. -1.
    9900012    2    1    2    0    0 -0.29421657713E+02  0.30029060453E+02  0.10781698836E+02  0.47787269083E+02  0.19999991059E+02 0.  0.
        -12    1    1    2    0    0  0.29421657713E+02 -0.30029060453E+02 -0.10781698836E+02  0.43400730917E+02  0.00000000000E+00 0.  1.
         11    1    3    3    0    0 -0.11181566501E+01  0.17482163095E+01 -0.20325496774E+01  0.29047879460E+01  0.51100000000E-03 0. -1.
        -11    1    3    3    0    0 -0.21359642291E+02  0.10509232917E+02  0.88369654863E+01  0.25392326687E+02  0.51100000000E-03 0.  1.
         12    1    3    3    0    0 -0.69438587722E+01  0.17771611226E+02  0.39772830275E+01  0.19490154450E+02  0.00000000000E+00 0. -1.
</event>
<event>
 7    1  0.2294216E-010  0.4778726E+02  0.7816164E-02  0.1312668E+00
        -11   -1    0    0    0    0  0.00000000000E+00  0.00000000000E+00  0.45593999997E+02  0.45594000000E+02  0.51100000000E-03 0.  1.
         11   -1    0    0    0    0 -0.00000000000E+00 -0.00000000000E+00 -0.45593999997E+02  0.45594000000E+02  0.51100000000E-03 0. -1.
    9900012    2    1    2    0    0  0.87453093515E+01 -0.34842329280E+02 -0.24354784985E+02  0.47787263866E+02  0.19999967271E+02 0.  0.
        -12    1    1    2    0    0 -0.87453093515E+01  0.34842329280E+02  0.24354784985E+02  0.43400736134E+02  0.00000000000E+00 0.  1.
         11    1    3    3    0    0 -0.36208478082E+01 -0.51618310887E+01 -0.64481841533E+01  0.90185430184E+01  0.51100000000E-03 0. -1.
        -11    1    3    3    0    0  0.17691979326E+01 -0.96262176771E+01  0.13204838048E+00  0.97883382209E+01  0.51100000000E-03 0.  1.
         12    1    3    3    0    0  0.10596959227E+02 -0.20054280514E+02 -0.18038649212E+02  0.28980382627E+02  0.00000000000E+00 0. -1.
</event>
<event>
 7    1  0.2294216E-010  0.4778727E+02  0.7816164E-02  0.1312668E+00
        -11   -1    0    0    0    0  0.00000000000E+00  0.00000000000E+00  0.45593999997E+02  0.45594000000E+02  0.51100000000E-03 0.  1.
         11   -1    0    0    0    0 -0.00000000000E+00 -0.00000000000E+00 -0.45593999997E+02  0.45594000000E+02  0.51100000000E-03 0. -1.
    9900012    2    1    2    0    0  0.18952136627E+02  0.53241234030E+01 -0.38679367532E+02  0.47787271372E+02  0.20000001495E+02 0.  0.
        -12    1    1    2    0    0 -0.18952136627E+02 -0.53241234030E+01  0.38679367532E+02  0.43400728628E+02  0.00000000000E+00 0.  1.
         11    1    3    3    0    0  0.11003585931E+02  0.20069369760E+01 -0.13636070312E+02  0.17636584510E+02  0.51100000000E-03 0. -1.
        -11    1    3    3    0    0  0.23667766148E+01  0.69453535570E+01 -0.46226901730E+01  0.86723025935E+01  0.51100000000E-03 0.  1.
         12    1    3    3    0    0  0.55817740805E+01 -0.36281671300E+01 -0.20420607048E+02  0.21478384269E+02  0.00000000000E+00 0. -1.
</event>
<event>
 7    1  0.2294216E-010  0.4778727E+02  0.7816164E-02  0.1312668E+00
        -11   -1    0    0    0    0  0.00000000000E+00  0.00000000000E+00  0.45593999997E+02  0.45594000000E+02  0.51100000000E-03 0.  1.
         11   -1    0    0    0    0 -0.00000000000E+00 -0.00000000000E+00 -0.45593999997E+02  0.45594000000E+02  0.51100000000E-03 0. -1.
    9900012    2    1    2    0    0  0.28791892644E+02 -0.16348316146E+02 -0.28060343188E+02  0.47787269791E+02  0.19999994286E+02 0.  0.
        -12    1    1    2    0    0 -0.28791892644E+02  0.16348316146E+02  0.28060343188E+02  0.43400730209E+02  0.00000000000E+00 0.  1.
         11    1    3    3    0    0  0.10167975147E+01  0.23979252974E+01 -0.59839816397E+01  0.65262515614E+01  0.51100000000E-03 0. -1.
        -11    1    3    3    0    0  0.13902335123E+02 -0.39754033958E+01 -0.10994375610E+02  0.18164664856E+02  0.51100000000E-03 0.  1.
        -12    1    3    3    0    0  0.13872760006E+02 -0.14770838047E+02 -0.11081985939E+02  0.23096353374E+02  0.00000000000E+00 0.  1.
</event>
<event>
 7    1  0.2294216E-010  0.4778727E+02  0.7816164E-02  0.1312668E+00
        -11   -1    0    0    0    0  0.00000000000E+00  0.00000000000E+00  0.45593999997E+02  0.45594000000E+02  0.51100000000E-03 0. -1.
         11   -1    0    0    0    0 -0.00000000000E+00 -0.00000000000E+00 -0.45593999997E+02  0.45594000000E+02  0.51100000000E-03 0.  1.
    9900012    2    1    2    0    0 -0.38887147033E+02 -0.17622452405E+02  0.78014554832E+01  0.47787265665E+02  0.19999975475E+02 0.  0.
        -12    1    1    2    0    0  0.38887147033E+02  0.17622452405E+02 -0.78014554832E+01  0.43400734335E+02  0.00000000000E+00 0.  1.
         11    1    3    3    0    0 -0.61231898357E+01 -0.52520098573E+01  0.23496084424E+01  0.84022450213E+01  0.51100000000E-03 0. -1.
        -11    1    3    3    0    0 -0.22696029008E+02 -0.57393829121E+01 -0.43947017497E+01  0.23819396564E+02  0.51100000000E-03 0.  1.
        -12    1    3    3    0    0 -0.10067928189E+02 -0.66310596358E+01  0.98465487905E+01  0.15565624080E+02  0.00000000000E+00 0.  1.
</event>
<event>
 7    1  0.2294216E-010  0.4778726E+02  0.7816164E-02  0.1312668E+00
        -11   -1    0    0    0    0  0.00000000000E+00  0.00000000000E+00  0.45593999997E+02  0.45594000000E+02  0.51100000000E-03 0. -1.
         11   -1    0    0    0    0 -0.00000000000E+00 -0.00000000000E+00 -0.45593999997E+02  0.45594000000E+02  0.51100000000E-03 0.  1.
    9900012    2    1    2    0    0  0.41535434308E+02 -0.51862633689E+01  0.11468851351E+02  0.47787260580E+02  0.19999952288E+02 0.  0.
        -12    1    1    2    0    0 -0.41535434308E+02  0.51862633689E+01 -0.11468851351E+02  0.43400739420E+02  0.00000000000E+00 0.  1.
         11    1    3    3    0    0  0.53787844878E+01 -0.34233112859E+00 -0.22615903076E+01  0.58449383358E+01  0.51100000000E-03 0.  1.
        -11    1    3    3    0    0  0.69801510690E+01 -0.64853266898E+01  0.73444020679E+01  0.12030054581E+02  0.51100000000E-03 0. -1.
         12    1    3    3    0    0  0.29176498751E+02  0.16413944495E+01  0.63860395903E+01  0.29912267664E+02  0.00000000000E+00 0. -1.
</event>
<event>
 7    1  0.2294216E-010  0.4778727E+02  0.7816164E-02  0.1312668E+00
        -11   -1    0    0    0    0  0.00000000000E+00  0.00000000000E+00  0.45593999997E+02  0.45594000000E+02  0.51100000000E-03 0. -1.
         11   -1    0    0    0    0 -0.00000000000E+00 -0.00000000000E+00 -0.45593999997E+02  0.45594000000E+02  0.51100000000E-03 0.  1.
    9900012    2    1    2    0    0  0.14875420643E+02 -0.29325826993E+02  0.28325626231E+02  0.47787269942E+02  0.19999994975E+02 0.  0.
        -12    1    1    2    0    0 -0.14875420643E+02  0.29325826993E+02 -0.28325626231E+02  0.43400730058E+02  0.00000000000E+00 0.  1.
         11    1    3    3    0    0 -0.21834511915E+00  0.95731724206E+00  0.39868756137E+01  0.41060088058E+01  0.51100000000E-03 0.  1.
        -11    1    3    3    0    0 -0.52119877398E+00 -0.12864411545E+02  0.89574750551E+01  0.15684421959E+02  0.51100000000E-03 0. -1.
         12    1    3    3    0    0  0.15614964537E+02 -0.17418732690E+02  0.15381275562E+02  0.27996839178E+02  0.00000000000E+00 0. -1.
</event>
<event>
 7    1  0.2294216E-010  0.4778726E+02  0.7816164E-02  0.1312668E+00
        -11   -1    0    0    0    0  0.00000000000E+00  0.00000000000E+00  0.45593999997E+02  0.45594000000E+02  0.51100000000E-03 0. -1.
         11   -1    0    0    0    0 -0.00000000000E+00 -0.00000000000E+00 -0.45593999997E+02  0.45594000000E+02  0.51100000000E-03 0.  1.
    9900012    2    1    2    0    0  0.38278294888E+02  0.47275167887E+01  0.19900932613E+02  0.47787258147E+02  0.19999941196E+02 0.  0.
        -12    1    1    2    0    0 -0.38278294888E+02 -0.47275167887E+01 -0.19900932613E+02  0.43400741853E+02  0.00000000000E+00 0.  1.
         11    1    3    3    0    0  0.77579094759E+01 -0.21319042428E+01  0.16178310924E+01  0.82065554797E+01  0.51100000000E-03 0. -1.
        -11    1    3    3    0    0  0.12667408824E+02  0.15989958662E+01  0.16529445236E+02  0.20886421287E+02  0.51100000000E-03 0.  1.
        -12    1    3    3    0    0  0.17852976588E+02  0.52604251653E+01  0.17536562842E+01  0.18694281380E+02  0.00000000000E+00 0.  1.
</event>
<event>
 7    1  0.2294216E-010  0.4778729E+02  0.7816164E-02  0.1312668E+00
        -11   -1    0    0    0    0  0.00000000000E+00  0.00000000000E+00  0.45593999997E+02  0.45594000000E+02  0.51100000000E-03 0.  1.
         11   -1    0    0    0    0 -0.00000000000E+00 -0.00000000000E+00 -0.45593999997E+02  0.45594000000E+02  0.51100000000E-03 0. -1.
    9900012    2    1    2    0    0 -0.42388541908E+02  0.43436946049E+01  0.82441162701E+01  0.47787290087E+02  0.20000086821E+02 0.  0.
        -12    1    1    2    0    0  0.42388541908E+02 -0.43436946049E+01 -0.82441162701E+01  0.43400709913E+02  0.00000000000E+00 0.  1.
         11    1    3    3    0    0 -0.38941713549E+01  0.51053988936E+00  0.43258700725E+01  0.58428052907E+01  0.51100000000E-03 0. -1.
        -11    1    3    3    0    0 -0.12219532550E+01  0.97998055208E+00  0.42838456830E+01  0.45612351109E+01  0.51100000000E-03 0.  1.
         12    1    3    3    0    0 -0.37272417298E+02  0.28531741635E+01 -0.36559948535E+00  0.37383249685E+02  0.00000000000E+00 0. -1.
</event>
<event>
 7    1  0.2294216E-010  0.4778727E+02  0.7816164E-02  0.1312668E+00
        -11   -1    0    0    0    0  0.00000000000E+00  0.00000000000E+00  0.45593999997E+02  0.45594000000E+02  0.51100000000E-03 0.  1.
         11   -1    0    0    0    0 -0.00000000000E+00 -0.00000000000E+00 -0.45593999997E+02  0.45594000000E+02  0.51100000000E-03 0. -1.
    9900012    2    1    2    0    0 -0.60926363579E+01 -0.29027697085E+02 -0.31684315482E+02  0.47787271165E+02  0.20000000550E+02 0.  0.
        -12    1    1    2    0    0  0.60926363579E+01  0.29027697085E+02  0.31684315482E+02  0.43400728835E+02  0.00000000000E+00 0.  1.
         11    1    3    3    0    0 -0.41423776985E+00 -0.12856340276E+02 -0.13188930330E+02  0.18422946608E+02  0.51100000000E-03 0. -1.
        -11    1    3    3    0    0 -0.68880175777E+01 -0.96418467570E+01 -0.19328573493E+02  0.22671650769E+02  0.51100000000E-03 0.  1.
         12    1    3    3    0    0  0.12096189896E+01 -0.65295100525E+01  0.83318834124E+00  0.66926737884E+01  0.00000000000E+00 0. -1.
</event>
<event>
 7    1  0.2294216E-010  0.4778727E+02  0.7816164E-02  0.1312668E+00
        -11   -1    0    0    0    0  0.00000000000E+00  0.00000000000E+00  0.45593999997E+02  0.45594000000E+02  0.51100000000E-03 0. -1.
         11   -1    0    0    0    0 -0.00000000000E+00 -0.00000000000E+00 -0.45593999997E+02  0.45594000000E+02  0.51100000000E-03 0.  1.
    9900012    2    1    2    0    0  0.37157954205E+02  0.30819941700E+00 -0.22423534261E+02  0.47787269172E+02  0.19999991465E+02 0.  0.
        -12    1    1    2    0    0 -0.37157954205E+02 -0.30819941700E+00  0.22423534261E+02  0.43400730828E+02  0.00000000000E+00 0.  1.
         11    1    3    3    0    0  0.19787564682E+02  0.53426419684E+01 -0.67007472110E+01  0.21563662785E+02  0.51100000000E-03 0. -1.
        -11    1    3    3    0    0  0.10664707714E+02  0.15104939052E+01 -0.12041906111E+02  0.16156270780E+02  0.51100000000E-03 0.  1.
        -12    1    3    3    0    0  0.67056818095E+01 -0.65449364566E+01 -0.36808809385E+01  0.10067335608E+02  0.00000000000E+00 0.  1.
</event>
<event>
 7    1  0.2294216E-010  0.4778726E+02  0.7816164E-02  0.1312668E+00
        -11   -1    0    0    0    0  0.00000000000E+00  0.00000000000E+00  0.45593999997E+02  0.45594000000E+02  0.51100000000E-03 0.  1.
         11   -1    0    0    0    0 -0.00000000000E+00 -0.00000000000E+00 -0.45593999997E+02  0.45594000000E+02  0.51100000000E-03 0. -1.
    9900012    2    1    2    0    0  0.17813741532E+02  0.22178634932E+02 -0.32778081912E+02  0.47787263962E+02  0.19999967708E+02 0.  0.
        -12    1    1    2    0    0 -0.17813741532E+02 -0.22178634932E+02  0.32778081912E+02  0.43400736038E+02  0.00000000000E+00 0.  1.
         11    1    3    3    0    0  0.73958995069E+01  0.11793615065E+02 -0.79176055420E+01  0.16014904421E+02  0.51100000000E-03 0. -1.
        -11    1    3    3    0    0  0.24902304969E+01 -0.72555034336E+00  0.79439004029E+00  0.27126973708E+01  0.51100000000E-03 0.  1.
         12    1    3    3    0    0  0.79276115278E+01  0.11110570210E+02 -0.25654866411E+02  0.29059662171E+02  0.00000000000E+00 0. -1.
</event>
<event>
 7    1  0.2294216E-010  0.4778727E+02  0.7816164E-02  0.1312668E+00
        -11   -1    0    0    0    0  0.00000000000E+00  0.00000000000E+00  0.45593999997E+02  0.45594000000E+02  0.51100000000E-03 0. -1.
         11   -1    0    0    0    0 -0.00000000000E+00 -0.00000000000E+00 -0.45593999997E+02  0.45594000000E+02  0.51100000000E-03 0.  1.
    9900012    2    1    2    0    0 -0.21263895683E+02 -0.37663036776E+02 -0.36008221511E+01  0.47787268221E+02  0.19999987127E+02 0.  0.
        -12    1    1    2    0    0  0.21263895683E+02  0.37663036776E+02  0.36008221511E+01  0.43400731779E+02  0.00000000000E+00 0.  1.
         11    1    3    3    0    0 -0.19604065930E+01 -0.12618466868E+02  0.17478016123E+01  0.12888898745E+02  0.51100000000E-03 0. -1.
        -11    1    3    3    0    0 -0.29280475179E+01 -0.14755422469E+02 -0.36810807363E+01  0.15486972272E+02  0.51100000000E-03 0.  1.
         12    1    3    3    0    0 -0.16375441572E+02 -0.10289147439E+02 -0.16675430271E+01  0.19411397205E+02  0.00000000000E+00 0. -1.
</event>
<event>
 7    1  0.2294216E-010  0.4778727E+02  0.7816164E-02  0.1312668E+00
        -11   -1    0    0    0    0  0.00000000000E+00  0.00000000000E+00  0.45593999997E+02  0.45594000000E+02  0.51100000000E-03 0.  1.
         11   -1    0    0    0    0 -0.00000000000E+00 -0.00000000000E+00 -0.45593999997E+02  0.45594000000E+02  0.51100000000E-03 0. -1.
    9900012    2    1    2    0    0 -0.12745166503E+02  0.34677215612E+02 -0.22774429792E+02  0.47787271848E+02  0.20000003662E+02 0.  0.
        -12    1    1    2    0    0  0.12745166503E+02 -0.34677215612E+02  0.22774429792E+02  0.43400728152E+02  0.00000000000E+00 0.  1.
         11    1    3    3    0    0  0.51551439338E+00  0.62299609910E+01  0.28822823591E+00  0.62578945994E+01  0.51100000000E-03 0. -1.
        -11    1    3    3    0    0  0.23029380659E+01  0.28277887297E+01 -0.60434846361E+01  0.70585848187E+01  0.51100000000E-03 0.  1.
         12    1    3    3    0    0 -0.15563618962E+02  0.25619465892E+02 -0.17019173392E+02  0.34470792429E+02  0.00000000000E+00 0. -1.
</event>
<event>
 7    1  0.2294216E-010  0.4778728E+02  0.7816164E-02  0.1312668E+00
        -11   -1    0    0    0    0  0.00000000000E+00  0.00000000000E+00  0.45593999997E+02  0.45594000000E+02  0.51100000000E-03 0. -1.
         11   -1    0    0    0    0 -0.00000000000E+00 -0.00000000000E+00 -0.45593999997E+02  0.45594000000E+02  0.51100000000E-03 0.  1.
    9900012    2    1    2    0    0 -0.11484431685E+02  0.28142201382E+02  0.30979784373E+02  0.47787277546E+02  0.20000029644E+02 0.  0.
        -12    1    1    2    0    0  0.11484431685E+02 -0.28142201382E+02 -0.30979784373E+02  0.43400722454E+02  0.00000000000E+00 0.  1.
         11    1    3    3    0    0  0.95927692073E+00 -0.39697182007E+00  0.44177804574E+01  0.45381255236E+01  0.51100000000E-03 0. -1.
        -11    1    3    3    0    0 -0.86562679133E+01  0.45595933926E+01  0.89136539000E+01  0.13235334986E+02  0.51100000000E-03 0.  1.
         12    1    3    3    0    0 -0.37874406925E+01  0.23979579809E+02  0.17648350015E+02  0.30013817036E+02  0.00000000000E+00 0. -1.
</event>
<event>
 7    1  0.2294216E-010  0.4778727E+02  0.7816164E-02  0.1312668E+00
        -11   -1    0    0    0    0  0.00000000000E+00  0.00000000000E+00  0.45593999997E+02  0.45594000000E+02  0.51100000000E-03 0.  1.
         11   -1    0    0    0    0 -0.00000000000E+00 -0.00000000000E+00 -0.45593999997E+02  0.45594000000E+02  0.51100000000E-03 0. -1.
    9900012    2    1    2    0    0  0.34955714275E+02 -0.14171911334E+02 -0.21468071450E+02  0.47787272781E+02  0.20000007917E+02 0.  0.
        -12    1    1    2    0    0 -0.34955714275E+02  0.14171911334E+02  0.21468071450E+02  0.43400727219E+02  0.00000000000E+00 0.  1.
         11    1    3    3    0    0  0.14971777883E+01  0.77488058691E+00  0.18399747240E+01  0.24954936385E+01  0.51100000000E-03 0. -1.
        -11    1    3    3    0    0  0.69807159983E+01 -0.61738990734E+00 -0.10386046843E+02  0.12529227248E+02  0.51100000000E-03 0.  1.
         12    1    3    3    0    0  0.26477820489E+02 -0.14329402014E+02 -0.12921999331E+02  0.32762551894E+02  0.00000000000E+00 0. -1.
</event>
<event>
 7    1  0.2294216E-010  0.4778727E+02  0.7816164E-02  0.1312668E+00
        -11   -1    0    0    0    0  0.00000000000E+00  0.00000000000E+00  0.45593999997E+02  0.45594000000E+02  0.51100000000E-03 0.  1.
         11   -1    0    0    0    0 -0.00000000000E+00 -0.00000000000E+00 -0.45593999997E+02  0.45594000000E+02  0.51100000000E-03 0. -1.
    9900012    2    1    2    0    0 -0.24563878432E+02  0.35751619001E+02 -0.14355322623E+01  0.47787272613E+02  0.20000007153E+02 0.  0.
        -12    1    1    2    0    0  0.24563878432E+02 -0.35751619001E+02  0.14355322623E+01  0.43400727387E+02  0.00000000000E+00 0.  1.
         11    1    3    3    0    0 -0.17530707908E+02  0.23125929865E+02 -0.41136587380E+01  0.29309666329E+02  0.51100000000E-03 0. -1.
        -11    1    3    3    0    0 -0.14208164263E+01  0.94374126669E+01 -0.28701733702E+01  0.99660108669E+01  0.51100000000E-03 0.  1.
        -12    1    3    3    0    0 -0.56123540973E+01  0.31882764697E+01  0.55482998460E+01  0.85115954169E+01  0.00000000000E+00 0.  1.
</event>
<event>
 7    1  0.2294216E-010  0.4778727E+02  0.7816164E-02  0.1312668E+00
        -11   -1    0    0    0    0  0.00000000000E+00  0.00000000000E+00  0.45593999997E+02  0.45594000000E+02  0.51100000000E-03 0. -1.
         11   -1    0    0    0    0 -0.00000000000E+00 -0.00000000000E+00 -0.45593999997E+02  0.45594000000E+02  0.51100000000E-03 0.  1.
    9900012    2    1    2    0    0  0.37610365379E+02  0.24826519681E+01  0.21515589078E+02  0.47787265926E+02  0.19999976664E+02 0.  0.
        -12    1    1    2    0    0 -0.37610365379E+02 -0.24826519681E+01 -0.21515589078E+02  0.43400734074E+02  0.00000000000E+00 0.  1.
         11    1    3    3    0    0  0.55717345193E+01  0.39149771828E+01  0.16347895451E+01  0.70031285161E+01  0.51100000000E-03 0. -1.
        -11    1    3    3    0    0  0.23866160598E+02  0.51193929388E+01  0.17523008781E+02  0.30047589633E+02  0.51100000000E-03 0.  1.
        -12    1    3    3    0    0  0.81724702616E+01 -0.65517181535E+01  0.23577907524E+01  0.10736547777E+02  0.00000000000E+00 0.  1.
</event>
<event>
 7    1  0.2294216E-010  0.4778727E+02  0.7816164E-02  0.1312668E+00
        -11   -1    0    0    0    0  0.00000000000E+00  0.00000000000E+00  0.45593999997E+02  0.45594000000E+02  0.51100000000E-03 0. -1.
         11   -1    0    0    0    0 -0.00000000000E+00 -0.00000000000E+00 -0.45593999997E+02  0.45594000000E+02  0.51100000000E-03 0.  1.
    9900012    2    1    2    0    0  0.96808851557E+01  0.42302075298E+02  0.66194065056E+00  0.47787271004E+02  0.19999999817E+02 0.  0.
        -12    1    1    2    0    0 -0.96808851557E+01 -0.42302075298E+02 -0.66194065056E+00  0.43400728996E+02  0.00000000000E+00 0.  1.
         11    1    3    3    0    0  0.34619128937E+01  0.20495509355E+01  0.20384699189E+01  0.45100842334E+01  0.51100000000E-03 0.  1.
        -11    1    3    3    0    0  0.89577566308E+01  0.21028033845E+02 -0.53076569351E+01  0.23464672034E+02  0.51100000000E-03 0. -1.
        -12    1    3    3    0    0 -0.27387843688E+01  0.19224490517E+02  0.39311276668E+01  0.19812514737E+02  0.00000000000E+00 0.  1.
</event>
<event>
 7    1  0.2294216E-010  0.4778727E+02  0.7816164E-02  0.1312668E+00
        -11   -1    0    0    0    0  0.00000000000E+00  0.00000000000E+00  0.45593999997E+02  0.45594000000E+02  0.51100000000E-03 0.  1.
         11   -1    0    0    0    0 -0.00000000000E+00 -0.00000000000E+00 -0.45593999997E+02  0.45594000000E+02  0.51100000000E-03 0. -1.
    9900012    2    1    2    0    0 -0.22218896822E+00 -0.39194759272E+02 -0.18637186926E+02  0.47787271218E+02  0.20000000791E+02 0.  0.
        -12    1    1    2    0    0  0.22218896822E+00  0.39194759272E+02  0.18637186926E+02  0.43400728782E+02  0.00000000000E+00 0.  1.
         11    1    3    3    0    0  0.51714712477E+00  0.10059693615E+01 -0.25231295733E+01  0.27650675597E+01  0.51100000000E-03 0. -1.
        -11    1    3    3    0    0 -0.20868535237E+01 -0.70308721542E+00  0.31161185998E+00  0.22240484424E+01  0.51100000000E-03 0.  1.
         12    1    3    3    0    0  0.13475174307E+01 -0.39497641418E+02 -0.16425669213E+02  0.42798155216E+02  0.00000000000E+00 0. -1.
</event>
<event>
 7    1  0.2294216E-010  0.4778727E+02  0.7816164E-02  0.1312668E+00
        -11   -1    0    0    0    0  0.00000000000E+00  0.00000000000E+00  0.45593999997E+02  0.45594000000E+02  0.51100000000E-03 0.  1.
         11   -1    0    0    0    0 -0.00000000000E+00 -0.00000000000E+00 -0.45593999997E+02  0.45594000000E+02  0.51100000000E-03 0. -1.
    9900012    2    1    2    0    0 -0.11228514901E+02  0.41846344877E+02  0.25351552127E+01  0.47787272605E+02  0.20000007117E+02 0.  0.
        -12    1    1    2    0    0  0.11228514901E+02 -0.41846344877E+02 -0.25351552127E+01  0.43400727395E+02  0.00000000000E+00 0.  1.
         11    1    3    3    0    0 -0.10485409361E+02  0.17082130133E+02  0.33814659994E+01  0.20326762948E+02  0.51100000000E-03 0. -1.
        -11    1    3    3    0    0 -0.51130695479E+01  0.16765384487E+02 -0.36911106955E+01  0.17912171717E+02  0.51100000000E-03 0.  1.
        -12    1    3    3    0    0  0.43699640084E+01  0.79988302564E+01  0.28447999088E+01  0.95483379405E+01  0.00000000000E+00 0.  1.
</event>
<event>
 7    1  0.2294216E-010  0.4778727E+02  0.7816164E-02  0.1312668E+00
        -11   -1    0    0    0    0  0.00000000000E+00  0.00000000000E+00  0.45593999997E+02  0.45594000000E+02  0.51100000000E-03 0.  1.
         11   -1    0    0    0    0 -0.00000000000E+00 -0.00000000000E+00 -0.45593999997E+02  0.45594000000E+02  0.51100000000E-03 0. -1.
    9900012    2    1    2    0    0  0.18836900023E+02 -0.37817032425E+02  0.99331097691E+01  0.47787269435E+02  0.19999992662E+02 0.  0.
        -12    1    1    2    0    0 -0.18836900023E+02  0.37817032425E+02 -0.99331097691E+01  0.43400730565E+02  0.00000000000E+00 0.  1.
         11    1    3    3    0    0  0.56789593655E+01 -0.52097327061E+01  0.47615207735E+01  0.90589168603E+01  0.51100000000E-03 0. -1.
        -11    1    3    3    0    0  0.85781026698E+01 -0.51084527712E+01 -0.14134730547E+01  0.10083553018E+02  0.51100000000E-03 0.  1.
         12    1    3    3    0    0  0.45798379879E+01 -0.27498846947E+02  0.65850620503E+01  0.28644799557E+02  0.00000000000E+00 0. -1.
</event>
<event>
 7    1  0.2294216E-010  0.4778727E+02  0.7816164E-02  0.1312668E+00
        -11   -1    0    0    0    0  0.00000000000E+00  0.00000000000E+00  0.45593999997E+02  0.45594000000E+02  0.51100000000E-03 0.  1.
         11   -1    0    0    0    0 -0.00000000000E+00 -0.00000000000E+00 -0.45593999997E+02  0.45594000000E+02  0.51100000000E-03 0. -1.
    9900012    2    1    2    0    0  0.38380216153E+02 -0.18274005746E+02  0.87545985711E+01  0.47787271042E+02  0.19999999989E+02 0.  0.
        -12    1    1    2    0    0 -0.38380216153E+02  0.18274005746E+02 -0.87545985711E+01  0.43400728958E+02  0.00000000000E+00 0.  1.
         11    1    3    3    0    0  0.16548685163E+02 -0.13075970350E+02  0.70556672992E+01  0.22240108419E+02  0.51100000000E-03 0.  1.
        -11    1    3    3    0    0  0.18672062123E+02 -0.51385187216E+01  0.59414283218E+01  0.20257118485E+02  0.51100000000E-03 0. -1.
         12    1    3    3    0    0  0.31594688671E+01 -0.59516674611E-01 -0.42424970499E+01  0.52900441373E+01  0.00000000000E+00 0. -1.
</event>
<event>
 7    1  0.2294216E-010  0.4778727E+02  0.7816164E-02  0.1312668E+00
        -11   -1    0    0    0    0  0.00000000000E+00  0.00000000000E+00  0.45593999997E+02  0.45594000000E+02  0.51100000000E-03 0.  1.
         11   -1    0    0    0    0 -0.00000000000E+00 -0.00000000000E+00 -0.45593999997E+02  0.45594000000E+02  0.51100000000E-03 0. -1.
    9900012    2    1    2    0    0 -0.21505375099E+02 -0.37130941622E+02  0.65142351530E+01  0.47787271394E+02  0.20000001593E+02 0.  0.
        -12    1    1    2    0    0  0.21505375099E+02  0.37130941622E+02 -0.65142351530E+01  0.43400728606E+02  0.00000000000E+00 0.  1.
         11    1    3    3    0    0 -0.23267820550E+02 -0.23260383366E+02  0.32951531173E+01  0.33065010839E+02  0.51100000000E-03 0. -1.
        -11    1    3    3    0    0  0.88341556679E+00 -0.92924256065E+00 -0.22484305116E+00  0.13017178876E+01  0.51100000000E-03 0.  1.
         12    1    3    3    0    0  0.87902988377E+00 -0.12941315696E+02  0.34439250869E+01  0.13420542667E+02  0.00000000000E+00 0. -1.
</event>
<event>
 7    1  0.2294216E-010  0.4778729E+02  0.7816164E-02  0.1312668E+00
        -11   -1    0    0    0    0  0.00000000000E+00  0.00000000000E+00  0.45593999997E+02  0.45594000000E+02  0.51100000000E-03 0. -1.
         11   -1    0    0    0    0 -0.00000000000E+00 -0.00000000000E+00 -0.45593999997E+02  0.45594000000E+02  0.51100000000E-03 0.  1.
    9900012    2    1    2    0    0  0.33260613072E+02 -0.17905413710E+02  0.21371705349E+02  0.47787285587E+02  0.20000066303E+02 0.  0.
        -12    1    1    2    0    0 -0.33260613072E+02  0.17905413710E+02 -0.21371705349E+02  0.43400714413E+02  0.00000000000E+00 0.  1.
         11    1    3    3    0    0  0.28513599017E+01  0.12325326550E+01  0.54511626250E+01  0.62741186042E+01  0.51100000000E-03 0. -1.
        -11    1    3    3    0    0  0.17658600870E+01  0.17826764115E+01  0.26300678007E+01  0.36350314899E+01  0.51100000000E-03 0.  1.
         12    1    3    3    0    0  0.28643393083E+02 -0.20920622777E+02  0.13290474923E+02  0.37878135492E+02  0.00000000000E+00 0. -1.
</event>
<event>
 7    1  0.2294216E-010  0.4778727E+02  0.7816164E-02  0.1312668E+00
        -11   -1    0    0    0    0  0.00000000000E+00  0.00000000000E+00  0.45593999997E+02  0.45594000000E+02  0.51100000000E-03 0.  1.
         11   -1    0    0    0    0 -0.00000000000E+00 -0.00000000000E+00 -0.45593999997E+02  0.45594000000E+02  0.51100000000E-03 0. -1.
    9900012    2    1    2    0    0 -0.36930889915E+02  0.22783833788E+02  0.79343451743E+00  0.47787271315E+02  0.20000001235E+02 0.  0.
        -12    1    1    2    0    0  0.36930889915E+02 -0.22783833788E+02 -0.79343451743E+00  0.43400728685E+02  0.00000000000E+00 0.  1.
         11    1    3    3    0    0 -0.32042495179E+01  0.74017799022E+00  0.30449407188E+01  0.44818235878E+01  0.51100000000E-03 0. -1.
        -11    1    3    3    0    0 -0.11860357686E+02  0.74928639807E+01  0.67132966240E+01  0.15552473980E+02  0.51100000000E-03 0.  1.
         12    1    3    3    0    0 -0.21866282711E+02  0.14550791817E+02 -0.89648028254E+01  0.27752973747E+02  0.00000000000E+00 0. -1.
</event>
<event>
 7    1  0.2294216E-010  0.4778726E+02  0.7816164E-02  0.1312668E+00
        -11   -1    0    0    0    0  0.00000000000E+00  0.00000000000E+00  0.45593999997E+02  0.45594000000E+02  0.51100000000E-03 0.  1.
         11   -1    0    0    0    0 -0.00000000000E+00 -0.00000000000E+00 -0.45593999997E+02  0.45594000000E+02  0.51100000000E-03 0. -1.
    9900012    2    1    2    0    0  0.42011339331E+02 -0.26499309899E+01 -0.10566440931E+02  0.47787257604E+02  0.19999938718E+02 0.  0.
        -12    1    1    2    0    0 -0.42011339331E+02  0.26499309899E+01  0.10566440931E+02  0.43400742396E+02  0.00000000000E+00 0.  1.
         11    1    3    3    0    0  0.13052805422E+02 -0.95328430809E+01 -0.81821477468E+00  0.16183951998E+02  0.51100000000E-03 0.  1.
        -11    1    3    3    0    0  0.22306298317E+01  0.11049965273E+01  0.21714043691E+00  0.24987751003E+01  0.51100000000E-03 0. -1.
         12    1    3    3    0    0  0.26727904077E+02  0.57779155636E+01 -0.99653665931E+01  0.29104530506E+02  0.00000000000E+00 0. -1.
</event>
<event>
 7    1  0.2294216E-010  0.4778727E+02  0.7816164E-02  0.1312668E+00
        -11   -1    0    0    0    0  0.00000000000E+00  0.00000000000E+00  0.45593999997E+02  0.45594000000E+02  0.51100000000E-03 0. -1.
         11   -1    0    0    0    0 -0.00000000000E+00 -0.00000000000E+00 -0.45593999997E+02  0.45594000000E+02  0.51100000000E-03 0.  1.
    9900012    2    1    2    0    0 -0.32604551721E+02 -0.13785016123E+02  0.25110551389E+02  0.47787271279E+02  0.20000001069E+02 0.  0.
        -12    1    1    2    0    0  0.32604551721E+02  0.13785016123E+02 -0.25110551389E+02  0.43400728721E+02  0.00000000000E+00 0.  1.
         11    1    3    3    0    0 -0.15920356808E+02 -0.27526316834E+01  0.46328592226E+01  0.16807680593E+02  0.51100000000E-03 0.  1.
        -11    1    3    3    0    0 -0.17988413872E+02 -0.86252230566E+01  0.15367004326E+02  0.25181785652E+02  0.51100000000E-03 0. -1.
         12    1    3    3    0    0  0.13042189583E+01 -0.24071613828E+01  0.51106878403E+01  0.57978050342E+01  0.00000000000E+00 0. -1.
</event>
<event>
 7    1  0.2294216E-010  0.4778727E+02  0.7816164E-02  0.1312668E+00
        -11   -1    0    0    0    0  0.00000000000E+00  0.00000000000E+00  0.45593999997E+02  0.45594000000E+02  0.51100000000E-03 0. -1.
         11   -1    0    0    0    0 -0.00000000000E+00 -0.00000000000E+00 -0.45593999997E+02  0.45594000000E+02  0.51100000000E-03 0.  1.
    9900012    2    1    2    0    0  0.35568077620E+01 -0.40670418817E+02  0.14727167298E+02  0.47787270688E+02  0.19999998375E+02 0.  0.
        -12    1    1    2    0    0 -0.35568077620E+01  0.40670418817E+02 -0.14727167298E+02  0.43400729312E+02  0.00000000000E+00 0.  1.
         11    1    3    3    0    0  0.17979340666E+01 -0.11360860603E+02  0.70980026886E+01  0.13516040950E+02  0.51100000000E-03 0. -1.
        -11    1    3    3    0    0 -0.67897553348E+01 -0.17479856564E+02  0.32380163208E+01  0.19029737596E+02  0.51100000000E-03 0.  1.
         12    1    3    3    0    0  0.85486290302E+01 -0.11829701649E+02  0.43911482890E+01  0.15241492142E+02  0.00000000000E+00 0. -1.
</event>
<event>
 7    1  0.2294216E-010  0.4778721E+02  0.7816164E-02  0.1312668E+00
        -11   -1    0    0    0    0  0.00000000000E+00  0.00000000000E+00  0.45593999997E+02  0.45594000000E+02  0.51100000000E-03 0.  1.
         11   -1    0    0    0    0 -0.00000000000E+00 -0.00000000000E+00 -0.45593999997E+02  0.45594000000E+02  0.51100000000E-03 0. -1.
    9900012    2    1    2    0    0 -0.13003475560E+02  0.36305998010E+02 -0.19910108975E+02  0.47787213054E+02  0.19999735596E+02 0.  0.
        -12    1    1    2    0    0  0.13003475560E+02 -0.36305998010E+02  0.19910108975E+02  0.43400786946E+02  0.00000000000E+00 0.  1.
         11    1    3    3    0    0 -0.13294672311E+01  0.75996588776E+01 -0.82553395560E+01  0.11299244648E+02  0.51100000000E-03 0. -1.
        -11    1    3    3    0    0 -0.95978452359E+01  0.51701834223E+01 -0.45716025054E+01  0.11821547256E+02  0.51100000000E-03 0.  1.
        -12    1    3    3    0    0 -0.20761630926E+01  0.23536155710E+02 -0.70831669136E+01  0.24666421150E+02  0.00000000000E+00 0.  1.
</event>
<event>
 7    1  0.2294216E-010  0.4778727E+02  0.7816164E-02  0.1312668E+00
        -11   -1    0    0    0    0  0.00000000000E+00  0.00000000000E+00  0.45593999997E+02  0.45594000000E+02  0.51100000000E-03 0.  1.
         11   -1    0    0    0    0 -0.00000000000E+00 -0.00000000000E+00 -0.45593999997E+02  0.45594000000E+02  0.51100000000E-03 0. -1.
    9900012    2    1    2    0    0 -0.27567917237E+02 -0.19623164911E+02 -0.27176544159E+02  0.47787271730E+02  0.20000003127E+02 0.  0.
        -12    1    1    2    0    0  0.27567917237E+02  0.19623164911E+02  0.27176544159E+02  0.43400728270E+02  0.00000000000E+00 0.  1.
         11    1    3    3    0    0 -0.83346410025E+00 -0.61851003206E+01 -0.23398956168E+01  0.66652261883E+01  0.51100000000E-03 0. -1.
        -11    1    3    3    0    0 -0.14864584303E+02 -0.64649950488E+01 -0.49750051391E+01  0.16955904691E+02  0.51100000000E-03 0.  1.
         12    1    3    3    0    0 -0.11869868833E+02 -0.69730695416E+01 -0.19861643403E+02  0.24166140851E+02  0.00000000000E+00 0. -1.
</event>
<event>
 7    1  0.2294216E-010  0.4778728E+02  0.7816164E-02  0.1312668E+00
        -11   -1    0    0    0    0  0.00000000000E+00  0.00000000000E+00  0.45593999997E+02  0.45594000000E+02  0.51100000000E-03 0.  1.
         11   -1    0    0    0    0 -0.00000000000E+00 -0.00000000000E+00 -0.45593999997E+02  0.45594000000E+02  0.51100000000E-03 0. -1.
    9900012    2    1    2    0    0 -0.39369070293E+02  0.71369416615E+01 -0.16815548560E+02  0.47787282202E+02  0.20000050873E+02 0.  0.
        -12    1    1    2    0    0  0.39369070293E+02 -0.71369416615E+01  0.16815548560E+02  0.43400717798E+02  0.00000000000E+00 0.  1.
         11    1    3    3    0    0 -0.78105419189E+01 -0.14048328828E+01  0.18523625932E+01  0.81491943119E+01  0.51100000000E-03 0. -1.
        -11    1    3    3    0    0 -0.88026826828E+00  0.29599026662E+01  0.36009550928E+00  0.31089491882E+01  0.51100000000E-03 0.  1.
        -12    1    3    3    0    0 -0.30678260105E+02  0.55818718781E+01 -0.19028006663E+02  0.36529138702E+02  0.00000000000E+00 0.  1.
</event>
<event>
 7    1  0.2294216E-010  0.4778727E+02  0.7816164E-02  0.1312668E+00
        -11   -1    0    0    0    0  0.00000000000E+00  0.00000000000E+00  0.45593999997E+02  0.45594000000E+02  0.51100000000E-03 0.  1.
         11   -1    0    0    0    0 -0.00000000000E+00 -0.00000000000E+00 -0.45593999997E+02  0.45594000000E+02  0.51100000000E-03 0. -1.
    9900012    2    1    2    0    0  0.37988981626E+02 -0.49941136950E+01 -0.20384294637E+02  0.47787270001E+02  0.19999995244E+02 0.  0.
        -12    1    1    2    0    0 -0.37988981626E+02  0.49941136950E+01  0.20384294637E+02  0.43400729999E+02  0.00000000000E+00 0.  1.
         11    1    3    3    0    0  0.22624338803E+02  0.31111849960E+01 -0.14533818999E+02  0.27069763082E+02  0.51100000000E-03 0. -1.
        -11    1    3    3    0    0  0.13622974762E+02 -0.30489230094E+01 -0.19438822949E+01  0.14094681675E+02  0.51100000000E-03 0.  1.
        -12    1    3    3    0    0  0.17416680608E+01 -0.50563756817E+01 -0.39065933432E+01  0.66228252444E+01  0.00000000000E+00 0.  1.
</event>
<event>
 7    1  0.2294216E-010  0.4778727E+02  0.7816164E-02  0.1312668E+00
        -11   -1    0    0    0    0  0.00000000000E+00  0.00000000000E+00  0.45593999997E+02  0.45594000000E+02  0.51100000000E-03 0. -1.
         11   -1    0    0    0    0 -0.00000000000E+00 -0.00000000000E+00 -0.45593999997E+02  0.45594000000E+02  0.51100000000E-03 0.  1.
    9900012    2    1    2    0    0  0.44967982373E+00  0.43360607131E+02  0.18107242307E+01  0.47787272069E+02  0.20000004669E+02 0.  0.
        -12    1    1    2    0    0 -0.44967982373E+00 -0.43360607131E+02 -0.18107242307E+01  0.43400727931E+02  0.00000000000E+00 0.  1.
         11    1    3    3    0    0 -0.36921654487E+01  0.16016041876E+02  0.21929473280E+01  0.16581758088E+02  0.51100000000E-03 0. -1.
        -11    1    3    3    0    0  0.20068744676E+01  0.24195961021E+02 -0.54358198684E+01  0.24880116815E+02  0.51100000000E-03 0.  1.
        -12    1    3    3    0    0  0.21349708049E+01  0.31486042350E+01  0.50535967710E+01  0.63253971646E+01  0.00000000000E+00 0.  1.
</event>
<event>
 7    1  0.2294216E-010  0.4778728E+02  0.7816164E-02  0.1312668E+00
        -11   -1    0    0    0    0  0.00000000000E+00  0.00000000000E+00  0.45593999997E+02  0.45594000000E+02  0.51100000000E-03 0.  1.
         11   -1    0    0    0    0 -0.00000000000E+00 -0.00000000000E+00 -0.45593999997E+02  0.45594000000E+02  0.51100000000E-03 0. -1.
    9900012    2    1    2    0    0 -0.19094847288E+02 -0.24162640429E+02 -0.30580652924E+02  0.47787277441E+02  0.20000029162E+02 0.  0.
        -12    1    1    2    0    0  0.19094847288E+02  0.24162640429E+02  0.30580652924E+02  0.43400722559E+02  0.00000000000E+00 0.  1.
         11    1    3    3    0    0 -0.12996061248E+02 -0.13708923863E+02 -0.14360687686E+02  0.23728918065E+02  0.51100000000E-03 0. -1.
        -11    1    3    3    0    0 -0.29051624876E+01 -0.76536852994E+01 -0.98869653202E+00  0.82459922893E+01  0.51100000000E-03 0.  1.
        -12    1    3    3    0    0 -0.31936235520E+01 -0.28000312660E+01 -0.15231268706E+02  0.15812367086E+02  0.00000000000E+00 0.  1.
</event>
<event>
 7    1  0.2294216E-010  0.4778727E+02  0.7816164E-02  0.1312668E+00
        -11   -1    0    0    0    0  0.00000000000E+00  0.00000000000E+00  0.45593999997E+02  0.45594000000E+02  0.51100000000E-03 0.  1.
         11   -1    0    0    0    0 -0.00000000000E+00 -0.00000000000E+00 -0.45593999997E+02  0.45594000000E+02  0.51100000000E-03 0. -1.
    9900012    2    1    2    0    0  0.17975149540E+02  0.26083286114E+02 -0.29667823255E+02  0.47787267838E+02  0.19999985381E+02 0.  0.
        -12    1    1    2    0    0 -0.17975149540E+02 -0.26083286114E+02  0.29667823255E+02  0.43400732162E+02  0.00000000000E+00 0.  1.
         11    1    3    3    0    0  0.23715796644E+01  0.11328750457E+02 -0.11752962608E+02  0.16495366239E+02  0.51100000000E-03 0. -1.
        -11    1    3    3    0    0  0.59550460876E+01  0.12708139467E+02 -0.15931352009E+02  0.21231282574E+02  0.51100000000E-03 0.  1.
        -12    1    3    3    0    0  0.96485237884E+01  0.20463961904E+01 -0.19835086372E+01  0.10060619026E+02  0.00000000000E+00 0.  1.
</event>
<event>
 7    1  0.2294216E-010  0.4778727E+02  0.7816164E-02  0.1312668E+00
        -11   -1    0    0    0    0  0.00000000000E+00  0.00000000000E+00  0.45593999997E+02  0.45594000000E+02  0.51100000000E-03 0.  1.
         11   -1    0    0    0    0 -0.00000000000E+00 -0.00000000000E+00 -0.45593999997E+02  0.45594000000E+02  0.51100000000E-03 0. -1.
    9900012    2    1    2    0    0  0.38315412740E+02 -0.19572847168E+02  0.56970191895E+01  0.47787271581E+02  0.20000002446E+02 0.  0.
        -12    1    1    2    0    0 -0.38315412740E+02  0.19572847168E+02 -0.56970191895E+01  0.43400728419E+02  0.00000000000E+00 0.  1.
         11    1    3    3    0    0  0.18982489651E+02 -0.35593737109E+01 -0.19198026487E+01  0.19408495486E+02  0.51100000000E-03 0. -1.
        -11    1    3    3    0    0 -0.11929172887E+01  0.15736685109E+00  0.43192045133E+00  0.12784254068E+01  0.51100000000E-03 0.  1.
        -12    1    3    3    0    0  0.20525840377E+02 -0.16170840308E+02  0.71849013868E+01  0.27100350688E+02  0.00000000000E+00 0.  1.
</event>
<event>
 7    1  0.2294216E-010  0.4778727E+02  0.7816164E-02  0.1312668E+00
        -11   -1    0    0    0    0  0.00000000000E+00  0.00000000000E+00  0.45593999997E+02  0.45594000000E+02  0.51100000000E-03 0.  1.
         11   -1    0    0    0    0 -0.00000000000E+00 -0.00000000000E+00 -0.45593999997E+02  0.45594000000E+02  0.51100000000E-03 0. -1.
    9900012    2    1    2    0    0  0.29020117587E+02  0.32250831191E+02  0.11575136369E+01  0.47787272182E+02  0.20000005188E+02 0.  0.
        -12    1    1    2    0    0 -0.29020117587E+02 -0.32250831191E+02 -0.11575136369E+01  0.43400727818E+02  0.00000000000E+00 0.  1.
         11    1    3    3    0    0  0.21963515495E+02  0.23407505694E+02 -0.12147373004E+01  0.32121377969E+02  0.51100000000E-03 0. -1.
        -11    1    3    3    0    0  0.97450445856E+01  0.80899860955E+01  0.15797099749E+01  0.12763590908E+02  0.51100000000E-03 0.  1.
         12    1    3    3    0    0 -0.26884424937E+01  0.75333940221E+00  0.79254096236E+00  0.29023033049E+01  0.00000000000E+00 0. -1.
</event>
<event>
 7    1  0.2294216E-010  0.4778727E+02  0.7816164E-02  0.1312668E+00
        -11   -1    0    0    0    0  0.00000000000E+00  0.00000000000E+00  0.45593999997E+02  0.45594000000E+02  0.51100000000E-03 0.  1.
         11   -1    0    0    0    0 -0.00000000000E+00 -0.00000000000E+00 -0.45593999997E+02  0.45594000000E+02  0.51100000000E-03 0. -1.
    9900012    2    1    2    0    0 -0.13242092132E+01 -0.35743966546E+02 -0.24581263305E+02  0.47787272124E+02  0.20000004923E+02 0.  0.
        -12    1    1    2    0    0  0.13242092132E+01  0.35743966546E+02  0.24581263305E+02  0.43400727876E+02  0.00000000000E+00 0.  1.
         11    1    3    3    0    0  0.30164996428E+01 -0.32607256624E+02 -0.17169895047E+02  0.36974825906E+02  0.51100000000E-03 0. -1.
        -11    1    3    3    0    0 -0.28786349731E+00 -0.24571050580E+01 -0.59620315108E+01  0.64549245276E+01  0.51100000000E-03 0.  1.
         12    1    3    3    0    0 -0.40528453587E+01 -0.67960486402E+00 -0.14493367478E+01  0.43575216902E+01  0.00000000000E+00 0. -1.
</event>
<event>
 7    1  0.2294216E-010  0.4778728E+02  0.7816164E-02  0.1312668E+00
        -11   -1    0    0    0    0  0.00000000000E+00  0.00000000000E+00  0.45593999997E+02  0.45594000000E+02  0.51100000000E-03 0. -1.
         11   -1    0    0    0    0 -0.00000000000E+00 -0.00000000000E+00 -0.45593999997E+02  0.45594000000E+02  0.51100000000E-03 0.  1.
    9900012    2    1    2    0    0  0.20743542909E+02 -0.13595853014E+02  0.35615739442E+02  0.47787277798E+02  0.20000030794E+02 0.  0.
        -12    1    1    2    0    0 -0.20743542909E+02  0.13595853014E+02 -0.35615739442E+02  0.43400722202E+02  0.00000000000E+00 0.  1.
         11    1    3    3    0    0  0.49190142150E+01 -0.76003430797E+01  0.68553131696E+01  0.11355933898E+02  0.51100000000E-03 0.  1.
        -11    1    3    3    0    0  0.28012439759E+01 -0.45023428441E+01  0.55877125974E+00  0.53320056714E+01  0.51100000000E-03 0. -1.
         12    1    3    3    0    0  0.13023284718E+02 -0.14931670900E+01  0.28201655013E+02  0.31099338229E+02  0.00000000000E+00 0. -1.
</event>
<event>
 7    1  0.2294216E-010  0.4778724E+02  0.7816164E-02  0.1312668E+00
        -11   -1    0    0    0    0  0.00000000000E+00  0.00000000000E+00  0.45593999997E+02  0.45594000000E+02  0.51100000000E-03 0. -1.
         11   -1    0    0    0    0 -0.00000000000E+00 -0.00000000000E+00 -0.45593999997E+02  0.45594000000E+02  0.51100000000E-03 0.  1.
    9900012    2    1    2    0    0  0.38408477100E+02 -0.20207136056E+02 -0.29424127109E+00  0.47787239193E+02  0.19999854775E+02 0.  0.
        -12    1    1    2    0    0 -0.38408477100E+02  0.20207136056E+02  0.29424127109E+00  0.43400760807E+02  0.00000000000E+00 0.  1.
         11    1    3    3    0    0  0.30003896442E+02 -0.22851738530E+02  0.24078568012E+01  0.37791977061E+02  0.51100000000E-03 0. -1.
        -11    1    3    3    0    0  0.44472402881E+00  0.18621248597E+00  0.81938981875E+00  0.95071262110E+00  0.51100000000E-03 0.  1.
        -12    1    3    3    0    0  0.79598566287E+01  0.24583899876E+01 -0.35214878910E+01  0.90445495104E+01  0.00000000000E+00 0.  1.
</event>
<event>
 7    1  0.2294216E-010  0.4778727E+02  0.7816164E-02  0.1312668E+00
        -11   -1    0    0    0    0  0.00000000000E+00  0.00000000000E+00  0.45593999997E+02  0.45594000000E+02  0.51100000000E-03 0.  1.
         11   -1    0    0    0    0 -0.00000000000E+00 -0.00000000000E+00 -0.45593999997E+02  0.45594000000E+02  0.51100000000E-03 0. -1.
    9900012    2    1    2    0    0  0.36229495447E+02  0.15752555380E+02 -0.17969530740E+02  0.47787269864E+02  0.19999994618E+02 0.  0.
        -12    1    1    2    0    0 -0.36229495447E+02 -0.15752555380E+02  0.17969530740E+02  0.43400730136E+02  0.00000000000E+00 0.  1.
         11    1    3    3    0    0  0.10410199827E+02  0.20329447437E+01  0.30085664261E+00  0.10611109261E+02  0.51100000000E-03 0. -1.
        -11    1    3    3    0    0  0.11862989725E+02  0.18688173156E+01 -0.10731371579E+01  0.12057140084E+02  0.51100000000E-03 0.  1.
         12    1    3    3    0    0  0.13956305895E+02  0.11850793321E+02 -0.17197250225E+02  0.25119020519E+02  0.00000000000E+00 0. -1.
</event>
<event>
 7    1  0.2294216E-010  0.4778727E+02  0.7816164E-02  0.1312668E+00
        -11   -1    0    0    0    0  0.00000000000E+00  0.00000000000E+00  0.45593999997E+02  0.45594000000E+02  0.51100000000E-03 0.  1.
         11   -1    0    0    0    0 -0.00000000000E+00 -0.00000000000E+00 -0.45593999997E+02  0.45594000000E+02  0.51100000000E-03 0. -1.
    9900012    2    1    2    0    0  0.42384568101E+02  0.86704958253E+01  0.34632134492E+01  0.47787274679E+02  0.20000016572E+02 0.  0.
        -12    1    1    2    0    0 -0.42384568101E+02 -0.86704958253E+01 -0.34632134492E+01  0.43400725321E+02  0.00000000000E+00 0.  1.
         11    1    3    3    0    0  0.82123602036E+01 -0.21225773486E+01 -0.22063419536E+01  0.87644817184E+01  0.51100000000E-03 0. -1.
        -11    1    3    3    0    0  0.83125318337E+00  0.33657762586E+01  0.32937136886E+01  0.47820478669E+01  0.51100000000E-03 0.  1.
         12    1    3    3    0    0  0.33340954714E+02  0.74272969153E+01  0.23758417143E+01  0.34240745094E+02  0.00000000000E+00 0. -1.
</event>
<event>
 7    1  0.2294216E-010  0.4778726E+02  0.7816164E-02  0.1312668E+00
        -11   -1    0    0    0    0  0.00000000000E+00  0.00000000000E+00  0.45593999997E+02  0.45594000000E+02  0.51100000000E-03 0. -1.
         11   -1    0    0    0    0 -0.00000000000E+00 -0.00000000000E+00 -0.45593999997E+02  0.45594000000E+02  0.51100000000E-03 0.  1.
    9900012    2    1    2    0    0  0.38425092380E+02  0.18852720736E+02  0.71910443234E+01  0.47787263578E+02  0.19999965956E+02 0.  0.
        -12    1    1    2    0    0 -0.38425092380E+02 -0.18852720736E+02 -0.71910443234E+01  0.43400736422E+02  0.00000000000E+00 0.  1.
         11    1    3    3    0    0  0.48378686169E+01  0.15866570045E+00 -0.10912389907E+01  0.49619502571E+01  0.51100000000E-03 0. -1.
        -11    1    3    3    0    0  0.11784702309E+02 -0.88473588035E+00 -0.15443095249E+01  0.11918341254E+02  0.51100000000E-03 0.  1.
         12    1    3    3    0    0  0.21802521454E+02  0.19578790915E+02  0.98265928390E+01  0.30906972066E+02  0.00000000000E+00 0. -1.
</event>
<event>
 7    1  0.2294216E-010  0.4778727E+02  0.7816164E-02  0.1312668E+00
        -11   -1    0    0    0    0  0.00000000000E+00  0.00000000000E+00  0.45593999997E+02  0.45594000000E+02  0.51100000000E-03 0. -1.
         11   -1    0    0    0    0 -0.00000000000E+00 -0.00000000000E+00 -0.45593999997E+02  0.45594000000E+02  0.51100000000E-03 0.  1.
    9900012    2    1    2    0    0 -0.19196505027E+01 -0.43331952212E+02  0.15101830172E+01  0.47787265060E+02  0.19999972715E+02 0.  0.
        -12    1    1    2    0    0  0.19196505027E+01  0.43331952212E+02 -0.15101830172E+01  0.43400734940E+02  0.00000000000E+00 0.  1.
         11    1    3    3    0    0  0.22302190699E+00 -0.25375988701E+02 -0.29437759929E+01  0.25547139932E+02  0.51100000000E-03 0. -1.
        -11    1    3    3    0    0  0.25885296133E+01 -0.15976660811E+02  0.53242964816E+01  0.17038260167E+02  0.51100000000E-03 0.  1.
        -12    1    3    3    0    0 -0.47312020229E+01 -0.19793026995E+01 -0.87033747143E+00  0.52018649610E+01  0.00000000000E+00 0.  1.
</event>
<event>
 7    1  0.2294216E-010  0.4778727E+02  0.7816164E-02  0.1312668E+00
        -11   -1    0    0    0    0  0.00000000000E+00  0.00000000000E+00  0.45593999997E+02  0.45594000000E+02  0.51100000000E-03 0. -1.
         11   -1    0    0    0    0 -0.00000000000E+00 -0.00000000000E+00 -0.45593999997E+02  0.45594000000E+02  0.51100000000E-03 0.  1.
    9900012    2    1    2    0    0  0.30462488422E+02  0.30665141866E+02 -0.39126807195E+01  0.47787271931E+02  0.20000004041E+02 0.  0.
        -12    1    1    2    0    0 -0.30462488422E+02 -0.30665141866E+02  0.39126807195E+01  0.43400728069E+02  0.00000000000E+00 0.  1.
         11    1    3    3    0    0  0.11111306371E+02  0.18095056767E+02 -0.63927290535E+01  0.22175644155E+02  0.51100000000E-03 0. -1.
        -11    1    3    3    0    0  0.31408013526E+00  0.49658165865E+01  0.12699123266E+00  0.49773595145E+01  0.51100000000E-03 0.  1.
        -12    1    3    3    0    0  0.19037101916E+02  0.76042685126E+01  0.23530571014E+01  0.20634268262E+02  0.00000000000E+00 0.  1.
</event>
<event>
 7    1  0.2294216E-010  0.4778728E+02  0.7816164E-02  0.1312668E+00
        -11   -1    0    0    0    0  0.00000000000E+00  0.00000000000E+00  0.45593999997E+02  0.45594000000E+02  0.51100000000E-03 0.  1.
         11   -1    0    0    0    0 -0.00000000000E+00 -0.00000000000E+00 -0.45593999997E+02  0.45594000000E+02  0.51100000000E-03 0. -1.
    9900012    2    1    2    0    0 -0.18891944128E+02  0.90573636841E-01 -0.39073117360E+02  0.47787282763E+02  0.20000053429E+02 0.  0.
        -12    1    1    2    0    0  0.18891944128E+02 -0.90573636841E-01  0.39073117360E+02  0.43400717237E+02  0.00000000000E+00 0.  1.
         11    1    3    3    0    0 -0.81283129881E+01  0.38874925496E-01 -0.31715185846E+02  0.32740250409E+02  0.51100000000E-03 0. -1.
        -11    1    3    3    0    0 -0.53174898884E-01 -0.21802629012E+01 -0.10884662973E+01  0.24374439542E+01  0.51100000000E-03 0.  1.
         12    1    3    3    0    0 -0.10710456241E+02  0.22319616125E+01 -0.62694652158E+01  0.12609588400E+02  0.00000000000E+00 0. -1.
</event>
<event>
 7    1  0.2294216E-010  0.4778727E+02  0.7816164E-02  0.1312668E+00
        -11   -1    0    0    0    0  0.00000000000E+00  0.00000000000E+00  0.45593999997E+02  0.45594000000E+02  0.51100000000E-03 0.  1.
         11   -1    0    0    0    0 -0.00000000000E+00 -0.00000000000E+00 -0.45593999997E+02  0.45594000000E+02  0.51100000000E-03 0. -1.
    9900012    2    1    2    0    0  0.23059020462E+01  0.18998481993E+02 -0.38953355233E+02  0.47787269751E+02  0.19999994102E+02 0.  0.
        -12    1    1    2    0    0 -0.23059020462E+01 -0.18998481993E+02  0.38953355233E+02  0.43400730249E+02  0.00000000000E+00 0.  1.
         11    1    3    3    0    0  0.73357950338E+01  0.12549127610E+02 -0.19336752313E+02  0.24191000038E+02  0.51100000000E-03 0.  1.
        -11    1    3    3    0    0 -0.18569439263E+01  0.81446406144E+01 -0.17576428589E+02  0.19460582049E+02  0.51100000000E-03 0. -1.
         12    1    3    3    0    0 -0.31729490613E+01 -0.16952862318E+01 -0.20401743303E+01  0.41356876636E+01  0.00000000000E+00 0. -1.
</event>
<event>
 7    1  0.2294216E-010  0.4778728E+02  0.7816164E-02  0.1312668E+00
        -11   -1    0    0    0    0  0.00000000000E+00  0.00000000000E+00  0.45593999997E+02  0.45594000000E+02  0.51100000000E-03 0. -1.
         11   -1    0    0    0    0 -0.00000000000E+00 -0.00000000000E+00 -0.45593999997E+02  0.45594000000E+02  0.51100000000E-03 0.  1.
    9900012    2    1    2    0    0  0.35259458361E+02 -0.22865999061E+02  0.10841566465E+02  0.47787275578E+02  0.20000020670E+02 0.  0.
        -12    1    1    2    0    0 -0.35259458361E+02  0.22865999061E+02 -0.10841566465E+02  0.43400724422E+02  0.00000000000E+00 0.  1.
         11    1    3    3    0    0  0.50458340563E+01 -0.24710054828E+01  0.36722384391E+01  0.67120522074E+01  0.51100000000E-03 0. -1.
        -11    1    3    3    0    0  0.21108821020E+02 -0.51157706501E+01  0.83030704207E+01  0.23252836663E+02  0.51100000000E-03 0.  1.
         12    1    3    3    0    0  0.91048032844E+01 -0.15279222928E+02 -0.11337423952E+01  0.17822386708E+02  0.00000000000E+00 0. -1.
</event>
<event>
 7    1  0.2294216E-010  0.4778727E+02  0.7816164E-02  0.1312668E+00
        -11   -1    0    0    0    0  0.00000000000E+00  0.00000000000E+00  0.45593999997E+02  0.45594000000E+02  0.51100000000E-03 0.  1.
         11   -1    0    0    0    0 -0.00000000000E+00 -0.00000000000E+00 -0.45593999997E+02  0.45594000000E+02  0.51100000000E-03 0. -1.
    9900012    2    1    2    0    0  0.55296711918E+01 -0.10256203646E+02 -0.41807371761E+02  0.47787270625E+02  0.19999998088E+02 0.  0.
        -12    1    1    2    0    0 -0.55296711918E+01  0.10256203646E+02  0.41807371761E+02  0.43400729375E+02  0.00000000000E+00 0.  1.
         11    1    3    3    0    0 -0.10071386393E+01 -0.28940368873E+01 -0.22454278258E+02  0.22662400360E+02  0.51100000000E-03 0. -1.
        -11    1    3    3    0    0 -0.36721375845E+01 -0.31663458586E+01 -0.44635785510E+01  0.65904380946E+01  0.51100000000E-03 0.  1.
         12    1    3    3    0    0  0.10208947416E+02 -0.41958208999E+01 -0.14889514952E+02  0.18534432170E+02  0.00000000000E+00 0. -1.
</event>
<event>
 7    1  0.2294216E-010  0.4778728E+02  0.7816164E-02  0.1312668E+00
        -11   -1    0    0    0    0  0.00000000000E+00  0.00000000000E+00  0.45593999997E+02  0.45594000000E+02  0.51100000000E-03 0.  1.
         11   -1    0    0    0    0 -0.00000000000E+00 -0.00000000000E+00 -0.45593999997E+02  0.45594000000E+02  0.51100000000E-03 0. -1.
    9900012    2    1    2    0    0  0.78725291641E+01  0.61762590937E+01 -0.42231504601E+02  0.47787275667E+02  0.20000021074E+02 0.  0.
        -12    1    1    2    0    0 -0.78725291641E+01 -0.61762590937E+01  0.42231504601E+02  0.43400724333E+02  0.00000000000E+00 0.  1.
         11    1    3    3    0    0  0.40050388388E+01  0.70528376713E+01 -0.12222280733E+02  0.14668571910E+02  0.51100000000E-03 0. -1.
        -11    1    3    3    0    0  0.22497109967E+01  0.31715886383E+01 -0.13293909580E+01  0.41094348322E+01  0.51100000000E-03 0.  1.
         12    1    3    3    0    0  0.16177793286E+01 -0.40481672159E+01 -0.28679832910E+02  0.29009268924E+02  0.00000000000E+00 0. -1.
</event>
<event>
 7    1  0.2294216E-010  0.4778727E+02  0.7816164E-02  0.1312668E+00
        -11   -1    0    0    0    0  0.00000000000E+00  0.00000000000E+00  0.45593999997E+02  0.45594000000E+02  0.51100000000E-03 0.  1.
         11   -1    0    0    0    0 -0.00000000000E+00 -0.00000000000E+00 -0.45593999997E+02  0.45594000000E+02  0.51100000000E-03 0. -1.
    9900012    2    1    2    0    0 -0.60275737461E+01  0.19420610514E+02 -0.38342293240E+02  0.47787271793E+02  0.20000003412E+02 0.  0.
        -12    1    1    2    0    0  0.60275737461E+01 -0.19420610514E+02  0.38342293240E+02  0.43400728207E+02  0.00000000000E+00 0.  1.
         11    1    3    3    0    0 -0.94913288542E+00  0.11463669200E+02 -0.21217029562E+02  0.24134599820E+02  0.51100000000E-03 0. -1.
        -11    1    3    3    0    0 -0.37890696893E+01 -0.95926681017E+00 -0.13304916858E+02  0.13867157415E+02  0.51100000000E-03 0.  1.
        -12    1    3    3    0    0 -0.12893711714E+01  0.89162081243E+01 -0.38203468205E+01  0.97855145579E+01  0.00000000000E+00 0.  1.
</event>
<event>
 7    1  0.2294216E-010  0.4778727E+02  0.7816164E-02  0.1312668E+00
        -11   -1    0    0    0    0  0.00000000000E+00  0.00000000000E+00  0.45593999997E+02  0.45594000000E+02  0.51100000000E-03 0.  1.
         11   -1    0    0    0    0 -0.00000000000E+00 -0.00000000000E+00 -0.45593999997E+02  0.45594000000E+02  0.51100000000E-03 0. -1.
    9900012    2    1    2    0    0  0.82452089931E+01  0.32898013063E+02 -0.27080628790E+02  0.47787272005E+02  0.20000004379E+02 0.  0.
        -12    1    1    2    0    0 -0.82452089931E+01 -0.32898013063E+02  0.27080628790E+02  0.43400727995E+02  0.00000000000E+00 0.  1.
         11    1    3    3    0    0 -0.32182852059E+01  0.12151988025E+02 -0.60354376355E+01  0.13944700798E+02  0.51100000000E-03 0. -1.
        -11    1    3    3    0    0 -0.58985426529E+00  0.15288946292E+01  0.12308044850E+01  0.20494698785E+01  0.51100000000E-03 0.  1.
        -12    1    3    3    0    0  0.12053348464E+02  0.19217130409E+02 -0.22275995639E+02  0.31793101329E+02  0.00000000000E+00 0.  1.
</event>
<event>
 7    1  0.2294216E-010  0.4778727E+02  0.7816164E-02  0.1312668E+00
        -11   -1    0    0    0    0  0.00000000000E+00  0.00000000000E+00  0.45593999997E+02  0.45594000000E+02  0.51100000000E-03 0. -1.
         11   -1    0    0    0    0 -0.00000000000E+00 -0.00000000000E+00 -0.45593999997E+02  0.45594000000E+02  0.51100000000E-03 0.  1.
    9900012    2    1    2    0    0  0.36773880999E+02 -0.16074373227E+02 -0.16520277871E+02  0.47787269830E+02  0.19999994461E+02 0.  0.
        -12    1    1    2    0    0 -0.36773880999E+02  0.16074373227E+02  0.16520277871E+02  0.43400730170E+02  0.00000000000E+00 0.  1.
         11    1    3    3    0    0  0.27552765416E+01 -0.13150686297E+01  0.29992385213E+00  0.30677204729E+01  0.51100000000E-03 0. -1.
        -11    1    3    3    0    0  0.13363636491E+01  0.13918128058E+01  0.27376631128E+01  0.33492999671E+01  0.51100000000E-03 0.  1.
         12    1    3    3    0    0  0.32682240808E+02 -0.16151117403E+02 -0.19557864836E+02  0.41370249390E+02  0.00000000000E+00 0. -1.
</event>
<event>
 7    1  0.2294216E-010  0.4778727E+02  0.7816164E-02  0.1312668E+00
        -11   -1    0    0    0    0  0.00000000000E+00  0.00000000000E+00  0.45593999997E+02  0.45594000000E+02  0.51100000000E-03 0.  1.
         11   -1    0    0    0    0 -0.00000000000E+00 -0.00000000000E+00 -0.45593999997E+02  0.45594000000E+02  0.51100000000E-03 0. -1.
    9900012    2    1    2    0    0 -0.11505617234E+02  0.38960761772E+02 -0.15274258122E+02  0.47787272506E+02  0.20000006665E+02 0.  0.
        -12    1    1    2    0    0  0.11505617234E+02 -0.38960761772E+02  0.15274258122E+02  0.43400727494E+02  0.00000000000E+00 0.  1.
         11    1    3    3    0    0  0.85455830946E+00  0.75230297522E+01 -0.48661550034E+01  0.90003172908E+01  0.51100000000E-03 0. -1.
        -11    1    3    3    0    0 -0.19776858572E+01  0.44364915456E+01  0.41618163190E+01  0.63964375958E+01  0.51100000000E-03 0.  1.
         12    1    3    3    0    0 -0.10382489686E+02  0.27001240474E+02 -0.14569919438E+02  0.32390517620E+02  0.00000000000E+00 0. -1.
</event>
<event>
 7    1  0.2294216E-010  0.4778727E+02  0.7816164E-02  0.1312668E+00
        -11   -1    0    0    0    0  0.00000000000E+00  0.00000000000E+00  0.45593999997E+02  0.45594000000E+02  0.51100000000E-03 0.  1.
         11   -1    0    0    0    0 -0.00000000000E+00 -0.00000000000E+00 -0.45593999997E+02  0.45594000000E+02  0.51100000000E-03 0. -1.
    9900012    2    1    2    0    0 -0.33076380389E+02  0.27165768610E+02  0.71831387983E+01  0.47787269513E+02  0.19999993018E+02 0.  0.
        -12    1    1    2    0    0  0.33076380389E+02 -0.27165768610E+02 -0.71831387983E+01  0.43400730487E+02  0.00000000000E+00 0.  1.
         11    1    3    3    0    0 -0.64269910503E+01 -0.12839850994E+01 -0.66547394070E+00  0.65876921241E+01  0.51100000000E-03 0. -1.
        -11    1    3    3    0    0 -0.15729387113E+02  0.10143813659E+02  0.74471925146E+00  0.18731395611E+02  0.51100000000E-03 0.  1.
        -12    1    3    3    0    0 -0.10920002226E+02  0.18305940050E+02  0.71038934875E+01  0.22468181778E+02  0.00000000000E+00 0.  1.
</event>
<event>
 7    1  0.2294216E-010  0.4778727E+02  0.7816164E-02  0.1312668E+00
        -11   -1    0    0    0    0  0.00000000000E+00  0.00000000000E+00  0.45593999997E+02  0.45594000000E+02  0.51100000000E-03 0.  1.
         11   -1    0    0    0    0 -0.00000000000E+00 -0.00000000000E+00 -0.45593999997E+02  0.45594000000E+02  0.51100000000E-03 0. -1.
    9900012    2    1    2    0    0 -0.20947499768E+02 -0.18503135074E+02 -0.33203306707E+02  0.47787270394E+02  0.19999997033E+02 0.  0.
        -12    1    1    2    0    0  0.20947499768E+02  0.18503135074E+02  0.33203306707E+02  0.43400729606E+02  0.00000000000E+00 0.  1.
         11    1    3    3    0    0 -0.87616439270E+01 -0.34085566379E+01 -0.19857718892E+02  0.21970745607E+02  0.51100000000E-03 0. -1.
        -11    1    3    3    0    0  0.16371636904E+01 -0.72928569770E+00 -0.26320254821E+01  0.31842928537E+01  0.51100000000E-03 0.  1.
        -12    1    3    3    0    0 -0.13823019532E+02 -0.14365292738E+02 -0.10713562332E+02  0.22632231933E+02  0.00000000000E+00 0.  1.
</event>
<event>
 7    1  0.2294216E-010  0.4778728E+02  0.7816164E-02  0.1312668E+00
        -11   -1    0    0    0    0  0.00000000000E+00  0.00000000000E+00  0.45593999997E+02  0.45594000000E+02  0.51100000000E-03 0.  1.
         11   -1    0    0    0    0 -0.00000000000E+00 -0.00000000000E+00 -0.45593999997E+02  0.45594000000E+02  0.51100000000E-03 0. -1.
    9900012    2    1    2    0    0 -0.30198526589E+02 -0.13465996164E+02 -0.28112961412E+02  0.47787278114E+02  0.20000032233E+02 0.  0.
        -12    1    1    2    0    0  0.30198526589E+02  0.13465996164E+02  0.28112961412E+02  0.43400721886E+02  0.00000000000E+00 0.  1.
         11    1    3    3    0    0 -0.58635075216E+01 -0.91491723946E+00 -0.22923939007E+01  0.63618286733E+01  0.51100000000E-03 0. -1.
        -11    1    3    3    0    0 -0.41987202540E+00  0.34514462512E+01 -0.16629582697E+01  0.38541152306E+01  0.51100000000E-03 0.  1.
         12    1    3    3    0    0 -0.23915147042E+02 -0.16002525176E+02 -0.24157609242E+02  0.37571334210E+02  0.00000000000E+00 0. -1.
</event>
<event>
 7    1  0.2294216E-010  0.4778727E+02  0.7816164E-02  0.1312668E+00
        -11   -1    0    0    0    0  0.00000000000E+00  0.00000000000E+00  0.45593999997E+02  0.45594000000E+02  0.51100000000E-03 0.  1.
         11   -1    0    0    0    0 -0.00000000000E+00 -0.00000000000E+00 -0.45593999997E+02  0.45594000000E+02  0.51100000000E-03 0. -1.
    9900012    2    1    2    0    0  0.18798323561E+02 -0.82299940481E+01 -0.38242822153E+02  0.47787271700E+02  0.20000002989E+02 0.  0.
        -12    1    1    2    0    0 -0.18798323561E+02  0.82299940481E+01  0.38242822153E+02  0.43400728300E+02  0.00000000000E+00 0.  1.
         11    1    3    3    0    0  0.13679572453E+02 -0.61174711785E+01 -0.88102896743E+01  0.17383191897E+02  0.51100000000E-03 0. -1.
        -11    1    3    3    0    0 -0.89089746825E+00 -0.72499821009E+00 -0.21996172990E+01  0.24814586893E+01  0.51100000000E-03 0.  1.
         12    1    3    3    0    0  0.60096485766E+01 -0.13875246595E+01 -0.27232915180E+02  0.27922621114E+02  0.00000000000E+00 0. -1.
</event>
<event>
 7    1  0.2294216E-010  0.4778727E+02  0.7816164E-02  0.1312668E+00
        -11   -1    0    0    0    0  0.00000000000E+00  0.00000000000E+00  0.45593999997E+02  0.45594000000E+02  0.51100000000E-03 0. -1.
         11   -1    0    0    0    0 -0.00000000000E+00 -0.00000000000E+00 -0.45593999997E+02  0.45594000000E+02  0.51100000000E-03 0.  1.
    9900012    2    1    2    0    0 -0.91836151664E+01  0.39975476464E+02  0.14186115308E+02  0.47787269896E+02  0.19999994762E+02 0.  0.
        -12    1    1    2    0    0  0.91836151664E+01 -0.39975476464E+02 -0.14186115308E+02  0.43400730104E+02  0.00000000000E+00 0.  1.
         11    1    3    3    0    0 -0.79674212098E+01  0.29478830274E+02  0.10778530416E+02  0.32382988640E+02  0.51100000000E-03 0. -1.
        -11    1    3    3    0    0 -0.25744710989E+01  0.11285347154E+02 -0.84118423927E-01  0.11575579380E+02  0.51100000000E-03 0.  1.
        -12    1    3    3    0    0  0.13582771423E+01 -0.78870096327E+00  0.34917033160E+01  0.38287018755E+01  0.00000000000E+00 0.  1.
</event>
<event>
 7    1  0.2331731E-010  0.4778727E+02  0.7816164E-02  0.1312668E+00
        -11   -1    0    0    0    0  0.00000000000E+00  0.00000000000E+00  0.45593999997E+02  0.45594000000E+02  0.51100000000E-03 0. -1.
         11   -1    0    0    0    0 -0.00000000000E+00 -0.00000000000E+00 -0.45593999997E+02  0.45594000000E+02  0.51100000000E-03 0.  1.
    9900012    2    1    2    0    0 -0.37427460875E+01 -0.10964026243E+02  0.41825892473E+02  0.47787270733E+02  0.19999998580E+02 0.  0.
        -12    1    1    2    0    0  0.37427460875E+01  0.10964026243E+02 -0.41825892473E+02  0.43400729267E+02  0.00000000000E+00 0.  1.
         11    1    3    3    0    0 -0.66320023403E+01 -0.75276662399E+01  0.23617804838E+02  0.25660279026E+02  0.51100000000E-03 0. -1.
        -11    1    3    3    0    0 -0.13252623121E+00 -0.66334701695E+01  0.53059947436E+01  0.84955323654E+01  0.51100000000E-03 0.  1.
        -12    1    3    3    0    0  0.30217824839E+01  0.31971101666E+01  0.12902092891E+02  0.13631459341E+02  0.00000000000E+00 0.  1.
</event>
<event>
 7    1  0.2294216E-010  0.4778727E+02  0.7816164E-02  0.1312668E+00
        -11   -1    0    0    0    0  0.00000000000E+00  0.00000000000E+00  0.45593999997E+02  0.45594000000E+02  0.51100000000E-03 0.  1.
         11   -1    0    0    0    0 -0.00000000000E+00 -0.00000000000E+00 -0.45593999997E+02  0.45594000000E+02  0.51100000000E-03 0. -1.
    9900012    2    1    2    0    0  0.29952765821E+02  0.21378916544E+01 -0.31335033930E+02  0.47787272904E+02  0.20000008478E+02 0.  0.
        -12    1    1    2    0    0 -0.29952765821E+02 -0.21378916544E+01  0.31335033930E+02  0.43400727096E+02  0.00000000000E+00 0.  1.
         11    1    3    3    0    0  0.31774248327E+01 -0.26864048891E+01 -0.32210012740E+00  0.41733138569E+01  0.51100000000E-03 0.  1.
        -11    1    3    3    0    0  0.16908476182E+02 -0.40590587804E+01 -0.17622354796E+02  0.24757219428E+02  0.51100000000E-03 0. -1.
         12    1    3    3    0    0  0.98668648061E+01  0.88833553239E+01 -0.13390579007E+02  0.18856739619E+02  0.00000000000E+00 0. -1.
</event>
<event>
 7    1  0.2294216E-010  0.4778728E+02  0.7816164E-02  0.1312668E+00
        -11   -1    0    0    0    0  0.00000000000E+00  0.00000000000E+00  0.45593999997E+02  0.45594000000E+02  0.51100000000E-03 0.  1.
         11   -1    0    0    0    0 -0.00000000000E+00 -0.00000000000E+00 -0.45593999997E+02  0.45594000000E+02  0.51100000000E-03 0. -1.
    9900012    2    1    2    0    0  0.33510623120E+01 -0.14350102569E+02 -0.40822384464E+02  0.47787284157E+02  0.20000059785E+02 0.  0.
        -12    1    1    2    0    0 -0.33510623120E+01  0.14350102569E+02  0.40822384464E+02  0.43400715843E+02  0.00000000000E+00 0.  1.
         11    1    3    3    0    0  0.13313424074E+01 -0.94871046845E-01 -0.94128322616E+01  0.95069913520E+01  0.51100000000E-03 0. -1.
        -11    1    3    3    0    0 -0.64604404915E+01 -0.16291156329E+01 -0.10097789018E+02  0.12097795353E+02  0.51100000000E-03 0.  1.
         12    1    3    3    0    0  0.84801603962E+01 -0.12626115889E+02 -0.21311763184E+02  0.26182497452E+02  0.00000000000E+00 0. -1.
</event>
<event>
 7    1  0.2294216E-010  0.4778727E+02  0.7816164E-02  0.1312668E+00
        -11   -1    0    0    0    0  0.00000000000E+00  0.00000000000E+00  0.45593999997E+02  0.45594000000E+02  0.51100000000E-03 0.  1.
         11   -1    0    0    0    0 -0.00000000000E+00 -0.00000000000E+00 -0.45593999997E+02  0.45594000000E+02  0.51100000000E-03 0. -1.
    9900012    2    1    2    0    0 -0.40368764079E+01  0.37094186844E+02 -0.22166370381E+02  0.47787273685E+02  0.20000012041E+02 0.  0.
        -12    1    1    2    0    0  0.40368764079E+01 -0.37094186844E+02  0.22166370381E+02  0.43400726315E+02  0.00000000000E+00 0.  1.
         11    1    3    3    0    0 -0.76706081156E+01  0.91005466081E+01 -0.53839996523E+01  0.13063140126E+02  0.51100000000E-03 0.  1.
        -11    1    3    3    0    0 -0.15526008972E+01  0.19563073125E+02 -0.14920352021E+02  0.24652409707E+02  0.51100000000E-03 0. -1.
        -12    1    3    3    0    0  0.51863326048E+01  0.84305671109E+01 -0.18620187077E+01  0.10071723853E+02  0.00000000000E+00 0.  1.
</event>
<event>
 7    1  0.2294216E-010  0.4778727E+02  0.7816164E-02  0.1312668E+00
        -11   -1    0    0    0    0  0.00000000000E+00  0.00000000000E+00  0.45593999997E+02  0.45594000000E+02  0.51100000000E-03 0.  1.
         11   -1    0    0    0    0 -0.00000000000E+00 -0.00000000000E+00 -0.45593999997E+02  0.45594000000E+02  0.51100000000E-03 0. -1.
    9900012    2    1    2    0    0 -0.27308635340E+02  0.27417893587E+02 -0.19649955976E+02  0.47787271633E+02  0.20000002686E+02 0.  0.
        -12    1    1    2    0    0  0.27308635340E+02 -0.27417893587E+02  0.19649955976E+02  0.43400728367E+02  0.00000000000E+00 0.  1.
         11    1    3    3    0    0 -0.10394304836E+02  0.41896062551E+01 -0.53116736166E+01  0.12401945430E+02  0.51100000000E-03 0. -1.
        -11    1    3    3    0    0 -0.17480704496E+02  0.21996834808E+02 -0.16683322142E+02  0.32676734983E+02  0.51100000000E-03 0.  1.
         12    1    3    3    0    0  0.56637399092E+00  0.12314525237E+01  0.23450397821E+01  0.27085912197E+01  0.00000000000E+00 0. -1.
</event>
<event>
 7    1  0.2294216E-010  0.4778726E+02  0.7816164E-02  0.1312668E+00
        -11   -1    0    0    0    0  0.00000000000E+00  0.00000000000E+00  0.45593999997E+02  0.45594000000E+02  0.51100000000E-03 0. -1.
         11   -1    0    0    0    0 -0.00000000000E+00 -0.00000000000E+00 -0.45593999997E+02  0.45594000000E+02  0.51100000000E-03 0.  1.
    9900012    2    1    2    0    0 -0.23865587817E+02  0.15484612548E+02  0.32776276382E+02  0.47787264971E+02  0.19999972308E+02 0.  0.
        -12    1    1    2    0    0  0.23865587817E+02 -0.15484612548E+02 -0.32776276382E+02  0.43400735029E+02  0.00000000000E+00 0.  1.
         11    1    3    3    0    0 -0.44966577036E+01  0.38547681327E+01  0.13391712659E+02  0.14642989314E+02  0.51100000000E-03 0. -1.
        -11    1    3    3    0    0  0.10069352339E+01  0.54663377672E+01  0.47499632745E+01  0.73114238367E+01  0.51100000000E-03 0.  1.
        -12    1    3    3    0    0 -0.20375865348E+02  0.61635066480E+01  0.14634600448E+02  0.25832851820E+02  0.00000000000E+00 0.  1.
</event>
<event>
 7    1  0.2294216E-010  0.4778727E+02  0.7816164E-02  0.1312668E+00
        -11   -1    0    0    0    0  0.00000000000E+00  0.00000000000E+00  0.45593999997E+02  0.45594000000E+02  0.51100000000E-03 0.  1.
         11   -1    0    0    0    0 -0.00000000000E+00 -0.00000000000E+00 -0.45593999997E+02  0.45594000000E+02  0.51100000000E-03 0. -1.
    9900012    2    1    2    0    0 -0.69829384412E+01 -0.23160383623E+02 -0.36034126810E+02  0.47787273118E+02  0.20000009456E+02 0.  0.
        -12    1    1    2    0    0  0.69829384412E+01  0.23160383623E+02  0.36034126810E+02  0.43400726882E+02  0.00000000000E+00 0.  1.
         11    1    3    3    0    0 -0.14379700740E+01 -0.16918375656E+02 -0.32977163925E+02  0.37091677417E+02  0.51100000000E-03 0. -1.
        -11    1    3    3    0    0 -0.38693626402E+01 -0.38400963723E+01 -0.48204409452E+01  0.72770157728E+01  0.51100000000E-03 0.  1.
        -12    1    3    3    0    0 -0.16756057271E+01 -0.24019115949E+01  0.17634780600E+01  0.34185799289E+01  0.00000000000E+00 0.  1.
</event>
<event>
 7    1  0.2294216E-010  0.4778724E+02  0.7816164E-02  0.1312668E+00
        -11   -1    0    0    0    0  0.00000000000E+00  0.00000000000E+00  0.45593999997E+02  0.45594000000E+02  0.51100000000E-03 0. -1.
         11   -1    0    0    0    0 -0.00000000000E+00 -0.00000000000E+00 -0.45593999997E+02  0.45594000000E+02  0.51100000000E-03 0.  1.
    9900012    2    1    2    0    0  0.11298358530E+02 -0.22707364770E+02  0.35218588077E+02  0.47787236569E+02  0.19999842810E+02 0.  0.
        -12    1    1    2    0    0 -0.11298358530E+02  0.22707364770E+02 -0.35218588077E+02  0.43400763431E+02  0.00000000000E+00 0.  1.
         11    1    3    3    0    0  0.50148717084E+01 -0.39693008446E+01  0.16441340699E+02  0.17641484395E+02  0.51100000000E-03 0.  1.
        -11    1    3    3    0    0  0.85517967189E+01 -0.18771145141E+02  0.14216341637E+02  0.25051816038E+02  0.51100000000E-03 0. -1.
         12    1    3    3    0    0 -0.22683098973E+01  0.33081215873E-01  0.45609057422E+01  0.50939361349E+01  0.00000000000E+00 0. -1.
</event>
<event>
 7    1  0.2294216E-010  0.4778727E+02  0.7816164E-02  0.1312668E+00
        -11   -1    0    0    0    0  0.00000000000E+00  0.00000000000E+00  0.45593999997E+02  0.45594000000E+02  0.51100000000E-03 0. -1.
         11   -1    0    0    0    0 -0.00000000000E+00 -0.00000000000E+00 -0.45593999997E+02  0.45594000000E+02  0.51100000000E-03 0.  1.
    9900012    2    1    2    0    0 -0.24776428904E+02  0.31726376006E+02  0.16223094407E+02  0.47787272404E+02  0.20000006200E+02 0.  0.
        -12    1    1    2    0    0  0.24776428904E+02 -0.31726376006E+02 -0.16223094407E+02  0.43400727596E+02  0.00000000000E+00 0.  1.
         11    1    3    3    0    0 -0.81651257392E+01  0.12777590245E+02  0.11184232184E+02  0.18842057759E+02  0.51100000000E-03 0. -1.
        -11    1    3    3    0    0 -0.16510791526E+02  0.11381110133E+02  0.67995940539E+01  0.21174758186E+02  0.51100000000E-03 0.  1.
        -12    1    3    3    0    0 -0.10051163898E+00  0.75676756277E+01 -0.17607318310E+01  0.77704564587E+01  0.00000000000E+00 0.  1.
</event>
<event>
 7    1  0.2294216E-010  0.4778727E+02  0.7816164E-02  0.1312668E+00
        -11   -1    0    0    0    0  0.00000000000E+00  0.00000000000E+00  0.45593999997E+02  0.45594000000E+02  0.51100000000E-03 0. -1.
         11   -1    0    0    0    0 -0.00000000000E+00 -0.00000000000E+00 -0.45593999997E+02  0.45594000000E+02  0.51100000000E-03 0.  1.
    9900012    2    1    2    0    0  0.34721050535E+02 -0.18815436156E+01  0.25971748798E+02  0.47787270833E+02  0.19999999038E+02 0.  0.
        -12    1    1    2    0    0 -0.34721050535E+02  0.18815436156E+01 -0.25971748798E+02  0.43400729167E+02  0.00000000000E+00 0.  1.
         11    1    3    3    0    0 -0.33199747855E-01 -0.50059287292E+00  0.28596030727E+01  0.29032783956E+01  0.51100000000E-03 0. -1.
        -11    1    3    3    0    0  0.16747097563E+02 -0.82062236663E+01  0.75310260502E+01  0.20112775474E+02  0.51100000000E-03 0.  1.
         12    1    3    3    0    0  0.18007152719E+02  0.68252729237E+01  0.15581119675E+02  0.24771216964E+02  0.00000000000E+00 0. -1.
</event>
<event>
 7    1  0.2294216E-010  0.4778728E+02  0.7816164E-02  0.1312668E+00
        -11   -1    0    0    0    0  0.00000000000E+00  0.00000000000E+00  0.45593999997E+02  0.45594000000E+02  0.51100000000E-03 0.  1.
         11   -1    0    0    0    0 -0.00000000000E+00 -0.00000000000E+00 -0.45593999997E+02  0.45594000000E+02  0.51100000000E-03 0. -1.
    9900012    2    1    2    0    0  0.14973920750E+02 -0.14614106002E+02 -0.38024098337E+02  0.47787280522E+02  0.20000043211E+02 0.  0.
        -12    1    1    2    0    0 -0.14973920750E+02  0.14614106002E+02  0.38024098337E+02  0.43400719478E+02  0.00000000000E+00 0.  1.
         11    1    3    3    0    0  0.44680711529E+01 -0.60131312113E+01 -0.15503534616E+02  0.17218623425E+02  0.51100000000E-03 0. -1.
        -11    1    3    3    0    0  0.64767045121E+01 -0.12583010914E+02 -0.11729269285E+02  0.18380849361E+02  0.51100000000E-03 0.  1.
         12    1    3    3    0    0  0.40291450851E+01  0.39820361236E+01 -0.10791294436E+02  0.12187807736E+02  0.00000000000E+00 0. -1.
</event>
<event>
 7    1  0.2294216E-010  0.4778727E+02  0.7816164E-02  0.1312668E+00
        -11   -1    0    0    0    0  0.00000000000E+00  0.00000000000E+00  0.45593999997E+02  0.45594000000E+02  0.51100000000E-03 0.  1.
         11   -1    0    0    0    0 -0.00000000000E+00 -0.00000000000E+00 -0.45593999997E+02  0.45594000000E+02  0.51100000000E-03 0. -1.
    9900012    2    1    2    0    0 -0.35332133009E+02 -0.18933903669E+02 -0.16636431463E+02  0.47787272092E+02  0.20000004775E+02 0.  0.
        -12    1    1    2    0    0  0.35332133009E+02  0.18933903669E+02  0.16636431463E+02  0.43400727908E+02  0.00000000000E+00 0.  1.
         11    1    3    3    0    0 -0.61898632522E+01 -0.58591355522E+01  0.26706653213E+01  0.89317596262E+01  0.51100000000E-03 0.  1.
        -11    1    3    3    0    0 -0.10348670333E+02 -0.99742174547E+00 -0.19792780420E+01  0.10583353420E+02  0.51100000000E-03 0. -1.
        -12    1    3    3    0    0 -0.18793599424E+02 -0.12077346371E+02 -0.17327818743E+02  0.28272159045E+02  0.00000000000E+00 0.  1.
</event>
<event>
 7    1  0.2294216E-010  0.4778729E+02  0.7816164E-02  0.1312668E+00
        -11   -1    0    0    0    0  0.00000000000E+00  0.00000000000E+00  0.45593999997E+02  0.45594000000E+02  0.51100000000E-03 0.  1.
         11   -1    0    0    0    0 -0.00000000000E+00 -0.00000000000E+00 -0.45593999997E+02  0.45594000000E+02  0.51100000000E-03 0. -1.
    9900012    2    1    2    0    0  0.31976229164E+02  0.24393866499E+02 -0.16311997051E+02  0.47787294912E+02  0.20000108820E+02 0.  0.
        -12    1    1    2    0    0 -0.31976229164E+02 -0.24393866499E+02  0.16311997051E+02  0.43400705088E+02  0.00000000000E+00 0.  1.
         11    1    3    3    0    0  0.57847095960E+01 -0.18877692652E+01 -0.57273631747E+01  0.83563884008E+01  0.51100000000E-03 0. -1.
        -11    1    3    3    0    0  0.59785730720E+01  0.39869751944E+01  0.85448709096E+00  0.72366743486E+01  0.51100000000E-03 0.  1.
         12    1    3    3    0    0  0.20212946496E+02  0.22294660570E+02 -0.11439120968E+02  0.32194232162E+02  0.00000000000E+00 0. -1.
</event>
<event>
 7    1  0.2294216E-010  0.4778728E+02  0.7816164E-02  0.1312668E+00
        -11   -1    0    0    0    0  0.00000000000E+00  0.00000000000E+00  0.45593999997E+02  0.45594000000E+02  0.51100000000E-03 0.  1.
         11   -1    0    0    0    0 -0.00000000000E+00 -0.00000000000E+00 -0.45593999997E+02  0.45594000000E+02  0.51100000000E-03 0. -1.
    9900012    2    1    2    0    0 -0.76486684790E+01 -0.41527048012E+02 -0.10031177624E+02  0.47787281450E+02  0.20000047444E+02 0.  0.
        -12    1    1    2    0    0  0.76486684790E+01  0.41527048012E+02  0.10031177624E+02  0.43400718550E+02  0.00000000000E+00 0.  1.
         11    1    3    3    0    0 -0.71745911311E+01 -0.29970996905E+02 -0.92482394495E+01  0.32175539569E+02  0.51100000000E-03 0. -1.
        -11    1    3    3    0    0  0.73123145141E-01 -0.61279830431E+01 -0.56240711371E+01  0.83179143773E+01  0.51100000000E-03 0.  1.
        -12    1    3    3    0    0 -0.54720049306E+00 -0.54280680640E+01  0.48411329630E+01  0.72938275036E+01  0.00000000000E+00 0.  1.
</event>
<event>
 7    1  0.2394787E-010  0.4778727E+02  0.7816164E-02  0.1312668E+00
        -11   -1    0    0    0    0  0.00000000000E+00  0.00000000000E+00  0.45593999997E+02  0.45594000000E+02  0.51100000000E-03 0.  1.
         11   -1    0    0    0    0 -0.00000000000E+00 -0.00000000000E+00 -0.45593999997E+02  0.45594000000E+02  0.51100000000E-03 0. -1.
    9900012    2    1    2    0    0 -0.35432085187E+01 -0.41457694327E+02  0.12342146240E+02  0.47787270521E+02  0.19999997613E+02 0.  0.
        -12    1    1    2    0    0  0.35432085187E+01  0.41457694327E+02 -0.12342146240E+02  0.43400729479E+02  0.00000000000E+00 0.  1.
         11    1    3    3    0    0 -0.34983735355E+01 -0.22829686456E+02  0.97768122206E+01  0.25080256349E+02  0.51100000000E-03 0. -1.
        -11    1    3    3    0    0 -0.59487201609E+01 -0.95729236321E+01 -0.10236161256E+01  0.11317063606E+02  0.51100000000E-03 0.  1.
        -12    1    3    3    0    0  0.59038851778E+01 -0.90550842388E+01  0.35889501450E+01  0.11389950566E+02  0.00000000000E+00 0.  1.
</event>
<event>
 7    1  0.2294216E-010  0.4778728E+02  0.7816164E-02  0.1312668E+00
        -11   -1    0    0    0    0  0.00000000000E+00  0.00000000000E+00  0.45593999997E+02  0.45594000000E+02  0.51100000000E-03 0. -1.
         11   -1    0    0    0    0 -0.00000000000E+00 -0.00000000000E+00 -0.45593999997E+02  0.45594000000E+02  0.51100000000E-03 0.  1.
    9900012    2    1    2    0    0 -0.31251661089E+02  0.22545314046E+02 -0.19966590481E+02  0.47787282936E+02  0.20000054218E+02 0.  0.
        -12    1    1    2    0    0  0.31251661089E+02 -0.22545314046E+02  0.19966590481E+02  0.43400717064E+02  0.00000000000E+00 0.  1.
         11    1    3    3    0    0 -0.11109813227E+02  0.73638382061E+01  0.36893077545E+00  0.13333798155E+02  0.51100000000E-03 0. -1.
        -11    1    3    3    0    0 -0.70881473513E+01  0.61719279391E+00 -0.14411276431E+01  0.72594496323E+01  0.51100000000E-03 0.  1.
        -12    1    3    3    0    0 -0.13053700511E+02  0.14564283046E+02 -0.18894393613E+02  0.27194035149E+02  0.00000000000E+00 0.  1.
</event>
<event>
 7    1  0.2294216E-010  0.4778727E+02  0.7816164E-02  0.1312668E+00
        -11   -1    0    0    0    0  0.00000000000E+00  0.00000000000E+00  0.45593999997E+02  0.45594000000E+02  0.51100000000E-03 0.  1.
         11   -1    0    0    0    0 -0.00000000000E+00 -0.00000000000E+00 -0.45593999997E+02  0.45594000000E+02  0.51100000000E-03 0. -1.
    9900012    2    1    2    0    0  0.15980084796E+02  0.76428699583E+01 -0.39621289509E+02  0.47787272430E+02  0.20000006316E+02 0.  0.
        -12    1    1    2    0    0 -0.15980084796E+02 -0.76428699583E+01  0.39621289509E+02  0.43400727570E+02  0.00000000000E+00 0.  1.
         11    1    3    3    0    0  0.67375490444E+01  0.31723879740E+01 -0.14164509916E+02  0.16002873305E+02  0.51100000000E-03 0.  1.
        -11    1    3    3    0    0  0.45038224937E+01 -0.60196633283E+01 -0.10321689721E+02  0.12769418256E+02  0.51100000000E-03 0. -1.
        -12    1    3    3    0    0  0.47387132579E+01  0.10490145313E+02 -0.15135089872E+02  0.19014980869E+02  0.00000000000E+00 0.  1.
</event>
<event>
 7    1  0.2294216E-010  0.4778728E+02  0.7816164E-02  0.1312668E+00
        -11   -1    0    0    0    0  0.00000000000E+00  0.00000000000E+00  0.45593999997E+02  0.45594000000E+02  0.51100000000E-03 0.  1.
         11   -1    0    0    0    0 -0.00000000000E+00 -0.00000000000E+00 -0.45593999997E+02  0.45594000000E+02  0.51100000000E-03 0. -1.
    9900012    2    1    2    0    0 -0.12470066126E+02  0.22328737025E+01 -0.41510650506E+02  0.47787281347E+02  0.20000046975E+02 0.  0.
        -12    1    1    2    0    0  0.12470066126E+02 -0.22328737025E+01  0.41510650506E+02  0.43400718653E+02  0.00000000000E+00 0.  1.
         11    1    3    3    0    0 -0.82681225684E+00 -0.42062025183E+00 -0.10052744232E+02  0.10095454758E+02  0.51100000000E-03 0. -1.
        -11    1    3    3    0    0 -0.98585302667E+01 -0.20650823116E+01 -0.59686148931E+01  0.11708097539E+02  0.51100000000E-03 0.  1.
        -12    1    3    3    0    0 -0.17847236026E+01  0.47185762659E+01 -0.25489291381E+02  0.25983729051E+02  0.00000000000E+00 0.  1.
</event>
<event>
 7    1  0.2294216E-010  0.4778727E+02  0.7816164E-02  0.1312668E+00
        -11   -1    0    0    0    0  0.00000000000E+00  0.00000000000E+00  0.45593999997E+02  0.45594000000E+02  0.51100000000E-03 0.  1.
         11   -1    0    0    0    0 -0.00000000000E+00 -0.00000000000E+00 -0.45593999997E+02  0.45594000000E+02  0.51100000000E-03 0. -1.
    9900012    2    1    2    0    0 -0.26771330213E+02 -0.25163214213E+02  0.23102636436E+02  0.47787270960E+02  0.19999999617E+02 0.  0.
        -12    1    1    2    0    0  0.26771330213E+02  0.25163214213E+02 -0.23102636436E+02  0.43400729040E+02  0.00000000000E+00 0.  1.
         11    1    3    3    0    0 -0.10051139853E+02 -0.18656157474E+02  0.90575951244E+01  0.23045989971E+02  0.51100000000E-03 0. -1.
        -11    1    3    3    0    0 -0.13533606341E+02 -0.89050194818E+01  0.98837433433E+01  0.18977519735E+02  0.51100000000E-03 0.  1.
        -12    1    3    3    0    0 -0.31865840178E+01  0.23979627423E+01  0.41612979680E+01  0.57637612540E+01  0.00000000000E+00 0.  1.
</event>
<event>
 7    1  0.2294216E-010  0.4778727E+02  0.7816164E-02  0.1312668E+00
        -11   -1    0    0    0    0  0.00000000000E+00  0.00000000000E+00  0.45593999997E+02  0.45594000000E+02  0.51100000000E-03 0.  1.
         11   -1    0    0    0    0 -0.00000000000E+00 -0.00000000000E+00 -0.45593999997E+02  0.45594000000E+02  0.51100000000E-03 0. -1.
    9900012    2    1    2    0    0 -0.26036316392E+02 -0.33477727635E+02 -0.92182087934E+01  0.47787269681E+02  0.19999993783E+02 0.  0.
        -12    1    1    2    0    0  0.26036316392E+02  0.33477727635E+02  0.92182087934E+01  0.43400730319E+02  0.00000000000E+00 0.  1.
         11    1    3    3    0    0 -0.18742247251E+02 -0.18799875833E+02 -0.40154496873E+01  0.26848296032E+02  0.51100000000E-03 0. -1.
        -11    1    3    3    0    0 -0.57764808545E+01 -0.16746927182E+02 -0.46192037182E+01  0.18307494213E+02  0.51100000000E-03 0.  1.
         12    1    3    3    0    0 -0.15175882865E+01  0.20690753797E+01 -0.58355538784E+00  0.26314794366E+01  0.00000000000E+00 0. -1.
</event>
<event>
 7    1  0.2294216E-010  0.4778728E+02  0.7816164E-02  0.1312668E+00
        -11   -1    0    0    0    0  0.00000000000E+00  0.00000000000E+00  0.45593999997E+02  0.45594000000E+02  0.51100000000E-03 0.  1.
         11   -1    0    0    0    0 -0.00000000000E+00 -0.00000000000E+00 -0.45593999997E+02  0.45594000000E+02  0.51100000000E-03 0. -1.
    9900012    2    1    2    0    0 -0.19549027418E+02  0.37549394959E+01 -0.38566292104E+02  0.47787275003E+02  0.20000018050E+02 0.  0.
        -12    1    1    2    0    0  0.19549027418E+02 -0.37549394959E+01  0.38566292104E+02  0.43400724997E+02  0.00000000000E+00 0.  1.
         11    1    3    3    0    0 -0.40600947432E+01 -0.27053506346E+01 -0.12772801998E+02  0.13672884206E+02  0.51100000000E-03 0. -1.
        -11    1    3    3    0    0 -0.19232881260E+01 -0.44806810536E+01 -0.50147530301E+01  0.69945184347E+01  0.51100000000E-03 0.  1.
        -12    1    3    3    0    0 -0.13565644549E+02  0.10940971184E+02 -0.20778737076E+02  0.27119872362E+02  0.00000000000E+00 0.  1.
</event>
<event>
 7    1  0.2294216E-010  0.4778727E+02  0.7816164E-02  0.1312668E+00
        -11   -1    0    0    0    0  0.00000000000E+00  0.00000000000E+00  0.45593999997E+02  0.45594000000E+02  0.51100000000E-03 0.  1.
         11   -1    0    0    0    0 -0.00000000000E+00 -0.00000000000E+00 -0.45593999997E+02  0.45594000000E+02  0.51100000000E-03 0. -1.
    9900012    2    1    2    0    0  0.18831274966E+02  0.17167176197E+02 -0.35132527388E+02  0.47787270328E+02  0.19999996732E+02 0.  0.
        -12    1    1    2    0    0 -0.18831274966E+02 -0.17167176197E+02  0.35132527388E+02  0.43400729672E+02  0.00000000000E+00 0.  1.
         11    1    3    3    0    0  0.91401742087E+01  0.20000926478E+01 -0.46966843958E+01  0.10469097370E+02  0.51100000000E-03 0. -1.
        -11    1    3    3    0    0  0.53950671393E+01  0.78365309175E+01 -0.55336037522E+01  0.11006304421E+02  0.51100000000E-03 0.  1.
        -12    1    3    3    0    0  0.42960336183E+01  0.73305526315E+01 -0.24902239240E+02  0.26311868537E+02  0.00000000000E+00 0.  1.
</event>
<event>
 7    1  0.2294216E-010  0.4778727E+02  0.7816164E-02  0.1312668E+00
        -11   -1    0    0    0    0  0.00000000000E+00  0.00000000000E+00  0.45593999997E+02  0.45594000000E+02  0.51100000000E-03 0.  1.
         11   -1    0    0    0    0 -0.00000000000E+00 -0.00000000000E+00 -0.45593999997E+02  0.45594000000E+02  0.51100000000E-03 0. -1.
    9900012    2    1    2    0    0  0.19497385771E+02 -0.38509986186E+02 -0.45228316554E+01  0.47787273115E+02  0.20000009442E+02 0.  0.
        -12    1    1    2    0    0 -0.19497385771E+02  0.38509986186E+02  0.45228316554E+01  0.43400726885E+02  0.00000000000E+00 0.  1.
         11    1    3    3    0    0  0.80732099263E+01 -0.16400261255E+02 -0.42957225773E+01  0.18777606888E+02  0.51100000000E-03 0. -1.
        -11    1    3    3    0    0  0.37017171918E+01 -0.23776014947E+01 -0.56272274124E+01  0.71429257065E+01  0.51100000000E-03 0.  1.
         12    1    3    3    0    0  0.77224586527E+01 -0.19732123437E+02  0.54001183343E+01  0.21866740520E+02  0.00000000000E+00 0. -1.
</event>
<event>
 7    1  0.2294216E-010  0.4778730E+02  0.7816164E-02  0.1312668E+00
        -11   -1    0    0    0    0  0.00000000000E+00  0.00000000000E+00  0.45593999997E+02  0.45594000000E+02  0.51100000000E-03 0.  1.
         11   -1    0    0    0    0 -0.00000000000E+00 -0.00000000000E+00 -0.45593999997E+02  0.45594000000E+02  0.51100000000E-03 0. -1.
    9900012    2    1    2    0    0 -0.86656290837E+01 -0.47441005795E+01 -0.42261343596E+02  0.47787299772E+02  0.20000130979E+02 0.  0.
        -12    1    1    2    0    0  0.86656290837E+01  0.47441005795E+01  0.42261343596E+02  0.43400700228E+02  0.00000000000E+00 0.  1.
         11    1    3    3    0    0 -0.70501445423E+01  0.40197917822E+01 -0.23506683547E+02  0.24868201296E+02  0.51100000000E-03 0. -1.
        -11    1    3    3    0    0 -0.55053121217E+01 -0.47025664153E+01 -0.12952943422E+02  0.14839182457E+02  0.51100000000E-03 0.  1.
        -12    1    3    3    0    0  0.38898275803E+01 -0.40613259464E+01 -0.58017166278E+01  0.80799160191E+01  0.00000000000E+00 0.  1.
</event>
<event>
 7    1  0.2294216E-010  0.4778727E+02  0.7816164E-02  0.1312668E+00
        -11   -1    0    0    0    0  0.00000000000E+00  0.00000000000E+00  0.45593999997E+02  0.45594000000E+02  0.51100000000E-03 0.  1.
         11   -1    0    0    0    0 -0.00000000000E+00 -0.00000000000E+00 -0.45593999997E+02  0.45594000000E+02  0.51100000000E-03 0. -1.
    9900012    2    1    2    0    0  0.98961672650E+01  0.80684939752E+01 -0.41479982242E+02  0.47787266730E+02  0.19999980330E+02 0.  0.
        -12    1    1    2    0    0 -0.98961672650E+01 -0.80684939752E+01  0.41479982242E+02  0.43400733270E+02  0.00000000000E+00 0.  1.
         11    1    3    3    0    0  0.31678641885E+01 -0.19734996869E+00 -0.10229294886E+02  0.10710405439E+02  0.51100000000E-03 0. -1.
        -11    1    3    3    0    0  0.42026618302E+01  0.11328172837E+02 -0.10678283862E+02  0.16124999621E+02  0.51100000000E-03 0.  1.
        -12    1    3    3    0    0  0.25256412462E+01 -0.30623288930E+01 -0.20572403494E+02  0.20951861671E+02  0.00000000000E+00 0.  1.
</event>
<event>
 7    1  0.2294216E-010  0.4778727E+02  0.7816164E-02  0.1312668E+00
        -11   -1    0    0    0    0  0.00000000000E+00  0.00000000000E+00  0.45593999997E+02  0.45594000000E+02  0.51100000000E-03 0. -1.
         11   -1    0    0    0    0 -0.00000000000E+00 -0.00000000000E+00 -0.45593999997E+02  0.45594000000E+02  0.51100000000E-03 0.  1.
    9900012    2    1    2    0    0  0.12844947568E+02  0.40683053885E+02 -0.79699232334E+01  0.47787271575E+02  0.20000002421E+02 0.  0.
        -12    1    1    2    0    0 -0.12844947568E+02 -0.40683053885E+02  0.79699232334E+01  0.43400728425E+02  0.00000000000E+00 0.  1.
         11    1    3    3    0    0  0.96124512409E+00  0.55293224926E+01 -0.60212384233E+01  0.82312035467E+01  0.51100000000E-03 0. -1.
        -11    1    3    3    0    0  0.21227836041E+01  0.21443142177E+02 -0.57499232857E+01  0.22301932085E+02  0.51100000000E-03 0.  1.
         12    1    3    3    0    0  0.97609188394E+01  0.13710589215E+02  0.38012384756E+01  0.17254135944E+02  0.00000000000E+00 0. -1.
</event>
<event>
 7    1  0.2294216E-010  0.4778729E+02  0.7816164E-02  0.1312668E+00
        -11   -1    0    0    0    0  0.00000000000E+00  0.00000000000E+00  0.45593999997E+02  0.45594000000E+02  0.51100000000E-03 0.  1.
         11   -1    0    0    0    0 -0.00000000000E+00 -0.00000000000E+00 -0.45593999997E+02  0.45594000000E+02  0.51100000000E-03 0. -1.
    9900012    2    1    2    0    0  0.38947379185E+02 -0.75249551538E+01 -0.17609603922E+02  0.47787292106E+02  0.20000096027E+02 0.  0.
        -12    1    1    2    0    0 -0.38947379185E+02  0.75249551538E+01  0.17609603922E+02  0.43400707894E+02  0.00000000000E+00 0.  1.
         11    1    3    3    0    0  0.62094117307E+01  0.52077453991E+00 -0.23435508272E+01  0.66573441328E+01  0.51100000000E-03 0. -1.
        -11    1    3    3    0    0 -0.14903078396E+01  0.18431454867E+01 -0.34391965266E-02  0.23702773743E+01  0.51100000000E-03 0.  1.
         12    1    3    3    0    0  0.34228275294E+02 -0.98888751804E+01 -0.15262613898E+02  0.38759670599E+02  0.00000000000E+00 0. -1.
</event>
<event>
 7    1  0.2294216E-010  0.4778727E+02  0.7816164E-02  0.1312668E+00
        -11   -1    0    0    0    0  0.00000000000E+00  0.00000000000E+00  0.45593999997E+02  0.45594000000E+02  0.51100000000E-03 0.  1.
         11   -1    0    0    0    0 -0.00000000000E+00 -0.00000000000E+00 -0.45593999997E+02  0.45594000000E+02  0.51100000000E-03 0. -1.
    9900012    2    1    2    0    0  0.24215402471E+02  0.35084591089E+02  0.81430288451E+01  0.47787272270E+02  0.20000005588E+02 0.  0.
        -12    1    1    2    0    0 -0.24215402471E+02 -0.35084591089E+02 -0.81430288451E+01  0.43400727730E+02  0.00000000000E+00 0.  1.
         11    1    3    3    0    0 -0.42743450748E+00  0.14145726806E+01 -0.15615729245E+01  0.21499363681E+01  0.51100000000E-03 0. -1.
        -11    1    3    3    0    0  0.12198102133E+02  0.65943024149E+01 -0.11713944110E+01  0.13915842954E+02  0.51100000000E-03 0.  1.
         12    1    3    3    0    0  0.12444734845E+02  0.27075715994E+02  0.10875996181E+02  0.31721492948E+02  0.00000000000E+00 0. -1.
</event>
<event>
 7    1  0.2294216E-010  0.4778727E+02  0.7816164E-02  0.1312668E+00
        -11   -1    0    0    0    0  0.00000000000E+00  0.00000000000E+00  0.45593999997E+02  0.45594000000E+02  0.51100000000E-03 0.  1.
         11   -1    0    0    0    0 -0.00000000000E+00 -0.00000000000E+00 -0.45593999997E+02  0.45594000000E+02  0.51100000000E-03 0. -1.
    9900012    2    1    2    0    0 -0.31705423125E+01 -0.13148307403E+02  0.41239463770E+02  0.47787266156E+02  0.19999977712E+02 0.  0.
        -12    1    1    2    0    0  0.31705423125E+01  0.13148307403E+02 -0.41239463770E+02  0.43400733844E+02  0.00000000000E+00 0.  1.
         11    1    3    3    0    0  0.17465202060E+01  0.30604427449E+01  0.18698042937E+01  0.39890864847E+01  0.51100000000E-03 0. -1.
        -11    1    3    3    0    0 -0.15970157498E+01 -0.49406765563E+01  0.40764808164E+01  0.66013968406E+01  0.51100000000E-03 0.  1.
        -12    1    3    3    0    0 -0.33200467687E+01 -0.11268073591E+02  0.35293178660E+02  0.37196782831E+02  0.00000000000E+00 0.  1.
</event>
<event>
 7    1  0.2294216E-010  0.4778727E+02  0.7816164E-02  0.1312668E+00
        -11   -1    0    0    0    0  0.00000000000E+00  0.00000000000E+00  0.45593999997E+02  0.45594000000E+02  0.51100000000E-03 0.  1.
         11   -1    0    0    0    0 -0.00000000000E+00 -0.00000000000E+00 -0.45593999997E+02  0.45594000000E+02  0.51100000000E-03 0. -1.
    9900012    2    1    2    0    0  0.20139046345E+02  0.38248853902E+02 -0.38816565089E+01  0.47787271092E+02  0.20000000216E+02 0.  0.
        -12    1    1    2    0    0 -0.20139046345E+02 -0.38248853902E+02  0.38816565089E+01  0.43400728908E+02  0.00000000000E+00 0.  1.
         11    1    3    3    0    0  0.44573326663E+01  0.12057205976E+02 -0.57367789352E+01  0.14076741926E+02  0.51100000000E-03 0. -1.
        -11    1    3    3    0    0 -0.15655553171E+01  0.47074620345E+00 -0.19101526140E+01  0.25142093606E+01  0.51100000000E-03 0.  1.
        -12    1    3    3    0    0  0.17247268996E+02  0.25720901723E+02  0.37652750403E+01  0.31196319805E+02  0.00000000000E+00 0.  1.
</event>
<event>
 7    1  0.2294216E-010  0.4778726E+02  0.7816164E-02  0.1312668E+00
        -11   -1    0    0    0    0  0.00000000000E+00  0.00000000000E+00  0.45593999997E+02  0.45594000000E+02  0.51100000000E-03 0.  1.
         11   -1    0    0    0    0 -0.00000000000E+00 -0.00000000000E+00 -0.45593999997E+02  0.45594000000E+02  0.51100000000E-03 0. -1.
    9900012    2    1    2    0    0 -0.13919223155E+02 -0.30549079119E+02 -0.27506966560E+02  0.47787260172E+02  0.19999950428E+02 0.  0.
        -12    1    1    2    0    0  0.13919223155E+02  0.30549079119E+02  0.27506966560E+02  0.43400739828E+02  0.00000000000E+00 0.  1.
         11    1    3    3    0    0 -0.73265730613E+01 -0.64462809478E+01 -0.42683702351E+01  0.10651394069E+02  0.51100000000E-03 0. -1.
        -11    1    3    3    0    0  0.49268424644E+00 -0.43386465593E+01  0.15655006652E+01  0.46386834691E+01  0.51100000000E-03 0.  1.
         12    1    3    3    0    0 -0.70853343406E+01 -0.19764151612E+02 -0.24804096990E+02  0.32497182634E+02  0.00000000000E+00 0. -1.
</event>
<event>
 7    1  0.2294216E-010  0.4778726E+02  0.7816164E-02  0.1312668E+00
        -11   -1    0    0    0    0  0.00000000000E+00  0.00000000000E+00  0.45593999997E+02  0.45594000000E+02  0.51100000000E-03 0.  1.
         11   -1    0    0    0    0 -0.00000000000E+00 -0.00000000000E+00 -0.45593999997E+02  0.45594000000E+02  0.51100000000E-03 0. -1.
    9900012    2    1    2    0    0 -0.62767204319E+01 -0.55573486400E+01 -0.42583362672E+02  0.47787261300E+02  0.19999955571E+02 0.  0.
        -12    1    1    2    0    0  0.62767204319E+01  0.55573486400E+01  0.42583362672E+02  0.43400738700E+02  0.00000000000E+00 0.  1.
         11    1    3    3    0    0  0.19301568412E+01  0.18025314009E+01 -0.16618442204E+01  0.31203127018E+01  0.51100000000E-03 0. -1.
        -11    1    3    3    0    0  0.60723838179E+00  0.36850640151E+01 -0.98023429347E+01  0.10489726523E+02  0.51100000000E-03 0.  1.
         12    1    3    3    0    0 -0.88141156549E+01 -0.11044944056E+02 -0.31119175517E+02  0.34177222076E+02  0.00000000000E+00 0. -1.
</event>
<event>
 7    1  0.2294216E-010  0.4778729E+02  0.7816164E-02  0.1312668E+00
        -11   -1    0    0    0    0  0.00000000000E+00  0.00000000000E+00  0.45593999997E+02  0.45594000000E+02  0.51100000000E-03 0.  1.
         11   -1    0    0    0    0 -0.00000000000E+00 -0.00000000000E+00 -0.45593999997E+02  0.45594000000E+02  0.51100000000E-03 0. -1.
    9900012    2    1    2    0    0  0.52001928256E+01 -0.39921179956E+02  0.16213537156E+02  0.47787292614E+02  0.20000098343E+02 0.  0.
        -12    1    1    2    0    0 -0.52001928256E+01  0.39921179956E+02 -0.16213537156E+02  0.43400707386E+02  0.00000000000E+00 0.  1.
         11    1    3    3    0    0  0.10189454270E+02 -0.10631581618E+02  0.87013092520E+01  0.17104627706E+02  0.51100000000E-03 0. -1.
        -11    1    3    3    0    0 -0.22697705551E+01 -0.10246599812E+02  0.21482140868E+01  0.10712585593E+02  0.51100000000E-03 0.  1.
         12    1    3    3    0    0 -0.27194908889E+01 -0.19042998527E+02  0.53640138173E+01  0.19970079314E+02  0.00000000000E+00 0. -1.
</event>
<event>
 7    1  0.2294216E-010  0.4778727E+02  0.7816164E-02  0.1312668E+00
        -11   -1    0    0    0    0  0.00000000000E+00  0.00000000000E+00  0.45593999997E+02  0.45594000000E+02  0.51100000000E-03 0.  1.
         11   -1    0    0    0    0 -0.00000000000E+00 -0.00000000000E+00 -0.45593999997E+02  0.45594000000E+02  0.51100000000E-03 0. -1.
    9900012    2    1    2    0    0 -0.51310789138E+01  0.13492420634E+02 -0.40929818797E+02  0.47787268991E+02  0.19999990636E+02 0.  0.
        -12    1    1    2    0    0  0.51310789138E+01 -0.13492420634E+02  0.40929818797E+02  0.43400731009E+02  0.00000000000E+00 0.  1.
         11    1    3    3    0    0 -0.83789555821E+01  0.38844309708E+01 -0.23106517748E+02  0.24883867531E+02  0.51100000000E-03 0. -1.
        -11    1    3    3    0    0 -0.18923009946E+01  0.10424676578E+01  0.32763054709E+00  0.21851507747E+01  0.51100000000E-03 0.  1.
        -12    1    3    3    0    0  0.51401776630E+01  0.85655220055E+01 -0.18150931596E+02  0.20718250685E+02  0.00000000000E+00 0.  1.
</event>
<event>
 7    1  0.2294216E-010  0.4778727E+02  0.7816164E-02  0.1312668E+00
        -11   -1    0    0    0    0  0.00000000000E+00  0.00000000000E+00  0.45593999997E+02  0.45594000000E+02  0.51100000000E-03 0.  1.
         11   -1    0    0    0    0 -0.00000000000E+00 -0.00000000000E+00 -0.45593999997E+02  0.45594000000E+02  0.51100000000E-03 0. -1.
    9900012    2    1    2    0    0  0.17975112142E+02 -0.20952864180E+02 -0.33488744372E+02  0.47787272201E+02  0.20000005274E+02 0.  0.
        -12    1    1    2    0    0 -0.17975112142E+02  0.20952864180E+02  0.33488744372E+02  0.43400727799E+02  0.00000000000E+00 0.  1.
         11    1    3    3    0    0  0.37770993379E+01 -0.75781377930E+01 -0.17063020992E+02  0.19048394617E+02  0.51100000000E-03 0. -1.
        -11    1    3    3    0    0  0.74564412882E+01 -0.20257610333E+01 -0.12964411020E+02  0.15092321816E+02  0.51100000000E-03 0.  1.
        -12    1    3    3    0    0  0.67415715156E+01 -0.11348965353E+02 -0.34613123602E+01  0.13646555769E+02  0.00000000000E+00 0.  1.
</event>
<event>
 7    1  0.2294216E-010  0.4778727E+02  0.7816164E-02  0.1312668E+00
        -11   -1    0    0    0    0  0.00000000000E+00  0.00000000000E+00  0.45593999997E+02  0.45594000000E+02  0.51100000000E-03 0.  1.
         11   -1    0    0    0    0 -0.00000000000E+00 -0.00000000000E+00 -0.45593999997E+02  0.45594000000E+02  0.51100000000E-03 0. -1.
    9900012    2    1    2    0    0  0.43804433147E+01 -0.20654913958E+02 -0.37918458921E+02  0.47787270960E+02  0.19999999617E+02 0.  0.
        -12    1    1    2    0    0 -0.43804433147E+01  0.20654913958E+02  0.37918458921E+02  0.43400729040E+02  0.00000000000E+00 0.  1.
         11    1    3    3    0    0  0.50315785014E+01 -0.32905893094E+00 -0.10508588456E+02  0.11655706482E+02  0.51100000000E-03 0. -1.
        -11    1    3    3    0    0  0.30630483877E+01 -0.70250533012E+01 -0.32942098442E+01  0.83417898600E+01  0.51100000000E-03 0.  1.
         12    1    3    3    0    0 -0.37141835744E+01 -0.13300801725E+02 -0.24115660621E+02  0.27789774619E+02  0.00000000000E+00 0. -1.
</event>
<event>
 7    1  0.2294216E-010  0.4778727E+02  0.7816164E-02  0.1312668E+00
        -11   -1    0    0    0    0  0.00000000000E+00  0.00000000000E+00  0.45593999997E+02  0.45594000000E+02  0.51100000000E-03 0.  1.
         11   -1    0    0    0    0 -0.00000000000E+00 -0.00000000000E+00 -0.45593999997E+02  0.45594000000E+02  0.51100000000E-03 0. -1.
    9900012    2    1    2    0    0  0.37815319268E+02 -0.11459833539E+02 -0.17952634206E+02  0.47787271538E+02  0.20000002250E+02 0.  0.
        -12    1    1    2    0    0 -0.37815319268E+02  0.11459833539E+02  0.17952634206E+02  0.43400728462E+02  0.00000000000E+00 0.  1.
         11    1    3    3    0    0 -0.14111457538E+01 -0.50691619967E+00 -0.12638355229E+01  0.19610142432E+01  0.51100000000E-03 0.  1.
        -11    1    3    3    0    0  0.29942370987E+01 -0.38071255202E+01 -0.53001905076E+01  0.71799498750E+01  0.51100000000E-03 0. -1.
        -12    1    3    3    0    0  0.36232227923E+02 -0.71457918192E+01 -0.11388608175E+02  0.38646307420E+02  0.00000000000E+00 0.  1.
</event>
<event>
 7    1  0.2294216E-010  0.4778727E+02  0.7816164E-02  0.1312668E+00
        -11   -1    0    0    0    0  0.00000000000E+00  0.00000000000E+00  0.45593999997E+02  0.45594000000E+02  0.51100000000E-03 0. -1.
         11   -1    0    0    0    0 -0.00000000000E+00 -0.00000000000E+00 -0.45593999997E+02  0.45594000000E+02  0.51100000000E-03 0.  1.
    9900012    2    1    2    0    0 -0.25191848759E+02  0.40747753346E+01  0.35105414556E+02  0.47787272252E+02  0.20000005506E+02 0.  0.
        -12    1    1    2    0    0  0.25191848759E+02 -0.40747753346E+01 -0.35105414556E+02  0.43400727748E+02  0.00000000000E+00 0.  1.
         11    1    3    3    0    0  0.13771708538E+01  0.28858807250E+00  0.47204974066E+01  0.49257465082E+01  0.51100000000E-03 0. -1.
        -11    1    3    3    0    0 -0.12103075978E+02  0.86348300656E+01  0.13206501459E+02  0.19886086076E+02  0.51100000000E-03 0.  1.
         12    1    3    3    0    0 -0.14465943635E+02 -0.48486428036E+01  0.17178415690E+02  0.22975439668E+02  0.00000000000E+00 0. -1.
</event>
<event>
 7    1  0.2294216E-010  0.4778727E+02  0.7816164E-02  0.1312668E+00
        -11   -1    0    0    0    0  0.00000000000E+00  0.00000000000E+00  0.45593999997E+02  0.45594000000E+02  0.51100000000E-03 0.  1.
         11   -1    0    0    0    0 -0.00000000000E+00 -0.00000000000E+00 -0.45593999997E+02  0.45594000000E+02  0.51100000000E-03 0. -1.
    9900012    2    1    2    0    0 -0.33703497232E+02 -0.14058359480E+02 -0.23453356345E+02  0.47787272808E+02  0.20000008041E+02 0.  0.
        -12    1    1    2    0    0  0.33703497232E+02  0.14058359480E+02  0.23453356345E+02  0.43400727192E+02  0.00000000000E+00 0.  1.
         11    1    3    3    0    0 -0.26573275037E+02 -0.11464256671E+02 -0.17554958551E+02  0.33848850751E+02  0.51100000000E-03 0. -1.
        -11    1    3    3    0    0 -0.31644289151E+01 -0.56362415971E+01 -0.61659263079E+01  0.89330553113E+01  0.51100000000E-03 0.  1.
        -12    1    3    3    0    0 -0.39657932806E+01  0.30421387878E+01  0.26752851446E+00  0.50053667453E+01  0.00000000000E+00 0.  1.
</event>
<event>
 7    1  0.2294216E-010  0.4778727E+02  0.7816164E-02  0.1312668E+00
        -11   -1    0    0    0    0  0.00000000000E+00  0.00000000000E+00  0.45593999997E+02  0.45594000000E+02  0.51100000000E-03 0.  1.
         11   -1    0    0    0    0 -0.00000000000E+00 -0.00000000000E+00 -0.45593999997E+02  0.45594000000E+02  0.51100000000E-03 0. -1.
    9900012    2    1    2    0    0 -0.14606678951E+02 -0.50063291461E+01 -0.40561129898E+02  0.47787266594E+02  0.19999979711E+02 0.  0.
        -12    1    1    2    0    0  0.14606678951E+02  0.50063291461E+01  0.40561129898E+02  0.43400733406E+02  0.00000000000E+00 0.  1.
         11    1    3    3    0    0 -0.33008391508E+01 -0.78996895053E+00 -0.10440630705E+02  0.10978449791E+02  0.51100000000E-03 0. -1.
        -11    1    3    3    0    0  0.96448051362E+00  0.68279656046E+00  0.18616616193E+01  0.22050437750E+01  0.51100000000E-03 0.  1.
        -12    1    3    3    0    0 -0.12270320314E+02 -0.48991567560E+01 -0.31982160813E+02  0.34603773028E+02  0.00000000000E+00 0.  1.
</event>
<event>
 7    1  0.2294216E-010  0.4778728E+02  0.7816164E-02  0.1312668E+00
        -11   -1    0    0    0    0  0.00000000000E+00  0.00000000000E+00  0.45593999997E+02  0.45594000000E+02  0.51100000000E-03 0.  1.
         11   -1    0    0    0    0 -0.00000000000E+00 -0.00000000000E+00 -0.45593999997E+02  0.45594000000E+02  0.51100000000E-03 0. -1.
    9900012    2    1    2    0    0  0.24458174590E+02  0.18777201422E+02 -0.30542384337E+02  0.47787276060E+02  0.20000022868E+02 0.  0.
        -12    1    1    2    0    0 -0.24458174590E+02 -0.18777201422E+02  0.30542384337E+02  0.43400723940E+02  0.00000000000E+00 0.  1.
         11    1    3    3    0    0  0.44877717303E+01  0.10417741283E+02 -0.43419388129E+01  0.12145857790E+02  0.51100000000E-03 0.  1.
        -11    1    3    3    0    0  0.27264097328E+01  0.62116388793E+01 -0.71483946581E+01  0.98548117205E+01  0.51100000000E-03 0. -1.
        -12    1    3    3    0    0  0.17243993127E+02  0.21478212599E+01 -0.19052050866E+02  0.25786606550E+02  0.00000000000E+00 0.  1.
</event>
<event>
 7    1  0.2294216E-010  0.4778727E+02  0.7816164E-02  0.1312668E+00
        -11   -1    0    0    0    0  0.00000000000E+00  0.00000000000E+00  0.45593999997E+02  0.45594000000E+02  0.51100000000E-03 0.  1.
         11   -1    0    0    0    0 -0.00000000000E+00 -0.00000000000E+00 -0.45593999997E+02  0.45594000000E+02  0.51100000000E-03 0. -1.
    9900012    2    1    2    0    0 -0.62397605853E+00  0.24545799264E+01 -0.43326765704E+02  0.47787274948E+02  0.20000017796E+02 0.  0.
        -12    1    1    2    0    0  0.62397605853E+00 -0.24545799264E+01  0.43326765704E+02  0.43400725052E+02  0.00000000000E+00 0.  1.
         11    1    3    3    0    0  0.83847371806E-01  0.70610159108E+01 -0.20860044917E+02  0.22022861991E+02  0.51100000000E-03 0. -1.
        -11    1    3    3    0    0 -0.19855028816E+01 -0.29753621648E+01 -0.23269188153E+02  0.23542517266E+02  0.51100000000E-03 0.  1.
        -12    1    3    3    0    0  0.12776794513E+01 -0.16310738195E+01  0.80246736564E+00  0.22218956902E+01  0.00000000000E+00 0.  1.
</event>
<event>
 7    1  0.2294216E-010  0.4778727E+02  0.7816164E-02  0.1312668E+00
        -11   -1    0    0    0    0  0.00000000000E+00  0.00000000000E+00  0.45593999997E+02  0.45594000000E+02  0.51100000000E-03 0.  1.
         11   -1    0    0    0    0 -0.00000000000E+00 -0.00000000000E+00 -0.45593999997E+02  0.45594000000E+02  0.51100000000E-03 0. -1.
    9900012    2    1    2    0    0 -0.39967614642E+02  0.36242196616E+01 -0.16525077748E+02  0.47787269788E+02  0.19999994272E+02 0.  0.
        -12    1    1    2    0    0  0.39967614642E+02 -0.36242196616E+01  0.16525077748E+02  0.43400730212E+02  0.00000000000E+00 0.  1.
         11    1    3    3    0    0 -0.27880422066E+02  0.43197764099E+01 -0.13670077536E+02  0.31350429390E+02  0.51100000000E-03 0. -1.
        -11    1    3    3    0    0 -0.58158752456E+01  0.49336341448E+01 -0.24083910611E+01  0.79978433663E+01  0.51100000000E-03 0.  1.
         12    1    3    3    0    0 -0.62713173305E+01 -0.56291908931E+01 -0.44660915067E+00  0.84389970319E+01  0.00000000000E+00 0. -1.
</event>
<event>
 7    1  0.2294216E-010  0.4778728E+02  0.7816164E-02  0.1312668E+00
        -11   -1    0    0    0    0  0.00000000000E+00  0.00000000000E+00  0.45593999997E+02  0.45594000000E+02  0.51100000000E-03 0. -1.
         11   -1    0    0    0    0 -0.00000000000E+00 -0.00000000000E+00 -0.45593999997E+02  0.45594000000E+02  0.51100000000E-03 0.  1.
    9900012    2    1    2    0    0  0.37129829803E+02  0.17341129218E+02  0.14292777582E+02  0.47787279790E+02  0.20000039875E+02 0.  0.
        -12    1    1    2    0    0 -0.37129829803E+02 -0.17341129218E+02 -0.14292777582E+02  0.43400720210E+02  0.00000000000E+00 0.  1.
         11    1    3    3    0    0  0.21865068005E+02  0.64154805947E+01  0.58632391574E+01  0.23529070611E+02  0.51100000000E-03 0. -1.
        -11    1    3    3    0    0  0.11417154329E+02  0.40903380158E+00  0.55194375233E+01  0.12687904179E+02  0.51100000000E-03 0.  1.
        -12    1    3    3    0    0  0.38476074686E+01  0.10516614822E+02  0.29101009008E+01  0.11570305000E+02  0.00000000000E+00 0.  1.
</event>
<event>
 7    1  0.2294216E-010  0.4778727E+02  0.7816164E-02  0.1312668E+00
        -11   -1    0    0    0    0  0.00000000000E+00  0.00000000000E+00  0.45593999997E+02  0.45594000000E+02  0.51100000000E-03 0.  1.
         11   -1    0    0    0    0 -0.00000000000E+00 -0.00000000000E+00 -0.45593999997E+02  0.45594000000E+02  0.51100000000E-03 0. -1.
    9900012    2    1    2    0    0  0.13706710713E+02  0.22808480213E+02 -0.34285900904E+02  0.47787266262E+02  0.19999978195E+02 0.  0.
        -12    1    1    2    0    0 -0.13706710713E+02 -0.22808480213E+02  0.34285900904E+02  0.43400733738E+02  0.00000000000E+00 0.  1.
         11    1    3    3    0    0 -0.24706437911E+00  0.59307465175E+01 -0.18650303678E+02  0.19572138937E+02  0.51100000000E-03 0. -1.
        -11    1    3    3    0    0  0.41439422509E+01  0.30218275380E+01 -0.82209751569E+01  0.96895888375E+01  0.51100000000E-03 0.  1.
        -12    1    3    3    0    0  0.98098328408E+01  0.13855906157E+02 -0.74146220700E+01  0.18525538487E+02  0.00000000000E+00 0.  1.
</event>
<event>
 7    1  0.2294216E-010  0.4778727E+02  0.7816164E-02  0.1312668E+00
        -11   -1    0    0    0    0  0.00000000000E+00  0.00000000000E+00  0.45593999997E+02  0.45594000000E+02  0.51100000000E-03 0.  1.
         11   -1    0    0    0    0 -0.00000000000E+00 -0.00000000000E+00 -0.45593999997E+02  0.45594000000E+02  0.51100000000E-03 0. -1.
    9900012    2    1    2    0    0 -0.15080717927E+02 -0.30896552425E+02 -0.26487700187E+02  0.47787271134E+02  0.20000000409E+02 0.  0.
        -12    1    1    2    0    0  0.15080717927E+02  0.30896552425E+02  0.26487700187E+02  0.43400728866E+02  0.00000000000E+00 0.  1.
         11    1    3    3    0    0 -0.29826923474E+01 -0.10050645766E+02 -0.10387319235E+02  0.14758331040E+02  0.51100000000E-03 0. -1.
        -11    1    3    3    0    0 -0.14969231490E+02 -0.11031750665E+02 -0.10949294610E+02  0.21579260108E+02  0.51100000000E-03 0.  1.
         12    1    3    3    0    0  0.28712059103E+01 -0.98141559944E+01 -0.51510863420E+01  0.11449679985E+02  0.00000000000E+00 0. -1.
</event>
<event>
 7    1  0.2294216E-010  0.4778726E+02  0.7816164E-02  0.1312668E+00
        -11   -1    0    0    0    0  0.00000000000E+00  0.00000000000E+00  0.45593999997E+02  0.45594000000E+02  0.51100000000E-03 0.  1.
         11   -1    0    0    0    0 -0.00000000000E+00 -0.00000000000E+00 -0.45593999997E+02  0.45594000000E+02  0.51100000000E-03 0. -1.
    9900012    2    1    2    0    0 -0.38631950414E+02 -0.37739128342E+01 -0.19415300714E+02  0.47787263685E+02  0.19999966447E+02 0.  0.
        -12    1    1    2    0    0  0.38631950414E+02  0.37739128342E+01  0.19415300714E+02  0.43400736315E+02  0.00000000000E+00 0.  1.
         11    1    3    3    0    0 -0.58648505470E+01  0.47734385557E+01 -0.40643499731E+01  0.85849361412E+01  0.51100000000E-03 0. -1.
        -11    1    3    3    0    0 -0.55735952360E+00 -0.26160866237E+01 -0.34284819826E+01  0.43484534983E+01  0.51100000000E-03 0.  1.
         12    1    3    3    0    0 -0.32209740343E+02 -0.59312647662E+01 -0.11922468758E+02  0.34853874046E+02  0.00000000000E+00 0. -1.
</event>
<event>
 7    1  0.2294216E-010  0.4778726E+02  0.7816164E-02  0.1312668E+00
        -11   -1    0    0    0    0  0.00000000000E+00  0.00000000000E+00  0.45593999997E+02  0.45594000000E+02  0.51100000000E-03 0.  1.
         11   -1    0    0    0    0 -0.00000000000E+00 -0.00000000000E+00 -0.45593999997E+02  0.45594000000E+02  0.51100000000E-03 0. -1.
    9900012    2    1    2    0    0 -0.10183554571E+01 -0.40462076526E+02 -0.15665498246E+02  0.47787256689E+02  0.19999934549E+02 0.  0.
        -12    1    1    2    0    0  0.10183554571E+01  0.40462076526E+02  0.15665498246E+02  0.43400743311E+02  0.00000000000E+00 0.  1.
         11    1    3    3    0    0  0.34163736684E+00 -0.15082819635E+02  0.13086521804E+01  0.15143339626E+02  0.51100000000E-03 0. -1.
        -11    1    3    3    0    0  0.41289195909E+01 -0.38953002207E+01 -0.28285852838E+01  0.63421002646E+01  0.51100000000E-03 0.  1.
         12    1    3    3    0    0 -0.54889124149E+01 -0.21483956670E+02 -0.14145565143E+02  0.26301816799E+02  0.00000000000E+00 0. -1.
</event>
<event>
 7    1  0.2294216E-010  0.4778727E+02  0.7816164E-02  0.1312668E+00
        -11   -1    0    0    0    0  0.00000000000E+00  0.00000000000E+00  0.45593999997E+02  0.45594000000E+02  0.51100000000E-03 0.  1.
         11   -1    0    0    0    0 -0.00000000000E+00 -0.00000000000E+00 -0.45593999997E+02  0.45594000000E+02  0.51100000000E-03 0. -1.
    9900012    2    1    2    0    0  0.22818089698E+02 -0.21577561803E+02 -0.29956086122E+02  0.47787268594E+02  0.19999988827E+02 0.  0.
        -12    1    1    2    0    0 -0.22818089698E+02  0.21577561803E+02  0.29956086122E+02  0.43400731406E+02  0.00000000000E+00 0.  1.
         11    1    3    3    0    0  0.11178759140E+02 -0.17137932275E+02 -0.10060365356E+02  0.22800972127E+02  0.51100000000E-03 0. -1.
        -11    1    3    3    0    0  0.55404860094E+01  0.19934476493E+01 -0.53690948034E+01  0.79685631089E+01  0.51100000000E-03 0.  1.
        -12    1    3    3    0    0  0.60988445483E+01 -0.64330771773E+01 -0.14526625963E+02  0.17017733358E+02  0.00000000000E+00 0.  1.
</event>
<event>
 7    1  0.2294216E-010  0.4778728E+02  0.7816164E-02  0.1312668E+00
        -11   -1    0    0    0    0  0.00000000000E+00  0.00000000000E+00  0.45593999997E+02  0.45594000000E+02  0.51100000000E-03 0.  1.
         11   -1    0    0    0    0 -0.00000000000E+00 -0.00000000000E+00 -0.45593999997E+02  0.45594000000E+02  0.51100000000E-03 0. -1.
    9900012    2    1    2    0    0 -0.59300948993E+01  0.42539253875E+02 -0.62344269779E+01  0.47787283122E+02  0.20000055068E+02 0.  0.
        -12    1    1    2    0    0  0.59300948993E+01 -0.42539253875E+02  0.62344269779E+01  0.43400716878E+02  0.00000000000E+00 0.  1.
         11    1    3    3    0    0 -0.75366768433E+01  0.92279088982E+01 -0.56479543323E+01  0.13185415764E+02  0.51100000000E-03 0. -1.
        -11    1    3    3    0    0 -0.39873534006E+00  0.20546955600E+01 -0.24539762759E+01  0.32253315394E+01  0.51100000000E-03 0.  1.
        -12    1    3    3    0    0  0.20053172840E+01  0.31256649417E+02  0.18675036302E+01  0.31376535819E+02  0.00000000000E+00 0.  1.
</event>
<event>
 7    1  0.2294216E-010  0.4778726E+02  0.7816164E-02  0.1312668E+00
        -11   -1    0    0    0    0  0.00000000000E+00  0.00000000000E+00  0.45593999997E+02  0.45594000000E+02  0.51100000000E-03 0.  1.
         11   -1    0    0    0    0 -0.00000000000E+00 -0.00000000000E+00 -0.45593999997E+02  0.45594000000E+02  0.51100000000E-03 0. -1.
    9900012    2    1    2    0    0  0.35031931206E+02 -0.20995163046E+02 -0.14683017713E+02  0.47787261705E+02  0.19999957420E+02 0.  0.
        -12    1    1    2    0    0 -0.35031931206E+02  0.20995163046E+02  0.14683017713E+02  0.43400738295E+02  0.00000000000E+00 0.  1.
         11    1    3    3    0    0  0.16240070478E+02 -0.94306683421E+01 -0.84933870741E+01  0.20611041186E+02  0.51100000000E-03 0. -1.
        -11    1    3    3    0    0  0.14890630619E+02 -0.70195578325E+00 -0.30667152462E+01  0.15219341800E+02  0.51100000000E-03 0.  1.
        -12    1    3    3    0    0  0.39012301087E+01 -0.10862538921E+02 -0.31229153924E+01  0.11956878720E+02  0.00000000000E+00 0.  1.
</event>
<event>
 7    1  0.2294216E-010  0.4778728E+02  0.7816164E-02  0.1312668E+00
        -11   -1    0    0    0    0  0.00000000000E+00  0.00000000000E+00  0.45593999997E+02  0.45594000000E+02  0.51100000000E-03 0. -1.
         11   -1    0    0    0    0 -0.00000000000E+00 -0.00000000000E+00 -0.45593999997E+02  0.45594000000E+02  0.51100000000E-03 0.  1.
    9900012    2    1    2    0    0  0.39803625036E+02 -0.16134915001E+02  0.62416980064E+01  0.47787276019E+02  0.20000022680E+02 0.  0.
        -12    1    1    2    0    0 -0.39803625036E+02  0.16134915001E+02 -0.62416980064E+01  0.43400723981E+02  0.00000000000E+00 0.  1.
         11    1    3    3    0    0  0.69859879702E+01 -0.61565550971E+01 -0.27018310714E+01  0.96957253459E+01  0.51100000000E-03 0. -1.
        -11    1    3    3    0    0  0.14972661717E+02 -0.16549995910E+01 -0.25704940968E+01  0.15281592283E+02  0.51100000000E-03 0.  1.
         12    1    3    3    0    0  0.17844975349E+02 -0.83233603125E+01  0.11514023174E+02  0.22809958390E+02  0.00000000000E+00 0. -1.
</event>
<event>
 7    1  0.2294216E-010  0.4778727E+02  0.7816164E-02  0.1312668E+00
        -11   -1    0    0    0    0  0.00000000000E+00  0.00000000000E+00  0.45593999997E+02  0.45594000000E+02  0.51100000000E-03 0.  1.
         11   -1    0    0    0    0 -0.00000000000E+00 -0.00000000000E+00 -0.45593999997E+02  0.45594000000E+02  0.51100000000E-03 0. -1.
    9900012    2    1    2    0    0 -0.34704122151E+02 -0.24893797679E+02  0.77166239420E+01  0.47787267953E+02  0.19999985903E+02 0.  0.
        -12    1    1    2    0    0  0.34704122151E+02  0.24893797679E+02 -0.77166239420E+01  0.43400732047E+02  0.00000000000E+00 0.  1.
         11    1    3    3    0    0 -0.74377117299E+01 -0.53772856646E+01 -0.14948806761E+01  0.92988937725E+01  0.51100000000E-03 0. -1.
        -11    1    3    3    0    0 -0.19500258752E+02 -0.14240999873E+02 -0.15630351833E+01  0.24197298362E+02  0.51100000000E-03 0.  1.
        -12    1    3    3    0    0 -0.77661516700E+01 -0.52755121418E+01  0.10774539801E+02  0.14291075819E+02  0.00000000000E+00 0.  1.
</event>
<event>
 7    1  0.2294216E-010  0.4778728E+02  0.7816164E-02  0.1312668E+00
        -11   -1    0    0    0    0  0.00000000000E+00  0.00000000000E+00  0.45593999997E+02  0.45594000000E+02  0.51100000000E-03 0.  1.
         11   -1    0    0    0    0 -0.00000000000E+00 -0.00000000000E+00 -0.45593999997E+02  0.45594000000E+02  0.51100000000E-03 0. -1.
    9900012    2    1    2    0    0 -0.17285851178E+01 -0.22588440681E+01 -0.43307418618E+02  0.47787275462E+02  0.20000020143E+02 0.  0.
        -12    1    1    2    0    0  0.17285851178E+01  0.22588440681E+01  0.43307418618E+02  0.43400724538E+02  0.00000000000E+00 0.  1.
         11    1    3    3    0    0  0.45681217132E+00 -0.18022659729E+00 -0.18989010528E+01  0.19613731047E+01  0.51100000000E-03 0. -1.
        -11    1    3    3    0    0 -0.21217005721E+01 -0.37250413335E+01  0.96699171946E-01  0.42879945481E+01  0.51100000000E-03 0.  1.
        -12    1    3    3    0    0 -0.63696717111E-01  0.16464238627E+01 -0.41505216737E+02  0.41537907810E+02  0.00000000000E+00 0.  1.
</event>
<event>
 7    1  0.2294216E-010  0.4778727E+02  0.7816164E-02  0.1312668E+00
        -11   -1    0    0    0    0  0.00000000000E+00  0.00000000000E+00  0.45593999997E+02  0.45594000000E+02  0.51100000000E-03 0.  1.
         11   -1    0    0    0    0 -0.00000000000E+00 -0.00000000000E+00 -0.45593999997E+02  0.45594000000E+02  0.51100000000E-03 0. -1.
    9900012    2    1    2    0    0 -0.14576774083E+02 -0.16147835097E+01 -0.40847689846E+02  0.47787266893E+02  0.19999981074E+02 0.  0.
        -12    1    1    2    0    0  0.14576774083E+02  0.16147835097E+01  0.40847689846E+02  0.43400733107E+02  0.00000000000E+00 0.  1.
         11    1    3    3    0    0 -0.40251673035E+00  0.69992359526E+01 -0.19562385839E+02  0.20780718553E+02  0.51100000000E-03 0. -1.
        -11    1    3    3    0    0 -0.42163844477E+01 -0.22745255607E+01 -0.68514455308E+01  0.83602434450E+01  0.51100000000E-03 0.  1.
        -12    1    3    3    0    0 -0.99578729048E+01 -0.63394939015E+01 -0.14433858477E+02  0.18646304895E+02  0.00000000000E+00 0.  1.
</event>
<event>
 7    1  0.2294216E-010  0.4778726E+02  0.7816164E-02  0.1312668E+00
        -11   -1    0    0    0    0  0.00000000000E+00  0.00000000000E+00  0.45593999997E+02  0.45594000000E+02  0.51100000000E-03 0. -1.
         11   -1    0    0    0    0 -0.00000000000E+00 -0.00000000000E+00 -0.45593999997E+02  0.45594000000E+02  0.51100000000E-03 0.  1.
    9900012    2    1    2    0    0 -0.12242099542E+02 -0.30945348570E+02  0.27859303004E+02  0.47787258495E+02  0.19999942783E+02 0.  0.
        -12    1    1    2    0    0  0.12242099542E+02  0.30945348570E+02 -0.27859303004E+02  0.43400741505E+02  0.00000000000E+00 0.  1.
         11    1    3    3    0    0  0.20387756473E+01 -0.12315309641E+01  0.16466874747E-01  0.23819206692E+01  0.51100000000E-03 0. -1.
        -11    1    3    3    0    0 -0.24997949177E+01 -0.11282780947E+02  0.23125228919E+01  0.11785494598E+02  0.51100000000E-03 0.  1.
         12    1    3    3    0    0 -0.11781080272E+02 -0.18431036659E+02  0.25530313237E+02  0.33619843228E+02  0.00000000000E+00 0. -1.
</event>
<event>
 7    1  0.2294216E-010  0.4778727E+02  0.7816164E-02  0.1312668E+00
        -11   -1    0    0    0    0  0.00000000000E+00  0.00000000000E+00  0.45593999997E+02  0.45594000000E+02  0.51100000000E-03 0. -1.
         11   -1    0    0    0    0 -0.00000000000E+00 -0.00000000000E+00 -0.45593999997E+02  0.45594000000E+02  0.51100000000E-03 0.  1.
    9900012    2    1    2    0    0  0.17111633638E+02  0.22082430139E+02  0.33214175694E+02  0.47787271969E+02  0.20000004213E+02 0.  0.
        -12    1    1    2    0    0 -0.17111633638E+02 -0.22082430139E+02 -0.33214175694E+02  0.43400728031E+02  0.00000000000E+00 0.  1.
         11    1    3    3    0    0  0.13432151103E+02  0.15195400978E+02  0.20157086345E+02  0.28594248099E+02  0.51100000000E-03 0. -1.
        -11    1    3    3    0    0  0.72313310617E+01  0.35296561482E+01  0.11553343950E+02  0.14079431031E+02  0.51100000000E-03 0.  1.
        -12    1    3    3    0    0 -0.35518485266E+01  0.33573730126E+01  0.15037453988E+01  0.51135928393E+01  0.00000000000E+00 0.  1.
</event>
<event>
 7    1  0.2294216E-010  0.4778727E+02  0.7816164E-02  0.1312668E+00
        -11   -1    0    0    0    0  0.00000000000E+00  0.00000000000E+00  0.45593999997E+02  0.45594000000E+02  0.51100000000E-03 0.  1.
         11   -1    0    0    0    0 -0.00000000000E+00 -0.00000000000E+00 -0.45593999997E+02  0.45594000000E+02  0.51100000000E-03 0. -1.
    9900012    2    1    2    0    0 -0.12474925493E+02  0.35451111309E+02 -0.21707563539E+02  0.47787269892E+02  0.19999994745E+02 0.  0.
        -12    1    1    2    0    0  0.12474925493E+02 -0.35451111309E+02  0.21707563539E+02  0.43400730108E+02  0.00000000000E+00 0.  1.
         11    1    3    3    0    0 -0.26016448132E+01  0.15713831451E+01 -0.32690723308E+01  0.44637019264E+01  0.51100000000E-03 0. -1.
        -11    1    3    3    0    0  0.38837901036E+00 -0.94962432235E+00  0.15628366960E+01  0.18695142173E+01  0.51100000000E-03 0.  1.
         12    1    3    3    0    0 -0.10261659690E+02  0.34829352486E+02 -0.20001327905E+02  0.41454053748E+02  0.00000000000E+00 0. -1.
</event>
<event>
 7    1  0.2294216E-010  0.4778728E+02  0.7816164E-02  0.1312668E+00
        -11   -1    0    0    0    0  0.00000000000E+00  0.00000000000E+00  0.45593999997E+02  0.45594000000E+02  0.51100000000E-03 0.  1.
         11   -1    0    0    0    0 -0.00000000000E+00 -0.00000000000E+00 -0.45593999997E+02  0.45594000000E+02  0.51100000000E-03 0. -1.
    9900012    2    1    2    0    0 -0.31528470898E+02 -0.17110035742E+02  0.24430001518E+02  0.47787276799E+02  0.20000026235E+02 0.  0.
        -12    1    1    2    0    0  0.31528470898E+02  0.17110035742E+02 -0.24430001518E+02  0.43400723201E+02  0.00000000000E+00 0.  1.
         11    1    3    3    0    0 -0.95510273663E+01 -0.81732884004E+01  0.13871777271E+02  0.18720335786E+02  0.51100000000E-03 0. -1.
        -11    1    3    3    0    0 -0.16406991348E+01  0.23938134726E+01  0.38849479542E+01  0.48492326672E+01  0.51100000000E-03 0.  1.
        -12    1    3    3    0    0 -0.20336744397E+02 -0.11330560815E+02  0.66732762929E+01  0.24217708345E+02  0.00000000000E+00 0.  1.
</event>
<event>
 7    1  0.2294216E-010  0.4778727E+02  0.7816164E-02  0.1312668E+00
        -11   -1    0    0    0    0  0.00000000000E+00  0.00000000000E+00  0.45593999997E+02  0.45594000000E+02  0.51100000000E-03 0.  1.
         11   -1    0    0    0    0 -0.00000000000E+00 -0.00000000000E+00 -0.45593999997E+02  0.45594000000E+02  0.51100000000E-03 0. -1.
    9900012    2    1    2    0    0 -0.41997900774E+02  0.61069262646E+01 -0.90832320902E+01  0.47787270478E+02  0.19999997416E+02 0.  0.
        -12    1    1    2    0    0  0.41997900774E+02 -0.61069262646E+01  0.90832320902E+01  0.43400729522E+02  0.00000000000E+00 0.  1.
         11    1    3    3    0    0 -0.10721792346E+02 -0.27146929183E+01 -0.39693313063E+01  0.11750828908E+02  0.51100000000E-03 0.  1.
        -11    1    3    3    0    0 -0.19717334518E+02  0.16793005737E+01  0.32896440427E+01  0.20060286366E+02  0.51100000000E-03 0. -1.
        -12    1    3    3    0    0 -0.11558773911E+02  0.71423186091E+01 -0.84035448266E+01  0.15976155204E+02  0.00000000000E+00 0.  1.
</event>
<event>
 7    1  0.2294216E-010  0.4778727E+02  0.7816164E-02  0.1312668E+00
        -11   -1    0    0    0    0  0.00000000000E+00  0.00000000000E+00  0.45593999997E+02  0.45594000000E+02  0.51100000000E-03 0.  1.
         11   -1    0    0    0    0 -0.00000000000E+00 -0.00000000000E+00 -0.45593999997E+02  0.45594000000E+02  0.51100000000E-03 0. -1.
    9900012    2    1    2    0    0  0.11718000548E+02 -0.73868147214E-02 -0.41788895846E+02  0.47787269505E+02  0.19999992982E+02 0.  0.
        -12    1    1    2    0    0 -0.11718000548E+02  0.73868147214E-02  0.41788895846E+02  0.43400730495E+02  0.00000000000E+00 0.  1.
         11    1    3    3    0    0  0.33439783283E+01 -0.14304145050E+01 -0.25758942467E+02  0.26014445871E+02  0.51100000000E-03 0. -1.
        -11    1    3    3    0    0  0.30593306730E+01 -0.36826407254E+01 -0.12911244430E+02  0.13770315170E+02  0.51100000000E-03 0.  1.
        -12    1    3    3    0    0  0.53146915469E+01  0.51056684157E+01 -0.31187089497E+01  0.80025084644E+01  0.00000000000E+00 0.  1.
</event>
<event>
 7    1  0.2294216E-010  0.4778727E+02  0.7816164E-02  0.1312668E+00
        -11   -1    0    0    0    0  0.00000000000E+00  0.00000000000E+00  0.45593999997E+02  0.45594000000E+02  0.51100000000E-03 0.  1.
         11   -1    0    0    0    0 -0.00000000000E+00 -0.00000000000E+00 -0.45593999997E+02  0.45594000000E+02  0.51100000000E-03 0. -1.
    9900012    2    1    2    0    0  0.41087152077E+02  0.12922291716E+02 -0.53369971684E+01  0.47787271576E+02  0.20000002422E+02 0.  0.
        -12    1    1    2    0    0 -0.41087152077E+02 -0.12922291716E+02  0.53369971684E+01  0.43400728424E+02  0.00000000000E+00 0.  1.
         11    1    3    3    0    0  0.28937323736E+02  0.62882408922E+01 -0.79335001755E+01  0.30656991108E+02  0.51100000000E-03 0. -1.
        -11    1    3    3    0    0  0.67944023620E+01 -0.17062633026E+01  0.71695900744E+00  0.70419648106E+01  0.51100000000E-03 0.  1.
        -12    1    3    3    0    0  0.53554259793E+01  0.83403141268E+01  0.18795439996E+01  0.10088315657E+02  0.00000000000E+00 0.  1.
</event>
<event>
 7    1  0.2294216E-010  0.4778727E+02  0.7816164E-02  0.1312668E+00
        -11   -1    0    0    0    0  0.00000000000E+00  0.00000000000E+00  0.45593999997E+02  0.45594000000E+02  0.51100000000E-03 0.  1.
         11   -1    0    0    0    0 -0.00000000000E+00 -0.00000000000E+00 -0.45593999997E+02  0.45594000000E+02  0.51100000000E-03 0. -1.
    9900012    2    1    2    0    0  0.13910066881E+02  0.24052037771E+02 -0.33341154801E+02  0.47787273220E+02  0.20000009918E+02 0.  0.
        -12    1    1    2    0    0 -0.13910066881E+02 -0.24052037771E+02  0.33341154801E+02  0.43400726780E+02  0.00000000000E+00 0.  1.
         11    1    3    3    0    0  0.58731870681E+01  0.81719372320E+01 -0.17989713076E+02  0.20613215695E+02  0.51100000000E-03 0. -1.
        -11    1    3    3    0    0  0.24094118661E+01  0.62217481862E+01 -0.14502527249E+02  0.15963668529E+02  0.51100000000E-03 0.  1.
        -12    1    3    3    0    0  0.56274679465E+01  0.96583523531E+01 -0.84891447667E+00  0.11210388997E+02  0.00000000000E+00 0.  1.
</event>
<event>
 7    1  0.2294216E-010  0.4778727E+02  0.7816164E-02  0.1312668E+00
        -11   -1    0    0    0    0  0.00000000000E+00  0.00000000000E+00  0.45593999997E+02  0.45594000000E+02  0.51100000000E-03 0.  1.
         11   -1    0    0    0    0 -0.00000000000E+00 -0.00000000000E+00 -0.45593999997E+02  0.45594000000E+02  0.51100000000E-03 0. -1.
    9900012    2    1    2    0    0 -0.40637097865E+02  0.15207763711E+02  0.98688366457E+00  0.47787265682E+02  0.19999975550E+02 0.  0.
        -12    1    1    2    0    0  0.40637097865E+02 -0.15207763711E+02 -0.98688366457E+00  0.43400734318E+02  0.00000000000E+00 0.  1.
         11    1    3    3    0    0 -0.38472994602E+02  0.14350616933E+02  0.32528382901E+01  0.41190927122E+02  0.51100000000E-03 0. -1.
        -11    1    3    3    0    0 -0.28026997439E+01  0.27691173762E+01 -0.60855516166E+00  0.39866623312E+01  0.51100000000E-03 0.  1.
        -12    1    3    3    0    0  0.63859648038E+00 -0.19119705988E+01 -0.16573994639E+01  0.26096762286E+01  0.00000000000E+00 0.  1.
</event>
<event>
 7    1  0.2294216E-010  0.4778727E+02  0.7816164E-02  0.1312668E+00
        -11   -1    0    0    0    0  0.00000000000E+00  0.00000000000E+00  0.45593999997E+02  0.45594000000E+02  0.51100000000E-03 0. -1.
         11   -1    0    0    0    0 -0.00000000000E+00 -0.00000000000E+00 -0.45593999997E+02  0.45594000000E+02  0.51100000000E-03 0.  1.
    9900012    2    1    2    0    0 -0.11031030570E+02  0.39392450706E+02  0.14497393687E+02  0.47787271529E+02  0.20000002211E+02 0.  0.
        -12    1    1    2    0    0  0.11031030570E+02 -0.39392450706E+02 -0.14497393687E+02  0.43400728471E+02  0.00000000000E+00 0.  1.
         11    1    3    3    0    0 -0.67088147864E+01  0.90396975493E+01 -0.87016440012E+00  0.11290771186E+02  0.51100000000E-03 0. -1.
        -11    1    3    3    0    0 -0.83096251908E+01  0.21100373756E+02  0.81283359480E+01  0.24090360915E+02  0.51100000000E-03 0.  1.
        -12    1    3    3    0    0  0.39874094069E+01  0.92523794005E+01  0.72392221387E+01  0.12406139429E+02  0.00000000000E+00 0.  1.
</event>
<event>
 7    1  0.2294216E-010  0.4778727E+02  0.7816164E-02  0.1312668E+00
        -11   -1    0    0    0    0  0.00000000000E+00  0.00000000000E+00  0.45593999997E+02  0.45594000000E+02  0.51100000000E-03 0. -1.
         11   -1    0    0    0    0 -0.00000000000E+00 -0.00000000000E+00 -0.45593999997E+02  0.45594000000E+02  0.51100000000E-03 0.  1.
    9900012    2    1    2    0    0 -0.29026983490E+02  0.26998681951E+02 -0.17667163121E+02  0.47787271316E+02  0.20000001237E+02 0.  0.
        -12    1    1    2    0    0  0.29026983490E+02 -0.26998681951E+02  0.17667163121E+02  0.43400728684E+02  0.00000000000E+00 0.  1.
         11    1    3    3    0    0 -0.17061121054E+02  0.20661150310E+02 -0.81336273130E+01  0.28002158439E+02  0.51100000000E-03 0. -1.
        -11    1    3    3    0    0 -0.82663649157E+01  0.42627983288E+01  0.54342526789E-01  0.93009242489E+01  0.51100000000E-03 0.  1.
         12    1    3    3    0    0 -0.36994975203E+01  0.20747333119E+01 -0.95878783346E+01  0.10484188627E+02  0.00000000000E+00 0. -1.
</event>
<event>
 7    1  0.2294216E-010  0.4778725E+02  0.7816164E-02  0.1312668E+00
        -11   -1    0    0    0    0  0.00000000000E+00  0.00000000000E+00  0.45593999997E+02  0.45594000000E+02  0.51100000000E-03 0.  1.
         11   -1    0    0    0    0 -0.00000000000E+00 -0.00000000000E+00 -0.45593999997E+02  0.45594000000E+02  0.51100000000E-03 0. -1.
    9900012    2    1    2    0    0  0.71755764885E+00  0.70730119979E+01 -0.42814517390E+02  0.47787247852E+02  0.19999894254E+02 0.  0.
        -12    1    1    2    0    0 -0.71755764885E+00 -0.70730119979E+01  0.42814517390E+02  0.43400752148E+02  0.00000000000E+00 0.  1.
         11    1    3    3    0    0 -0.11351630888E+01  0.56915625120E+01 -0.38840305929E+01  0.69834212944E+01  0.51100000000E-03 0. -1.
        -11    1    3    3    0    0  0.40026759403E+01  0.31431612155E+01 -0.65043665302E+01  0.82587929705E+01  0.51100000000E-03 0.  1.
         12    1    3    3    0    0 -0.21499552026E+01 -0.17617117296E+01 -0.32426120267E+02  0.32545033587E+02  0.00000000000E+00 0. -1.
</event>
<event>
 7    1  0.2294216E-010  0.4778727E+02  0.7816164E-02  0.1312668E+00
        -11   -1    0    0    0    0  0.00000000000E+00  0.00000000000E+00  0.45593999997E+02  0.45594000000E+02  0.51100000000E-03 0. -1.
         11   -1    0    0    0    0 -0.00000000000E+00 -0.00000000000E+00 -0.45593999997E+02  0.45594000000E+02  0.51100000000E-03 0.  1.
    9900012    2    1    2    0    0 -0.38444626746E+02 -0.90513426117E+01  0.17991862557E+02  0.47787271354E+02  0.20000001411E+02 0.  0.
        -12    1    1    2    0    0  0.38444626746E+02  0.90513426117E+01 -0.17991862557E+02  0.43400728646E+02  0.00000000000E+00 0.  1.
         11    1    3    3    0    0 -0.14688898756E+02 -0.95018785672E+01  0.52834970928E+01  0.18274703411E+02  0.51100000000E-03 0.  1.
        -11    1    3    3    0    0 -0.80399185785E+01 -0.93082757166E+00 -0.15581075606E+01  0.82422345361E+01  0.51100000000E-03 0. -1.
        -12    1    3    3    0    0 -0.15715809412E+02  0.13813635271E+01  0.14266473025E+02  0.21270333407E+02  0.00000000000E+00 0.  1.
</event>
<event>
 7    1  0.2294216E-010  0.4778728E+02  0.7816164E-02  0.1312668E+00
        -11   -1    0    0    0    0  0.00000000000E+00  0.00000000000E+00  0.45593999997E+02  0.45594000000E+02  0.51100000000E-03 0.  1.
         11   -1    0    0    0    0 -0.00000000000E+00 -0.00000000000E+00 -0.45593999997E+02  0.45594000000E+02  0.51100000000E-03 0. -1.
    9900012    2    1    2    0    0 -0.32675408629E+02 -0.17315984958E+02 -0.22717773705E+02  0.47787275280E+02  0.20000019311E+02 0.  0.
        -12    1    1    2    0    0  0.32675408629E+02  0.17315984958E+02  0.22717773705E+02  0.43400724720E+02  0.00000000000E+00 0.  1.
         11    1    3    3    0    0 -0.24891832588E+02 -0.11898908554E+02 -0.14482461660E+02  0.31159734439E+02  0.51100000000E-03 0.  1.
        -11    1    3    3    0    0 -0.80765938968E+01  0.75877736512E+00 -0.58459455305E+01  0.99991095339E+01  0.51100000000E-03 0. -1.
        -12    1    3    3    0    0  0.29301785578E+00 -0.61758537696E+01 -0.23893665144E+01  0.66284313067E+01  0.00000000000E+00 0.  1.
</event>
<event>
 7    1  0.2294216E-010  0.4778727E+02  0.7816164E-02  0.1312668E+00
        -11   -1    0    0    0    0  0.00000000000E+00  0.00000000000E+00  0.45593999997E+02  0.45594000000E+02  0.51100000000E-03 0.  1.
         11   -1    0    0    0    0 -0.00000000000E+00 -0.00000000000E+00 -0.45593999997E+02  0.45594000000E+02  0.51100000000E-03 0. -1.
    9900012    2    1    2    0    0  0.14663245070E+02 -0.40817627868E+02  0.15917484127E+01  0.47787272313E+02  0.20000005785E+02 0.  0.
        -12    1    1    2    0    0 -0.14663245070E+02  0.40817627868E+02 -0.15917484127E+01  0.43400727687E+02  0.00000000000E+00 0.  1.
         11    1    3    3    0    0  0.69528520795E+01 -0.89514891067E+01  0.25356616822E+01  0.11614684227E+02  0.51100000000E-03 0. -1.
        -11    1    3    3    0    0  0.50256118968E+01 -0.14262627126E+01  0.17167527911E+01  0.54989308661E+01  0.51100000000E-03 0.  1.
         12    1    3    3    0    0  0.26847810938E+01 -0.30439876048E+02 -0.26606660606E+01  0.30673657220E+02  0.00000000000E+00 0. -1.
</event>
<event>
 7    1  0.2294216E-010  0.4778727E+02  0.7816164E-02  0.1312668E+00
        -11   -1    0    0    0    0  0.00000000000E+00  0.00000000000E+00  0.45593999997E+02  0.45594000000E+02  0.51100000000E-03 0.  1.
         11   -1    0    0    0    0 -0.00000000000E+00 -0.00000000000E+00 -0.45593999997E+02  0.45594000000E+02  0.51100000000E-03 0. -1.
    9900012    2    1    2    0    0  0.58472742180E+01  0.23130290241E+02 -0.36254958353E+02  0.47787274803E+02  0.20000017138E+02 0.  0.
        -12    1    1    2    0    0 -0.58472742180E+01 -0.23130290241E+02  0.36254958353E+02  0.43400725197E+02  0.00000000000E+00 0.  1.
         11    1    3    3    0    0  0.38782767865E+01  0.10520632882E+02 -0.15942152765E+02  0.19490433092E+02  0.51100000000E-03 0. -1.
        -11    1    3    3    0    0 -0.41239577613E+01  0.93965368550E+01 -0.18529902166E+02  0.21181577067E+02  0.51100000000E-03 0.  1.
         12    1    3    3    0    0  0.60929551928E+01  0.32131205038E+01 -0.17829034223E+01  0.71152646448E+01  0.00000000000E+00 0. -1.
</event>
<event>
 7    1  0.2294216E-010  0.4778727E+02  0.7816164E-02  0.1312668E+00
        -11   -1    0    0    0    0  0.00000000000E+00  0.00000000000E+00  0.45593999997E+02  0.45594000000E+02  0.51100000000E-03 0. -1.
         11   -1    0    0    0    0 -0.00000000000E+00 -0.00000000000E+00 -0.45593999997E+02  0.45594000000E+02  0.51100000000E-03 0.  1.
    9900012    2    1    2    0    0  0.87812441626E+01 -0.37873443033E+02 -0.19290291742E+02  0.47787270839E+02  0.19999999065E+02 0.  0.
        -12    1    1    2    0    0 -0.87812441626E+01  0.37873443033E+02  0.19290291742E+02  0.43400729161E+02  0.00000000000E+00 0.  1.
         11    1    3    3    0    0  0.56956040057E+01 -0.41495746376E+01 -0.24545715727E+01  0.74621576323E+01  0.51100000000E-03 0. -1.
        -11    1    3    3    0    0 -0.70354756912E+00 -0.80810412159E+01 -0.11148598689E+02  0.13787293400E+02  0.51100000000E-03 0.  1.
         12    1    3    3    0    0  0.37891877260E+01 -0.25642827179E+02 -0.56871214800E+01  0.26537819807E+02  0.00000000000E+00 0. -1.
</event>
<event>
 7    1  0.2294216E-010  0.4778727E+02  0.7816164E-02  0.1312668E+00
        -11   -1    0    0    0    0  0.00000000000E+00  0.00000000000E+00  0.45593999997E+02  0.45594000000E+02  0.51100000000E-03 0. -1.
         11   -1    0    0    0    0 -0.00000000000E+00 -0.00000000000E+00 -0.45593999997E+02  0.45594000000E+02  0.51100000000E-03 0.  1.
    9900012    2    1    2    0    0  0.40819610578E+02  0.56679085401E+01  0.13610930602E+02  0.47787271586E+02  0.20000002471E+02 0.  0.
        -12    1    1    2    0    0 -0.40819610578E+02 -0.56679085401E+01 -0.13610930602E+02  0.43400728414E+02  0.00000000000E+00 0.  1.
         11    1    3    3    0    0  0.30690794491E+02 -0.11258453556E+01  0.99999519612E+01  0.32298474171E+02  0.51100000000E-03 0. -1.
        -11    1    3    3    0    0  0.95255668101E+01  0.47253788404E+01  0.60504316036E+01  0.12234106060E+02  0.51100000000E-03 0.  1.
        -12    1    3    3    0    0  0.60324927675E+00  0.20683750553E+01 -0.24394529633E+01  0.32546913555E+01  0.00000000000E+00 0.  1.
</event>
<event>
 7    1  0.2294216E-010  0.4778729E+02  0.7816164E-02  0.1312668E+00
        -11   -1    0    0    0    0  0.00000000000E+00  0.00000000000E+00  0.45593999997E+02  0.45594000000E+02  0.51100000000E-03 0.  1.
         11   -1    0    0    0    0 -0.00000000000E+00 -0.00000000000E+00 -0.45593999997E+02  0.45594000000E+02  0.51100000000E-03 0. -1.
    9900012    2    1    2    0    0  0.55251463007E+01  0.22204953864E+02 -0.36878647424E+02  0.47787287408E+02  0.20000074606E+02 0.  0.
        -12    1    1    2    0    0 -0.55251463007E+01 -0.22204953864E+02  0.36878647424E+02  0.43400712592E+02  0.00000000000E+00 0.  1.
         11    1    3    3    0    0  0.62155683153E+01  0.95797396925E+01 -0.13125181345E+02  0.17397559819E+02  0.51100000000E-03 0. -1.
        -11    1    3    3    0    0  0.45933614086E+01 -0.48652318432E+00 -0.78805541926E+01  0.91344845767E+01  0.51100000000E-03 0.  1.
        -12    1    3    3    0    0 -0.52837834232E+01  0.13111737355E+02 -0.15872911886E+02  0.21255243012E+02  0.00000000000E+00 0.  1.
</event>
<event>
 7    1  0.2294216E-010  0.4778727E+02  0.7816164E-02  0.1312668E+00
        -11   -1    0    0    0    0  0.00000000000E+00  0.00000000000E+00  0.45593999997E+02  0.45594000000E+02  0.51100000000E-03 0.  1.
         11   -1    0    0    0    0 -0.00000000000E+00 -0.00000000000E+00 -0.45593999997E+02  0.45594000000E+02  0.51100000000E-03 0. -1.
    9900012    2    1    2    0    0  0.12853264780E+02  0.40504890173E+02 -0.88187581367E+01  0.47787273756E+02  0.20000012365E+02 0.  0.
        -12    1    1    2    0    0 -0.12853264780E+02 -0.40504890173E+02  0.88187581367E+01  0.43400726244E+02  0.00000000000E+00 0.  1.
         11    1    3    3    0    0  0.44845553517E+01  0.22410286186E+02 -0.72237232028E+01  0.23969028784E+02  0.51100000000E-03 0. -1.
        -11    1    3    3    0    0  0.10187845544E+02  0.19102162507E+02 -0.10808564563E+01  0.21676094211E+02  0.51100000000E-03 0.  1.
        -12    1    3    3    0    0 -0.18191361157E+01 -0.10075585210E+01 -0.51417847758E+00  0.21421507621E+01  0.00000000000E+00 0.  1.
</event>
<event>
 7    1  0.2294216E-010  0.4778722E+02  0.7816164E-02  0.1312668E+00
        -11   -1    0    0    0    0  0.00000000000E+00  0.00000000000E+00  0.45593999997E+02  0.45594000000E+02  0.51100000000E-03 0.  1.
         11   -1    0    0    0    0 -0.00000000000E+00 -0.00000000000E+00 -0.45593999997E+02  0.45594000000E+02  0.51100000000E-03 0. -1.
    9900012    2    1    2    0    0  0.12132836181E+02 -0.26092481217E+02 -0.32490069694E+02  0.47787217535E+02  0.19999756027E+02 0.  0.
        -12    1    1    2    0    0 -0.12132836181E+02  0.26092481217E+02  0.32490069694E+02  0.43400782465E+02  0.00000000000E+00 0.  1.
         11    1    3    3    0    0  0.39501724146E+01 -0.79677201670E+01 -0.13717812929E+02  0.16348297115E+02  0.51100000000E-03 0. -1.
        -11    1    3    3    0    0  0.13563325071E+01 -0.15796163660E+02 -0.18297593198E+02  0.24210748468E+02  0.51100000000E-03 0.  1.
        -12    1    3    3    0    0  0.68263312588E+01 -0.23285973900E+01 -0.47466356702E+00  0.72281719516E+01  0.00000000000E+00 0.  1.
</event>
<event>
 7    1  0.2294216E-010  0.4778727E+02  0.7816164E-02  0.1312668E+00
        -11   -1    0    0    0    0  0.00000000000E+00  0.00000000000E+00  0.45593999997E+02  0.45594000000E+02  0.51100000000E-03 0.  1.
         11   -1    0    0    0    0 -0.00000000000E+00 -0.00000000000E+00 -0.45593999997E+02  0.45594000000E+02  0.51100000000E-03 0. -1.
    9900012    2    1    2    0    0 -0.27431205014E+02 -0.31302271475E+02 -0.12301223275E+02  0.47787270720E+02  0.19999998519E+02 0.  0.
        -12    1    1    2    0    0  0.27431205014E+02  0.31302271475E+02  0.12301223275E+02  0.43400729280E+02  0.00000000000E+00 0.  1.
         11    1    3    3    0    0 -0.14649109686E+00 -0.26106930948E+01 -0.28278448857E+01  0.38514782922E+01  0.51100000000E-03 0. -1.
        -11    1    3    3    0    0 -0.16842710779E+02 -0.25538557094E+02 -0.18893767273E+01  0.30650685955E+02  0.51100000000E-03 0.  1.
        -12    1    3    3    0    0 -0.10442003138E+02 -0.31530212860E+01 -0.75840016624E+01  0.13285106472E+02  0.00000000000E+00 0.  1.
</event>
<event>
 7    1  0.2294216E-010  0.4778726E+02  0.7816164E-02  0.1312668E+00
        -11   -1    0    0    0    0  0.00000000000E+00  0.00000000000E+00  0.45593999997E+02  0.45594000000E+02  0.51100000000E-03 0. -1.
         11   -1    0    0    0    0 -0.00000000000E+00 -0.00000000000E+00 -0.45593999997E+02  0.45594000000E+02  0.51100000000E-03 0.  1.
    9900012    2    1    2    0    0 -0.33947671750E+02 -0.24061926492E+02  0.12337076998E+02  0.47787260460E+02  0.19999951742E+02 0.  0.
        -12    1    1    2    0    0  0.33947671750E+02  0.24061926492E+02 -0.12337076998E+02  0.43400739540E+02  0.00000000000E+00 0.  1.
         11    1    3    3    0    0 -0.41859134333E+01  0.10358859665E+01  0.18509879299E+01  0.46926631655E+01  0.51100000000E-03 0. -1.
        -11    1    3    3    0    0 -0.57690583510E+01 -0.14427670660E+02  0.41336310793E+01  0.16078763046E+02  0.51100000000E-03 0.  1.
         12    1    3    3    0    0 -0.23992699966E+02 -0.10670141798E+02  0.63524579886E+01  0.27015834249E+02  0.00000000000E+00 0. -1.
</event>
<event>
 7    1  0.2294216E-010  0.4778727E+02  0.7816164E-02  0.1312668E+00
        -11   -1    0    0    0    0  0.00000000000E+00  0.00000000000E+00  0.45593999997E+02  0.45594000000E+02  0.51100000000E-03 0.  1.
         11   -1    0    0    0    0 -0.00000000000E+00 -0.00000000000E+00 -0.45593999997E+02  0.45594000000E+02  0.51100000000E-03 0. -1.
    9900012    2    1    2    0    0  0.17539157928E+02 -0.28457136066E+02 -0.27680193347E+02  0.47787265472E+02  0.19999974591E+02 0.  0.
        -12    1    1    2    0    0 -0.17539157928E+02  0.28457136066E+02  0.27680193347E+02  0.43400734528E+02  0.00000000000E+00 0.  1.
         11    1    3    3    0    0  0.67400103250E+01 -0.35194059363E+01 -0.26641243030E+01  0.80567683278E+01  0.51100000000E-03 0. -1.
        -11    1    3    3    0    0  0.22030494863E+01 -0.82624149984E+01 -0.11324992521E+00  0.85518275504E+01  0.51100000000E-03 0.  1.
        -12    1    3    3    0    0  0.85960981164E+01 -0.16675315131E+02 -0.24902819119E+02  0.31178669593E+02  0.00000000000E+00 0.  1.
</event>
<event>
 7    1  0.2294216E-010  0.4778727E+02  0.7816164E-02  0.1312668E+00
        -11   -1    0    0    0    0  0.00000000000E+00  0.00000000000E+00  0.45593999997E+02  0.45594000000E+02  0.51100000000E-03 0.  1.
         11   -1    0    0    0    0 -0.00000000000E+00 -0.00000000000E+00 -0.45593999997E+02  0.45594000000E+02  0.51100000000E-03 0. -1.
    9900012    2    1    2    0    0  0.23516441637E+02  0.19604417233E+02 -0.30761455486E+02  0.47787270214E+02  0.19999996215E+02 0.  0.
        -12    1    1    2    0    0 -0.23516441637E+02 -0.19604417233E+02  0.30761455486E+02  0.43400729786E+02  0.00000000000E+00 0.  1.
         11    1    3    3    0    0  0.27410699291E+01  0.78533443323E+01 -0.11001672743E+02  0.13792218276E+02  0.51100000000E-03 0. -1.
        -11    1    3    3    0    0 -0.13795973921E+01  0.30954981171E+01 -0.48701806839E+01  0.59333007434E+01  0.51100000000E-03 0.  1.
         12    1    3    3    0    0  0.22154969100E+02  0.86555747838E+01 -0.14889602059E+02  0.28061751195E+02  0.00000000000E+00 0. -1.
</event>
<event>
 7    1  0.2294216E-010  0.4778731E+02  0.7816164E-02  0.1312668E+00
        -11   -1    0    0    0    0  0.00000000000E+00  0.00000000000E+00  0.45593999997E+02  0.45594000000E+02  0.51100000000E-03 0. -1.
         11   -1    0    0    0    0 -0.00000000000E+00 -0.00000000000E+00 -0.45593999997E+02  0.45594000000E+02  0.51100000000E-03 0.  1.
    9900012    2    1    2    0    0 -0.69789640924E+01 -0.37718319200E+02  0.20303742543E+02  0.47787314471E+02  0.20000197999E+02 0.  0.
        -12    1    1    2    0    0  0.69789640924E+01  0.37718319200E+02 -0.20303742543E+02  0.43400685529E+02  0.00000000000E+00 0.  1.
         11    1    3    3    0    0  0.21502324969E+01 -0.51789743927E+01  0.58802227352E+01  0.81254104652E+01  0.51100000000E-03 0. -1.
        -11    1    3    3    0    0  0.36230462119E+01 -0.10845974384E+02  0.70755679394E+01  0.13447129289E+02  0.51100000000E-03 0.  1.
         12    1    3    3    0    0 -0.12752242801E+02 -0.21693370424E+02  0.73479518686E+01  0.26214774717E+02  0.00000000000E+00 0. -1.
</event>
<event>
 7    1  0.2294216E-010  0.4778728E+02  0.7816164E-02  0.1312668E+00
        -11   -1    0    0    0    0  0.00000000000E+00  0.00000000000E+00  0.45593999997E+02  0.45594000000E+02  0.51100000000E-03 0. -1.
         11   -1    0    0    0    0 -0.00000000000E+00 -0.00000000000E+00 -0.45593999997E+02  0.45594000000E+02  0.51100000000E-03 0.  1.
    9900012    2    1    2    0    0 -0.36198247917E+02  0.14534636562E+02  0.19027698993E+02  0.47787284094E+02  0.20000059496E+02 0.  0.
        -12    1    1    2    0    0  0.36198247917E+02 -0.14534636562E+02 -0.19027698993E+02  0.43400715906E+02  0.00000000000E+00 0.  1.
         11    1    3    3    0    0 -0.11207305118E+02  0.79034911985E+01  0.41924132267E+01  0.14340334377E+02  0.51100000000E-03 0.  1.
        -11    1    3    3    0    0 -0.22910846457E+02  0.38217453155E+01  0.60657342401E+01  0.24006369046E+02  0.51100000000E-03 0. -1.
        -12    1    3    3    0    0 -0.20800963417E+01  0.28094000480E+01  0.87695515264E+01  0.94405806704E+01  0.00000000000E+00 0.  1.
</event>
<event>
 7    1  0.2294216E-010  0.4778727E+02  0.7816164E-02  0.1312668E+00
        -11   -1    0    0    0    0  0.00000000000E+00  0.00000000000E+00  0.45593999997E+02  0.45594000000E+02  0.51100000000E-03 0. -1.
         11   -1    0    0    0    0 -0.00000000000E+00 -0.00000000000E+00 -0.45593999997E+02  0.45594000000E+02  0.51100000000E-03 0.  1.
    9900012    2    1    2    0    0 -0.40425224077E+02 -0.23137253654E+01  0.15622784915E+02  0.47787268725E+02  0.19999989425E+02 0.  0.
        -12    1    1    2    0    0  0.40425224077E+02  0.23137253654E+01 -0.15622784915E+02  0.43400731275E+02  0.00000000000E+00 0.  1.
         11    1    3    3    0    0 -0.11850741319E+02  0.13539258417E+01  0.10431226336E+02  0.15845619841E+02  0.51100000000E-03 0. -1.
        -11    1    3    3    0    0  0.56356456569E+00 -0.14566191964E+00 -0.16969293240E+01  0.17939876829E+01  0.51100000000E-03 0.  1.
        -12    1    3    3    0    0 -0.29138047323E+02 -0.35219892875E+01  0.68884879030E+01  0.30147661202E+02  0.00000000000E+00 0.  1.
</event>
<event>
 7    1  0.2294216E-010  0.4778728E+02  0.7816164E-02  0.1312668E+00
        -11   -1    0    0    0    0  0.00000000000E+00  0.00000000000E+00  0.45593999997E+02  0.45594000000E+02  0.51100000000E-03 0. -1.
         11   -1    0    0    0    0 -0.00000000000E+00 -0.00000000000E+00 -0.45593999997E+02  0.45594000000E+02  0.51100000000E-03 0.  1.
    9900012    2    1    2    0    0  0.37573451076E+02  0.13612829052E+02 -0.16927774377E+02  0.47787275514E+02  0.20000020377E+02 0.  0.
        -12    1    1    2    0    0 -0.37573451076E+02 -0.13612829052E+02  0.16927774377E+02  0.43400724486E+02  0.00000000000E+00 0.  1.
         11    1    3    3    0    0  0.47921167315E+01  0.83290646101E+01 -0.92415279168E+01  0.13332049300E+02  0.51100000000E-03 0.  1.
        -11    1    3    3    0    0  0.11417235152E+02  0.42614894995E+01 -0.32298867601E+01  0.12607367688E+02  0.51100000000E-03 0. -1.
         12    1    3    3    0    0  0.21364099193E+02  0.10222749425E+01 -0.44563596998E+01  0.21847858525E+02  0.00000000000E+00 0. -1.
</event>
<event>
 7    1  0.2294216E-010  0.4778728E+02  0.7816164E-02  0.1312668E+00
        -11   -1    0    0    0    0  0.00000000000E+00  0.00000000000E+00  0.45593999997E+02  0.45594000000E+02  0.51100000000E-03 0.  1.
         11   -1    0    0    0    0 -0.00000000000E+00 -0.00000000000E+00 -0.45593999997E+02  0.45594000000E+02  0.51100000000E-03 0. -1.
    9900012    2    1    2    0    0 -0.13390313988E+02 -0.23170912670E+02 -0.34167680345E+02  0.47787284766E+02  0.20000062563E+02 0.  0.
        -12    1    1    2    0    0  0.13390313988E+02  0.23170912670E+02  0.34167680345E+02  0.43400715234E+02  0.00000000000E+00 0.  1.
         11    1    3    3    0    0 -0.97218702865E-01 -0.51195430735E+01 -0.27884345345E+01  0.58304836996E+01  0.51100000000E-03 0. -1.
        -11    1    3    3    0    0 -0.81123081063E-01 -0.39966769958E+01 -0.18105029897E+02  0.18541092627E+02  0.51100000000E-03 0.  1.
         12    1    3    3    0    0 -0.13211972204E+02 -0.14054692600E+02 -0.13274215914E+02  0.23415708440E+02  0.00000000000E+00 0. -1.
</event>
<event>
 7    1  0.2294216E-010  0.4778726E+02  0.7816164E-02  0.1312668E+00
        -11   -1    0    0    0    0  0.00000000000E+00  0.00000000000E+00  0.45593999997E+02  0.45594000000E+02  0.51100000000E-03 0. -1.
         11   -1    0    0    0    0 -0.00000000000E+00 -0.00000000000E+00 -0.45593999997E+02  0.45594000000E+02  0.51100000000E-03 0.  1.
    9900012    2    1    2    0    0 -0.12349099607E+02  0.13205966974E+02  0.39455367021E+02  0.47787264850E+02  0.19999971757E+02 0.  0.
        -12    1    1    2    0    0  0.12349099607E+02 -0.13205966974E+02 -0.39455367021E+02  0.43400735150E+02  0.00000000000E+00 0.  1.
         11    1    3    3    0    0 -0.14444902203E+01 -0.30714834835E+01  0.11341678146E+02  0.11838675019E+02  0.51100000000E-03 0. -1.
        -11    1    3    3    0    0 -0.36750179229E+01  0.16286590619E+01  0.76395175520E+00  0.40916878692E+01  0.51100000000E-03 0.  1.
        -12    1    3    3    0    0 -0.72295914640E+01  0.14648791395E+02  0.27349737120E+02  0.31856901962E+02  0.00000000000E+00 0.  1.
</event>
<event>
 7    1  0.2294216E-010  0.4778727E+02  0.7816164E-02  0.1312668E+00
        -11   -1    0    0    0    0  0.00000000000E+00  0.00000000000E+00  0.45593999997E+02  0.45594000000E+02  0.51100000000E-03 0. -1.
         11   -1    0    0    0    0 -0.00000000000E+00 -0.00000000000E+00 -0.45593999997E+02  0.45594000000E+02  0.51100000000E-03 0.  1.
    9900012    2    1    2    0    0  0.31559479020E+02  0.19863715919E+02  0.22204845148E+02  0.47787273345E+02  0.20000010489E+02 0.  0.
        -12    1    1    2    0    0 -0.31559479020E+02 -0.19863715919E+02 -0.22204845148E+02  0.43400726655E+02  0.00000000000E+00 0.  1.
         11    1    3    3    0    0  0.70419376270E+01 -0.60683992317E+00  0.24082928204E+01  0.74670619928E+01  0.51100000000E-03 0.  1.
        -11    1    3    3    0    0  0.10531271413E+02  0.43210307168E+01  0.14267778692E+02  0.18252355823E+02  0.51100000000E-03 0. -1.
         12    1    3    3    0    0  0.13986269980E+02  0.16149525125E+02  0.55287736359E+01  0.22067855529E+02  0.00000000000E+00 0. -1.
</event>
<event>
 7    1  0.2294216E-010  0.4778727E+02  0.7816164E-02  0.1312668E+00
        -11   -1    0    0    0    0  0.00000000000E+00  0.00000000000E+00  0.45593999997E+02  0.45594000000E+02  0.51100000000E-03 0.  1.
         11   -1    0    0    0    0 -0.00000000000E+00 -0.00000000000E+00 -0.45593999997E+02  0.45594000000E+02  0.51100000000E-03 0. -1.
    9900012    2    1    2    0    0 -0.11012950056E+02 -0.22562473542E+01 -0.41919535770E+02  0.47787271893E+02  0.20000003868E+02 0.  0.
        -12    1    1    2    0    0  0.11012950056E+02  0.22562473542E+01  0.41919535770E+02  0.43400728107E+02  0.00000000000E+00 0.  1.
         11    1    3    3    0    0 -0.98566648499E+01 -0.17737293705E+01 -0.22929532329E+02  0.25021259179E+02  0.51100000000E-03 0. -1.
        -11    1    3    3    0    0 -0.29801439271E+01  0.44766747754E+01 -0.15568117573E+02  0.16470827542E+02  0.51100000000E-03 0.  1.
        -12    1    3    3    0    0  0.18238587208E+01 -0.49591927590E+01 -0.34218858680E+01  0.62951851719E+01  0.00000000000E+00 0.  1.
</event>
<event>
 7    1  0.2294216E-010  0.4778726E+02  0.7816164E-02  0.1312668E+00
        -11   -1    0    0    0    0  0.00000000000E+00  0.00000000000E+00  0.45593999997E+02  0.45594000000E+02  0.51100000000E-03 0.  1.
         11   -1    0    0    0    0 -0.00000000000E+00 -0.00000000000E+00 -0.45593999997E+02  0.45594000000E+02  0.51100000000E-03 0. -1.
    9900012    2    1    2    0    0  0.95973329048E+01  0.31739006699E+02 -0.28002686691E+02  0.47787264902E+02  0.19999971994E+02 0.  0.
        -12    1    1    2    0    0 -0.95973329048E+01 -0.31739006699E+02  0.28002686691E+02  0.43400735098E+02  0.00000000000E+00 0.  1.
         11    1    3    3    0    0 -0.17312089463E+01  0.11704474684E+02 -0.48610457040E+01  0.12791465031E+02  0.51100000000E-03 0. -1.
        -11    1    3    3    0    0  0.30421173971E+01  0.16621139554E+02 -0.17890904417E+02  0.24608966241E+02  0.51100000000E-03 0.  1.
        -12    1    3    3    0    0  0.82864244539E+01  0.34133924615E+01 -0.52507365698E+01  0.10386833630E+02  0.00000000000E+00 0.  1.
</event>
<event>
 7    1  0.2294216E-010  0.4778726E+02  0.7816164E-02  0.1312668E+00
        -11   -1    0    0    0    0  0.00000000000E+00  0.00000000000E+00  0.45593999997E+02  0.45594000000E+02  0.51100000000E-03 0.  1.
         11   -1    0    0    0    0 -0.00000000000E+00 -0.00000000000E+00 -0.45593999997E+02  0.45594000000E+02  0.51100000000E-03 0. -1.
    9900012    2    1    2    0    0 -0.19924774231E+01 -0.29613283004E+02 -0.31665559548E+02  0.47787260858E+02  0.19999953555E+02 0.  0.
        -12    1    1    2    0    0  0.19924774231E+01  0.29613283004E+02  0.31665559548E+02  0.43400739142E+02  0.00000000000E+00 0.  1.
         11    1    3    3    0    0 -0.32948100495E+01 -0.19401977139E+02 -0.18685377958E+02  0.27137351378E+02  0.51100000000E-03 0. -1.
        -11    1    3    3    0    0 -0.54501851681E+01 -0.59191853447E+01 -0.60938531932E+01  0.10093380034E+02  0.51100000000E-03 0.  1.
         12    1    3    3    0    0  0.67525177945E+01 -0.42921205207E+01 -0.68863283978E+01  0.10556529445E+02  0.00000000000E+00 0. -1.
</event>
<event>
 7    1  0.2294216E-010  0.4778727E+02  0.7816164E-02  0.1312668E+00
        -11   -1    0    0    0    0  0.00000000000E+00  0.00000000000E+00  0.45593999997E+02  0.45594000000E+02  0.51100000000E-03 0.  1.
         11   -1    0    0    0    0 -0.00000000000E+00 -0.00000000000E+00 -0.45593999997E+02  0.45594000000E+02  0.51100000000E-03 0. -1.
    9900012    2    1    2    0    0 -0.89530196616E+00  0.33522082702E+02 -0.27551621185E+02  0.47787269313E+02  0.19999992106E+02 0.  0.
        -12    1    1    2    0    0  0.89530196616E+00 -0.33522082702E+02  0.27551621185E+02  0.43400730687E+02  0.00000000000E+00 0.  1.
         11    1    3    3    0    0 -0.51016672516E+01  0.22758066608E+02 -0.22132077506E+02  0.32152534262E+02  0.51100000000E-03 0. -1.
        -11    1    3    3    0    0  0.35676836360E+01  0.11426386711E+02 -0.69553353118E+01  0.13844398483E+02  0.51100000000E-03 0.  1.
        -12    1    3    3    0    0  0.63868164949E+00 -0.66237061769E+00  0.15357916332E+01  0.17903365676E+01  0.00000000000E+00 0.  1.
</event>
<event>
 7    1  0.2294216E-010  0.4778727E+02  0.7816164E-02  0.1312668E+00
        -11   -1    0    0    0    0  0.00000000000E+00  0.00000000000E+00  0.45593999997E+02  0.45594000000E+02  0.51100000000E-03 0.  1.
         11   -1    0    0    0    0 -0.00000000000E+00 -0.00000000000E+00 -0.45593999997E+02  0.45594000000E+02  0.51100000000E-03 0. -1.
    9900012    2    1    2    0    0  0.11539967581E+02 -0.22275666333E+02 -0.35415350360E+02  0.47787271856E+02  0.20000003698E+02 0.  0.
        -12    1    1    2    0    0 -0.11539967581E+02  0.22275666333E+02  0.35415350360E+02  0.43400728144E+02  0.00000000000E+00 0.  1.
         11    1    3    3    0    0  0.41334823353E+01 -0.49590501905E+01 -0.22766162666E+02  0.23663812411E+02  0.51100000000E-03 0. -1.
        -11    1    3    3    0    0 -0.91173906981E+00 -0.15341250931E+01 -0.38232826172E+01  0.42192769718E+01  0.51100000000E-03 0.  1.
        -12    1    3    3    0    0  0.83182243152E+01 -0.15782491050E+02 -0.88259050763E+01  0.19904182473E+02  0.00000000000E+00 0.  1.
</event>
<event>
 7    1  0.2294216E-010  0.4778727E+02  0.7816164E-02  0.1312668E+00
        -11   -1    0    0    0    0  0.00000000000E+00  0.00000000000E+00  0.45593999997E+02  0.45594000000E+02  0.51100000000E-03 0. -1.
         11   -1    0    0    0    0 -0.00000000000E+00 -0.00000000000E+00 -0.45593999997E+02  0.45594000000E+02  0.51100000000E-03 0.  1.
    9900012    2    1    2    0    0  0.25264308209E+02 -0.28221621868E+02  0.21186747414E+02  0.47787268715E+02  0.19999989378E+02 0.  0.
        -12    1    1    2    0    0 -0.25264308209E+02  0.28221621868E+02 -0.21186747414E+02  0.43400731285E+02  0.00000000000E+00 0.  1.
         11    1    3    3    0    0  0.60776232324E+01 -0.89978627471E+01  0.70080558923E+01  0.12923307851E+02  0.51100000000E-03 0. -1.
        -11    1    3    3    0    0  0.86894714118E+01  0.36395671662E+00  0.79531343006E+01  0.11785233276E+02  0.51100000000E-03 0.  1.
        -12    1    3    3    0    0  0.10497213564E+02 -0.19587715837E+02  0.62255572211E+01  0.23078727587E+02  0.00000000000E+00 0.  1.
</event>
<event>
 7    1  0.2294216E-010  0.4778727E+02  0.7816164E-02  0.1312668E+00
        -11   -1    0    0    0    0  0.00000000000E+00  0.00000000000E+00  0.45593999997E+02  0.45594000000E+02  0.51100000000E-03 0.  1.
         11   -1    0    0    0    0 -0.00000000000E+00 -0.00000000000E+00 -0.45593999997E+02  0.45594000000E+02  0.51100000000E-03 0. -1.
    9900012    2    1    2    0    0  0.20288838753E+02  0.35710959475E+02 -0.14025468995E+02  0.47787269763E+02  0.19999994158E+02 0.  0.
        -12    1    1    2    0    0 -0.20288838753E+02 -0.35710959475E+02  0.14025468995E+02  0.43400730237E+02  0.00000000000E+00 0.  1.
         11    1    3    3    0    0  0.11958178719E+01  0.11743560066E+02  0.54764091711E+00  0.11816983297E+02  0.51100000000E-03 0. -1.
        -11    1    3    3    0    0  0.29507071066E+01  0.45820684475E+01  0.19793823690E+01  0.57982737526E+01  0.51100000000E-03 0.  1.
         12    1    3    3    0    0  0.16142313774E+02  0.19385330962E+02 -0.16552492281E+02  0.30172012713E+02  0.00000000000E+00 0. -1.
</event>
<event>
 7    1  0.2294216E-010  0.4778732E+02  0.7816164E-02  0.1312668E+00
        -11   -1    0    0    0    0  0.00000000000E+00  0.00000000000E+00  0.45593999997E+02  0.45594000000E+02  0.51100000000E-03 0. -1.
         11   -1    0    0    0    0 -0.00000000000E+00 -0.00000000000E+00 -0.45593999997E+02  0.45594000000E+02  0.51100000000E-03 0.  1.
    9900012    2    1    2    0    0  0.25637412396E+02 -0.34913516495E+02 -0.27182162466E+01  0.47787317425E+02  0.20000211467E+02 0.  0.
        -12    1    1    2    0    0 -0.25637412396E+02  0.34913516495E+02  0.27182162466E+01  0.43400682575E+02  0.00000000000E+00 0.  1.
         11    1    3    3    0    0  0.81720397134E-02 -0.50428288896E+01  0.24095406936E+01  0.55889244589E+01  0.51100000000E-03 0. -1.
        -11    1    3    3    0    0  0.39359924670E+00  0.15319463758E+01  0.40468744484E-01  0.15822193419E+01  0.51100000000E-03 0.  1.
         12    1    3    3    0    0  0.25235641109E+02 -0.31402633981E+02 -0.51682256846E+01  0.40616173624E+02  0.00000000000E+00 0. -1.
</event>
<event>
 7    1  0.2294216E-010  0.4778728E+02  0.7816164E-02  0.1312668E+00
        -11   -1    0    0    0    0  0.00000000000E+00  0.00000000000E+00  0.45593999997E+02  0.45594000000E+02  0.51100000000E-03 0. -1.
         11   -1    0    0    0    0 -0.00000000000E+00 -0.00000000000E+00 -0.45593999997E+02  0.45594000000E+02  0.51100000000E-03 0.  1.
    9900012    2    1    2    0    0  0.34681431456E+02 -0.23844601991E+02  0.10595100226E+02  0.47787275573E+02  0.20000020648E+02 0.  0.
        -12    1    1    2    0    0 -0.34681431456E+02  0.23844601991E+02 -0.10595100226E+02  0.43400724427E+02  0.00000000000E+00 0.  1.
         11    1    3    3    0    0  0.20475474594E+02 -0.10904982821E+02  0.35621718074E+01  0.23470253054E+02  0.51100000000E-03 0. -1.
        -11    1    3    3    0    0  0.16726072370E+02 -0.11988689925E+02  0.60507669071E+01  0.21449987494E+02  0.51100000000E-03 0.  1.
        -12    1    3    3    0    0 -0.25201155078E+01 -0.95092924526E+00  0.98216151147E+00  0.28670350254E+01  0.00000000000E+00 0.  1.
</event>
<event>
 7    1  0.2294216E-010  0.4778727E+02  0.7816164E-02  0.1312668E+00
        -11   -1    0    0    0    0  0.00000000000E+00  0.00000000000E+00  0.45593999997E+02  0.45594000000E+02  0.51100000000E-03 0.  1.
         11   -1    0    0    0    0 -0.00000000000E+00 -0.00000000000E+00 -0.45593999997E+02  0.45594000000E+02  0.51100000000E-03 0. -1.
    9900012    2    1    2    0    0 -0.81928848769E+01 -0.33115325316E+02 -0.26830484647E+02  0.47787273741E+02  0.20000012294E+02 0.  0.
        -12    1    1    2    0    0  0.81928848769E+01  0.33115325316E+02  0.26830484647E+02  0.43400726259E+02  0.00000000000E+00 0.  1.
         11    1    3    3    0    0  0.35107584222E+01 -0.41712362019E+01 -0.23602911899E+01  0.59410109336E+01  0.51100000000E-03 0. -1.
        -11    1    3    3    0    0 -0.31507019477E+00 -0.93560264851E+01 -0.14107360008E+02  0.16930803510E+02  0.51100000000E-03 0.  1.
        -12    1    3    3    0    0 -0.11388573104E+02 -0.19588062629E+02 -0.10362833449E+02  0.24915459298E+02  0.00000000000E+00 0.  1.
</event>
<event>
 7    1  0.2294216E-010  0.4778727E+02  0.7816164E-02  0.1312668E+00
        -11   -1    0    0    0    0  0.00000000000E+00  0.00000000000E+00  0.45593999997E+02  0.45594000000E+02  0.51100000000E-03 0.  1.
         11   -1    0    0    0    0 -0.00000000000E+00 -0.00000000000E+00 -0.45593999997E+02  0.45594000000E+02  0.51100000000E-03 0. -1.
    9900012    2    1    2    0    0  0.21555705192E+02  0.34065687565E+02 -0.16078053903E+02  0.47787270595E+02  0.19999997951E+02 0.  0.
        -12    1    1    2    0    0 -0.21555705192E+02 -0.34065687565E+02  0.16078053903E+02  0.43400729405E+02  0.00000000000E+00 0.  1.
         11    1    3    3    0    0  0.10411802959E+01  0.13744883574E+01 -0.27307088951E+01  0.32295581716E+01  0.51100000000E-03 0. -1.
        -11    1    3    3    0    0  0.54407954674E+00  0.16168184774E+02 -0.21378000164E+01  0.16317978141E+02  0.51100000000E-03 0.  1.
         12    1    3    3    0    0  0.19970445349E+02  0.16523014433E+02 -0.11209544991E+02  0.28239734282E+02  0.00000000000E+00 0. -1.
</event>
<event>
 7    1  0.2294216E-010  0.4778727E+02  0.7816164E-02  0.1312668E+00
        -11   -1    0    0    0    0  0.00000000000E+00  0.00000000000E+00  0.45593999997E+02  0.45594000000E+02  0.51100000000E-03 0.  1.
         11   -1    0    0    0    0 -0.00000000000E+00 -0.00000000000E+00 -0.45593999997E+02  0.45594000000E+02  0.51100000000E-03 0. -1.
    9900012    2    1    2    0    0 -0.34296604155E+01  0.41333534684E+02 -0.12782785907E+02  0.47787271024E+02  0.19999999908E+02 0.  0.
        -12    1    1    2    0    0  0.34296604155E+01 -0.41333534684E+02  0.12782785907E+02  0.43400728976E+02  0.00000000000E+00 0.  1.
         11    1    3    3    0    0 -0.37759648208E+01  0.99155352287E+01 -0.28868087134E+01  0.10995881684E+02  0.51100000000E-03 0. -1.
        -11    1    3    3    0    0 -0.62584931125E+01  0.75181449272E+01  0.74147659334E+00  0.98102511173E+01  0.51100000000E-03 0.  1.
        -12    1    3    3    0    0  0.66047975178E+01  0.23899854528E+02 -0.10637453787E+02  0.26981138223E+02  0.00000000000E+00 0.  1.
</event>
<event>
 7    1  0.2294216E-010  0.4778727E+02  0.7816164E-02  0.1312668E+00
        -11   -1    0    0    0    0  0.00000000000E+00  0.00000000000E+00  0.45593999997E+02  0.45594000000E+02  0.51100000000E-03 0. -1.
         11   -1    0    0    0    0 -0.00000000000E+00 -0.00000000000E+00 -0.45593999997E+02  0.45594000000E+02  0.51100000000E-03 0.  1.
    9900012    2    1    2    0    0  0.36497916165E+02  0.17030906502E+02  0.16170142305E+02  0.47787272323E+02  0.20000005831E+02 0.  0.
        -12    1    1    2    0    0 -0.36497916165E+02 -0.17030906502E+02 -0.16170142305E+02  0.43400727677E+02  0.00000000000E+00 0.  1.
         11    1    3    3    0    0  0.14537631598E+02  0.80046688669E+01  0.97332616668E+01  0.19239382503E+02  0.51100000000E-03 0. -1.
        -11    1    3    3    0    0  0.22852785765E+02  0.50592412489E+01  0.38288309981E+01  0.23717202329E+02  0.51100000000E-03 0.  1.
        -12    1    3    3    0    0 -0.89250119793E+00  0.39669963860E+01  0.26080496403E+01  0.48306874915E+01  0.00000000000E+00 0.  1.
</event>
<event>
 7    1  0.2294216E-010  0.4778727E+02  0.7816164E-02  0.1312668E+00
        -11   -1    0    0    0    0  0.00000000000E+00  0.00000000000E+00  0.45593999997E+02  0.45594000000E+02  0.51100000000E-03 0. -1.
         11   -1    0    0    0    0 -0.00000000000E+00 -0.00000000000E+00 -0.45593999997E+02  0.45594000000E+02  0.51100000000E-03 0.  1.
    9900012    2    1    2    0    0  0.11558527364E+02 -0.37879056919E+02  0.17753897964E+02  0.47787269582E+02  0.19999993332E+02 0.  0.
        -12    1    1    2    0    0 -0.11558527364E+02  0.37879056919E+02 -0.17753897964E+02  0.43400730418E+02  0.00000000000E+00 0.  1.
         11    1    3    3    0    0 -0.17023858139E+01 -0.83757315435E+00  0.10481886885E+01  0.21675668469E+01  0.51100000000E-03 0. -1.
        -11    1    3    3    0    0  0.37177018707E+00  0.13370366140E+01  0.22260016370E+01  0.26231590741E+01  0.51100000000E-03 0.  1.
         12    1    3    3    0    0  0.12889142990E+02 -0.38378520379E+02  0.14479707638E+02  0.42996543661E+02  0.00000000000E+00 0. -1.
</event>
<event>
 7    1  0.2294216E-010  0.4778728E+02  0.7816164E-02  0.1312668E+00
        -11   -1    0    0    0    0  0.00000000000E+00  0.00000000000E+00  0.45593999997E+02  0.45594000000E+02  0.51100000000E-03 0.  1.
         11   -1    0    0    0    0 -0.00000000000E+00 -0.00000000000E+00 -0.45593999997E+02  0.45594000000E+02  0.51100000000E-03 0. -1.
    9900012    2    1    2    0    0 -0.26867046192E+02  0.25415544178E+02 -0.22711993460E+02  0.47787277612E+02  0.20000029942E+02 0.  0.
        -12    1    1    2    0    0  0.26867046192E+02 -0.25415544178E+02  0.22711993460E+02  0.43400722388E+02  0.00000000000E+00 0.  1.
         11    1    3    3    0    0 -0.21650153306E+02  0.20201462690E+02 -0.21765229631E+02  0.36749876927E+02  0.51100000000E-03 0. -1.
        -11    1    3    3    0    0 -0.54040404224E+00  0.75304218601E+00 -0.38443979768E+01  0.39545549848E+01  0.51100000000E-03 0.  1.
         12    1    3    3    0    0 -0.46764888436E+01  0.44610393017E+01  0.28976341480E+01  0.70828457001E+01  0.00000000000E+00 0. -1.
</event>
<event>
 7    1  0.2294216E-010  0.4778727E+02  0.7816164E-02  0.1312668E+00
        -11   -1    0    0    0    0  0.00000000000E+00  0.00000000000E+00  0.45593999997E+02  0.45594000000E+02  0.51100000000E-03 0.  1.
         11   -1    0    0    0    0 -0.00000000000E+00 -0.00000000000E+00 -0.45593999997E+02  0.45594000000E+02  0.51100000000E-03 0. -1.
    9900012    2    1    2    0    0  0.40597090110E+02 -0.14438234719E+02  0.51996949221E+01  0.47787272190E+02  0.20000005221E+02 0.  0.
        -12    1    1    2    0    0 -0.40597090110E+02  0.14438234719E+02 -0.51996949221E+01  0.43400727810E+02  0.00000000000E+00 0.  1.
         11    1    3    3    0    0  0.87611148315E+01 -0.32491427323E+01  0.55782277415E+01  0.10882586392E+02  0.51100000000E-03 0. -1.
        -11    1    3    3    0    0  0.11877503880E+01 -0.68482952856E+00  0.39845812040E+01  0.42138616612E+01  0.51100000000E-03 0.  1.
         12    1    3    3    0    0  0.30648224890E+02 -0.10504262459E+02 -0.43631140234E+01  0.32690824136E+02  0.00000000000E+00 0. -1.
</event>
<event>
 7    1  0.2294216E-010  0.4778725E+02  0.7816164E-02  0.1312668E+00
        -11   -1    0    0    0    0  0.00000000000E+00  0.00000000000E+00  0.45593999997E+02  0.45594000000E+02  0.51100000000E-03 0.  1.
         11   -1    0    0    0    0 -0.00000000000E+00 -0.00000000000E+00 -0.45593999997E+02  0.45594000000E+02  0.51100000000E-03 0. -1.
    9900012    2    1    2    0    0 -0.35791227287E+02  0.10702927578E+02 -0.22092096441E+02  0.47787247304E+02  0.19999891757E+02 0.  0.
        -12    1    1    2    0    0  0.35791227287E+02 -0.10702927578E+02  0.22092096441E+02  0.43400752696E+02  0.00000000000E+00 0.  1.
         11    1    3    3    0    0 -0.10513983700E+02 -0.45208171574E+00 -0.11362136358E+02  0.15486974333E+02  0.51100000000E-03 0. -1.
        -11    1    3    3    0    0 -0.17721626082E+02  0.10195887318E+02 -0.17421419287E+01  0.20519434884E+02  0.51100000000E-03 0.  1.
        -12    1    3    3    0    0 -0.75556175042E+01  0.95912197552E+00 -0.89878181551E+01  0.11780838087E+02  0.00000000000E+00 0.  1.
</event>
<event>
 7    1  0.2294216E-010  0.4778727E+02  0.7816164E-02  0.1312668E+00
        -11   -1    0    0    0    0  0.00000000000E+00  0.00000000000E+00  0.45593999997E+02  0.45594000000E+02  0.51100000000E-03 0.  1.
         11   -1    0    0    0    0 -0.00000000000E+00 -0.00000000000E+00 -0.45593999997E+02  0.45594000000E+02  0.51100000000E-03 0. -1.
    9900012    2    1    2    0    0  0.32327377702E+02  0.27077013330E+02 -0.10266418236E+02  0.47787270245E+02  0.19999996353E+02 0.  0.
        -12    1    1    2    0    0 -0.32327377702E+02 -0.27077013330E+02  0.10266418236E+02  0.43400729755E+02  0.00000000000E+00 0.  1.
         11    1    3    3    0    0  0.12173582412E+02  0.81094176613E+01 -0.80947533279E+01  0.16717768848E+02  0.51100000000E-03 0. -1.
        -11    1    3    3    0    0  0.60476619202E+01 -0.14097963843E+01 -0.38853696587E+00  0.62219532127E+01  0.51100000000E-03 0.  1.
        -12    1    3    3    0    0  0.14106133369E+02  0.20377392053E+02 -0.17831279422E+01  0.24847548184E+02  0.00000000000E+00 0.  1.
</event>
<event>
 7    1  0.2294216E-010  0.4778727E+02  0.7816164E-02  0.1312668E+00
        -11   -1    0    0    0    0  0.00000000000E+00  0.00000000000E+00  0.45593999997E+02  0.45594000000E+02  0.51100000000E-03 0.  1.
         11   -1    0    0    0    0 -0.00000000000E+00 -0.00000000000E+00 -0.45593999997E+02  0.45594000000E+02  0.51100000000E-03 0. -1.
    9900012    2    1    2    0    0 -0.12098134304E+00  0.34981825547E+02 -0.25688140533E+02  0.47787270523E+02  0.19999997623E+02 0.  0.
        -12    1    1    2    0    0  0.12098134304E+00 -0.34981825547E+02  0.25688140533E+02  0.43400729477E+02  0.00000000000E+00 0.  1.
         11    1    3    3    0    0  0.59141722707E+01  0.13275505756E+02 -0.97441146812E+01  0.17497550054E+02  0.51100000000E-03 0. -1.
        -11    1    3    3    0    0  0.67380829379E+00  0.17713231610E+02 -0.91917038701E+01  0.19967473851E+02  0.51100000000E-03 0.  1.
        -12    1    3    3    0    0 -0.67089619076E+01  0.39930881812E+01 -0.67523219815E+01  0.10322246618E+02  0.00000000000E+00 0.  1.
</event>
<event>
 7    1  0.2294216E-010  0.4778727E+02  0.7816164E-02  0.1312668E+00
        -11   -1    0    0    0    0  0.00000000000E+00  0.00000000000E+00  0.45593999997E+02  0.45594000000E+02  0.51100000000E-03 0.  1.
         11   -1    0    0    0    0 -0.00000000000E+00 -0.00000000000E+00 -0.45593999997E+02  0.45594000000E+02  0.51100000000E-03 0. -1.
    9900012    2    1    2    0    0 -0.26193024641E+01  0.11952411826E+02 -0.41640153482E+02  0.47787271021E+02  0.19999999895E+02 0.  0.
        -12    1    1    2    0    0  0.26193024641E+01 -0.11952411826E+02  0.41640153482E+02  0.43400728979E+02  0.00000000000E+00 0.  1.
         11    1    3    3    0    0 -0.19772809901E+01 -0.24133575064E+01 -0.41213948514E+01  0.51691227834E+01  0.51100000000E-03 0. -1.
        -11    1    3    3    0    0  0.40864640364E+01 -0.89373476997E+00 -0.91423189023E+01  0.10053852263E+02  0.51100000000E-03 0.  1.
         12    1    3    3    0    0 -0.47284855103E+01  0.15259504103E+02 -0.28376439728E+02  0.32564295975E+02  0.00000000000E+00 0. -1.
</event>
<event>
 7    1  0.2294216E-010  0.4778727E+02  0.7816164E-02  0.1312668E+00
        -11   -1    0    0    0    0  0.00000000000E+00  0.00000000000E+00  0.45593999997E+02  0.45594000000E+02  0.51100000000E-03 0. -1.
         11   -1    0    0    0    0 -0.00000000000E+00 -0.00000000000E+00 -0.45593999997E+02  0.45594000000E+02  0.51100000000E-03 0.  1.
    9900012    2    1    2    0    0  0.17448889677E+02  0.39176911661E+02 -0.66580116781E+01  0.47787271000E+02  0.19999999797E+02 0.  0.
        -12    1    1    2    0    0 -0.17448889677E+02 -0.39176911661E+02  0.66580116781E+01  0.43400729000E+02  0.00000000000E+00 0.  1.
         11    1    3    3    0    0  0.13975157286E+02  0.25783169141E+02 -0.32037428350E+01  0.29501538952E+02  0.51100000000E-03 0. -1.
        -11    1    3    3    0    0  0.35330838040E+01  0.15022543660E+02 -0.48111338619E+01  0.16164977837E+02  0.51100000000E-03 0.  1.
        -12    1    3    3    0    0 -0.59351412892E-01 -0.16288011401E+01  0.13568650188E+01  0.21207542109E+01  0.00000000000E+00 0.  1.
</event>
<event>
 7    1  0.2294216E-010  0.4778727E+02  0.7816164E-02  0.1312668E+00
        -11   -1    0    0    0    0  0.00000000000E+00  0.00000000000E+00  0.45593999997E+02  0.45594000000E+02  0.51100000000E-03 0. -1.
         11   -1    0    0    0    0 -0.00000000000E+00 -0.00000000000E+00 -0.45593999997E+02  0.45594000000E+02  0.51100000000E-03 0.  1.
    9900012    2    1    2    0    0 -0.94523585784E+01 -0.29573499729E+02  0.30326304196E+02  0.47787266192E+02  0.19999977875E+02 0.  0.
        -12    1    1    2    0    0  0.94523585784E+01  0.29573499729E+02 -0.30326304196E+02  0.43400733808E+02  0.00000000000E+00 0.  1.
         11    1    3    3    0    0  0.12265098284E+01 -0.16360043863E+02  0.14435777050E+02  0.21852849262E+02  0.51100000000E-03 0. -1.
        -11    1    3    3    0    0  0.17871473569E+01 -0.90299605326E+00 -0.36440978487E+00  0.20352130847E+01  0.51100000000E-03 0.  1.
        -12    1    3    3    0    0 -0.12466015764E+02 -0.12310459813E+02  0.16254936931E+02  0.23899203845E+02  0.00000000000E+00 0.  1.
</event>
<event>
 7    1  0.2294216E-010  0.4778727E+02  0.7816164E-02  0.1312668E+00
        -11   -1    0    0    0    0  0.00000000000E+00  0.00000000000E+00  0.45593999997E+02  0.45594000000E+02  0.51100000000E-03 0.  1.
         11   -1    0    0    0    0 -0.00000000000E+00 -0.00000000000E+00 -0.45593999997E+02  0.45594000000E+02  0.51100000000E-03 0. -1.
    9900012    2    1    2    0    0 -0.38623862119E+01  0.24196671486E+02 -0.35822148223E+02  0.47787271416E+02  0.20000001696E+02 0.  0.
        -12    1    1    2    0    0  0.38623862119E+01 -0.24196671486E+02  0.35822148223E+02  0.43400728584E+02  0.00000000000E+00 0.  1.
         11    1    3    3    0    0 -0.14094169905E+01  0.19609670820E+01 -0.24052175260E+01  0.34083602742E+01  0.51100000000E-03 0. -1.
        -11    1    3    3    0    0 -0.40145533313E-01 -0.21254636387E+01  0.82998661467E+00  0.22821229995E+01  0.51100000000E-03 0.  1.
         12    1    3    3    0    0 -0.24128236881E+01  0.24361168043E+02 -0.34246917312E+02  0.42096788143E+02  0.00000000000E+00 0. -1.
</event>
<event>
 7    1  0.2294216E-010  0.4778727E+02  0.7816164E-02  0.1312668E+00
        -11   -1    0    0    0    0  0.00000000000E+00  0.00000000000E+00  0.45593999997E+02  0.45594000000E+02  0.51100000000E-03 0.  1.
         11   -1    0    0    0    0 -0.00000000000E+00 -0.00000000000E+00 -0.45593999997E+02  0.45594000000E+02  0.51100000000E-03 0. -1.
    9900012    2    1    2    0    0  0.18976659772E+02  0.29343381129E+02 -0.25738599772E+02  0.47787272467E+02  0.20000006485E+02 0.  0.
        -12    1    1    2    0    0 -0.18976659772E+02 -0.29343381129E+02  0.25738599772E+02  0.43400727533E+02  0.00000000000E+00 0.  1.
         11    1    3    3    0    0  0.47266846491E+01  0.16554304231E+02 -0.19567721364E+02  0.26063043874E+02  0.51100000000E-03 0. -1.
        -11    1    3    3    0    0  0.41967227925E+01  0.45763891697E+01 -0.61547930413E+01  0.87428426540E+01  0.51100000000E-03 0.  1.
        -12    1    3    3    0    0  0.10053252331E+02  0.82126877284E+01 -0.16085366822E-01  0.12981385939E+02  0.00000000000E+00 0.  1.
</event>
<event>
 7    1  0.2294216E-010  0.4778727E+02  0.7816164E-02  0.1312668E+00
        -11   -1    0    0    0    0  0.00000000000E+00  0.00000000000E+00  0.45593999997E+02  0.45594000000E+02  0.51100000000E-03 0.  1.
         11   -1    0    0    0    0 -0.00000000000E+00 -0.00000000000E+00 -0.45593999997E+02  0.45594000000E+02  0.51100000000E-03 0. -1.
    9900012    2    1    2    0    0  0.32540336530E+01  0.63131396126E+01 -0.42815636874E+02  0.47787271576E+02  0.20000002424E+02 0.  0.
        -12    1    1    2    0    0 -0.32540336530E+01 -0.63131396126E+01  0.42815636874E+02  0.43400728424E+02  0.00000000000E+00 0.  1.
         11    1    3    3    0    0  0.84049431338E+01  0.37354909083E+00 -0.75364682549E+01  0.11295174280E+02  0.51100000000E-03 0. -1.
        -11    1    3    3    0    0 -0.82710759336E+00  0.26344769820E+01 -0.48576844810E+01  0.55876358792E+01  0.51100000000E-03 0.  1.
        -12    1    3    3    0    0 -0.43238018874E+01  0.33051135398E+01 -0.30421484138E+02  0.30904461417E+02  0.00000000000E+00 0.  1.
</event>
<event>
 7    1  0.2294216E-010  0.4778727E+02  0.7816164E-02  0.1312668E+00
        -11   -1    0    0    0    0  0.00000000000E+00  0.00000000000E+00  0.45593999997E+02  0.45594000000E+02  0.51100000000E-03 0. -1.
         11   -1    0    0    0    0 -0.00000000000E+00 -0.00000000000E+00 -0.45593999997E+02  0.45594000000E+02  0.51100000000E-03 0.  1.
    9900012    2    1    2    0    0 -0.25590944735E+02 -0.28675294511E+02  0.20160722640E+02  0.47787266076E+02  0.19999977349E+02 0.  0.
        -12    1    1    2    0    0  0.25590944735E+02  0.28675294511E+02 -0.20160722640E+02  0.43400733924E+02  0.00000000000E+00 0.  1.
         11    1    3    3    0    0 -0.13955326910E+02 -0.17808851667E+02  0.11125140745E+02  0.25212598116E+02  0.51100000000E-03 0. -1.
        -11    1    3    3    0    0 -0.61625562984E+01 -0.12875224867E+02  0.87396858201E+01  0.16737103214E+02  0.51100000000E-03 0.  1.
        -12    1    3    3    0    0 -0.54730615261E+01  0.20087820230E+01  0.29589607493E+00  0.58375647466E+01  0.00000000000E+00 0.  1.
</event>
<event>
 7    1  0.2294216E-010  0.4778727E+02  0.7816164E-02  0.1312668E+00
        -11   -1    0    0    0    0  0.00000000000E+00  0.00000000000E+00  0.45593999997E+02  0.45594000000E+02  0.51100000000E-03 0.  1.
         11   -1    0    0    0    0 -0.00000000000E+00 -0.00000000000E+00 -0.45593999997E+02  0.45594000000E+02  0.51100000000E-03 0. -1.
    9900012    2    1    2    0    0 -0.51686116695E+00 -0.18842957967E+01 -0.43356727768E+02  0.47787267761E+02  0.19999985031E+02 0.  0.
        -12    1    1    2    0    0  0.51686116695E+00  0.18842957967E+01  0.43356727768E+02  0.43400732239E+02  0.00000000000E+00 0.  1.
         11    1    3    3    0    0 -0.37079509100E+01  0.51936133035E+00 -0.12688847615E+02  0.13229719959E+02  0.51100000000E-03 0. -1.
        -11    1    3    3    0    0  0.21560259085E+01  0.45915324578E+01 -0.24959305138E+02  0.25469541245E+02  0.51100000000E-03 0.  1.
         12    1    3    3    0    0  0.10350638346E+01 -0.69951895849E+01 -0.57085750151E+01  0.90880065566E+01  0.00000000000E+00 0. -1.
</event>
<event>
 7    1  0.2294216E-010  0.4778729E+02  0.7816164E-02  0.1312668E+00
        -11   -1    0    0    0    0  0.00000000000E+00  0.00000000000E+00  0.45593999997E+02  0.45594000000E+02  0.51100000000E-03 0.  1.
         11   -1    0    0    0    0 -0.00000000000E+00 -0.00000000000E+00 -0.45593999997E+02  0.45594000000E+02  0.51100000000E-03 0. -1.
    9900012    2    1    2    0    0 -0.42365794718E+01  0.41790503457E+01 -0.42990796479E+02  0.47787289760E+02  0.20000085331E+02 0.  0.
        -12    1    1    2    0    0  0.42365794718E+01 -0.41790503457E+01  0.42990796479E+02  0.43400710240E+02  0.00000000000E+00 0.  1.
         11    1    3    3    0    0 -0.40666907883E+01  0.16362399605E+01 -0.31748013955E+01  0.54124504005E+01  0.51100000000E-03 0. -1.
        -11    1    3    3    0    0 -0.31924129776E+00 -0.34316647958E+01 -0.17928943529E+01  0.38849335514E+01  0.51100000000E-03 0.  1.
        -12    1    3    3    0    0  0.14935261421E+00  0.59744751810E+01 -0.38023100731E+02  0.38489905808E+02  0.00000000000E+00 0.  1.
</event>
<event>
 7    1  0.2294216E-010  0.4778727E+02  0.7816164E-02  0.1312668E+00
        -11   -1    0    0    0    0  0.00000000000E+00  0.00000000000E+00  0.45593999997E+02  0.45594000000E+02  0.51100000000E-03 0.  1.
         11   -1    0    0    0    0 -0.00000000000E+00 -0.00000000000E+00 -0.45593999997E+02  0.45594000000E+02  0.51100000000E-03 0. -1.
    9900012    2    1    2    0    0 -0.31226700202E+00  0.33444137269E+02 -0.27658906680E+02  0.47787274809E+02  0.20000017166E+02 0.  0.
        -12    1    1    2    0    0  0.31226700202E+00 -0.33444137269E+02  0.27658906680E+02  0.43400725191E+02  0.00000000000E+00 0.  1.
         11    1    3    3    0    0  0.25792883655E+01  0.12588158506E+02 -0.30117287968E+01  0.13197915504E+02  0.51100000000E-03 0. -1.
        -11    1    3    3    0    0  0.70656966440E+00  0.69825380924E+01 -0.12166663732E+01  0.71228755589E+01  0.51100000000E-03 0.  1.
         12    1    3    3    0    0 -0.35981250319E+01  0.13873440670E+02 -0.23430511510E+02  0.27466483747E+02  0.00000000000E+00 0. -1.
</event>
<event>
 7    1  0.2294216E-010  0.4778728E+02  0.7816164E-02  0.1312668E+00
        -11   -1    0    0    0    0  0.00000000000E+00  0.00000000000E+00  0.45593999997E+02  0.45594000000E+02  0.51100000000E-03 0.  1.
         11   -1    0    0    0    0 -0.00000000000E+00 -0.00000000000E+00 -0.45593999997E+02  0.45594000000E+02  0.51100000000E-03 0. -1.
    9900012    2    1    2    0    0  0.28557601588E+02  0.27773651579E+02 -0.17225269828E+02  0.47787282827E+02  0.20000053723E+02 0.  0.
        -12    1    1    2    0    0 -0.28557601588E+02 -0.27773651579E+02  0.17225269828E+02  0.43400717173E+02  0.00000000000E+00 0.  1.
         11    1    3    3    0    0  0.54427155327E+01  0.30087918091E+01 -0.85950326617E+00  0.62781148959E+01  0.51100000000E-03 0. -1.
        -11    1    3    3    0    0  0.12236548110E+01  0.10157648800E+02  0.51367846488E+00  0.10243975111E+02  0.51100000000E-03 0.  1.
        -12    1    3    3    0    0  0.21891231244E+02  0.14607210969E+02 -0.16879445027E+02  0.31265192820E+02  0.00000000000E+00 0.  1.
</event>
<event>
 7    1  0.2294216E-010  0.4778727E+02  0.7816164E-02  0.1312668E+00
        -11   -1    0    0    0    0  0.00000000000E+00  0.00000000000E+00  0.45593999997E+02  0.45594000000E+02  0.51100000000E-03 0. -1.
         11   -1    0    0    0    0 -0.00000000000E+00 -0.00000000000E+00 -0.45593999997E+02  0.45594000000E+02  0.51100000000E-03 0.  1.
    9900012    2    1    2    0    0  0.37986110770E+02 -0.14161473115E+02 -0.15496177977E+02  0.47787268853E+02  0.19999990007E+02 0.  0.
        -12    1    1    2    0    0 -0.37986110770E+02  0.14161473115E+02  0.15496177977E+02  0.43400731147E+02  0.00000000000E+00 0.  1.
         11    1    3    3    0    0  0.17265167480E+02 -0.48552283502E+01 -0.11319077324E+02  0.21208035321E+02  0.51100000000E-03 0.  1.
        -11    1    3    3    0    0  0.22106828752E+02 -0.65816218218E+01 -0.28299776937E+01  0.23238726240E+02  0.51100000000E-03 0. -1.
        -12    1    3    3    0    0 -0.13858854616E+01 -0.27246229435E+01 -0.13471229594E+01  0.33405072915E+01  0.00000000000E+00 0.  1.
</event>
<event>
 7    1  0.2294216E-010  0.4778727E+02  0.7816164E-02  0.1312668E+00
        -11   -1    0    0    0    0  0.00000000000E+00  0.00000000000E+00  0.45593999997E+02  0.45594000000E+02  0.51100000000E-03 0. -1.
         11   -1    0    0    0    0 -0.00000000000E+00 -0.00000000000E+00 -0.45593999997E+02  0.45594000000E+02  0.51100000000E-03 0.  1.
    9900012    2    1    2    0    0 -0.41796276598E+02  0.91830924290E+01  0.72363978473E+01  0.47787269847E+02  0.19999994540E+02 0.  0.
        -12    1    1    2    0    0  0.41796276598E+02 -0.91830924290E+01 -0.72363978473E+01  0.43400730153E+02  0.00000000000E+00 0.  1.
         11    1    3    3    0    0 -0.88024741591E+01  0.78283249623E+01  0.27993507368E+01  0.12107955560E+02  0.51100000000E-03 0. -1.
        -11    1    3    3    0    0 -0.73956805332E+01  0.57095715616E+01  0.23220287928E+01  0.96274148109E+01  0.51100000000E-03 0.  1.
        -12    1    3    3    0    0 -0.25598121906E+02 -0.43548040949E+01  0.21150183177E+01  0.26051899476E+02  0.00000000000E+00 0.  1.
</event>
<event>
 7    1  0.2294216E-010  0.4778727E+02  0.7816164E-02  0.1312668E+00
        -11   -1    0    0    0    0  0.00000000000E+00  0.00000000000E+00  0.45593999997E+02  0.45594000000E+02  0.51100000000E-03 0.  1.
         11   -1    0    0    0    0 -0.00000000000E+00 -0.00000000000E+00 -0.45593999997E+02  0.45594000000E+02  0.51100000000E-03 0. -1.
    9900012    2    1    2    0    0  0.25582122259E+02 -0.13690068331E+02 -0.32276310170E+02  0.47787272490E+02  0.20000006593E+02 0.  0.
        -12    1    1    2    0    0 -0.25582122259E+02  0.13690068331E+02  0.32276310170E+02  0.43400727510E+02  0.00000000000E+00 0.  1.
         11    1    3    3    0    0  0.39014923682E+01 -0.99577485813E+00 -0.84701663818E+01  0.93785355501E+01  0.51100000000E-03 0. -1.
        -11    1    3    3    0    0  0.22300627301E+02 -0.72441558920E+01 -0.14389534634E+02  0.27510988347E+02  0.51100000000E-03 0.  1.
        -12    1    3    3    0    0 -0.61999741007E+00 -0.54501375812E+01 -0.94166091543E+01  0.10897748593E+02  0.00000000000E+00 0.  1.
</event>
<event>
 7    1  0.2294216E-010  0.4778727E+02  0.7816164E-02  0.1312668E+00
        -11   -1    0    0    0    0  0.00000000000E+00  0.00000000000E+00  0.45593999997E+02  0.45594000000E+02  0.51100000000E-03 0.  1.
         11   -1    0    0    0    0 -0.00000000000E+00 -0.00000000000E+00 -0.45593999997E+02  0.45594000000E+02  0.51100000000E-03 0. -1.
    9900012    2    1    2    0    0  0.42044531773E+02  0.11227002129E+01 -0.10706078957E+02  0.47787271499E+02  0.20000002072E+02 0.  0.
        -12    1    1    2    0    0 -0.42044531773E+02 -0.11227002129E+01  0.10706078957E+02  0.43400728501E+02  0.00000000000E+00 0.  1.
         11    1    3    3    0    0  0.16655626737E+02 -0.60901200173E+01 -0.24159555445E+01  0.17897941370E+02  0.51100000000E-03 0. -1.
        -11    1    3    3    0    0  0.86712803087E+00  0.17564348755E+01  0.19472061333E+01  0.27619895873E+01  0.51100000000E-03 0.  1.
        -12    1    3    3    0    0  0.24521777005E+02  0.54563853547E+01 -0.10237329546E+02  0.27127340542E+02  0.00000000000E+00 0.  1.
</event>
<event>
 7    1  0.2294216E-010  0.4778727E+02  0.7816164E-02  0.1312668E+00
        -11   -1    0    0    0    0  0.00000000000E+00  0.00000000000E+00  0.45593999997E+02  0.45594000000E+02  0.51100000000E-03 0.  1.
         11   -1    0    0    0    0 -0.00000000000E+00 -0.00000000000E+00 -0.45593999997E+02  0.45594000000E+02  0.51100000000E-03 0. -1.
    9900012    2    1    2    0    0 -0.87753840833E+00 -0.78487605303E+01 -0.42676106262E+02  0.47787272343E+02  0.20000005920E+02 0.  0.
        -12    1    1    2    0    0  0.87753840833E+00  0.78487605303E+01  0.42676106262E+02  0.43400727657E+02  0.00000000000E+00 0.  1.
         11    1    3    3    0    0 -0.50789984829E+01  0.13807914557E+00 -0.10760003705E+02  0.11899284493E+02  0.51100000000E-03 0. -1.
        -11    1    3    3    0    0 -0.15277888704E+01  0.33595630779E+01 -0.76935498619E+01  0.85329662278E+01  0.51100000000E-03 0.  1.
         12    1    3    3    0    0  0.57292489450E+01 -0.11346402754E+02 -0.24222552695E+02  0.27355021622E+02  0.00000000000E+00 0. -1.
</event>
<event>
 7    1  0.2294216E-010  0.4778727E+02  0.7816164E-02  0.1312668E+00
        -11   -1    0    0    0    0  0.00000000000E+00  0.00000000000E+00  0.45593999997E+02  0.45594000000E+02  0.51100000000E-03 0.  1.
         11   -1    0    0    0    0 -0.00000000000E+00 -0.00000000000E+00 -0.45593999997E+02  0.45594000000E+02  0.51100000000E-03 0. -1.
    9900012    2    1    2    0    0  0.69471517654E+01  0.14055893617E+02 -0.40469645289E+02  0.47787271287E+02  0.20000001106E+02 0.  0.
        -12    1    1    2    0    0 -0.69471517654E+01 -0.14055893617E+02  0.40469645289E+02  0.43400728713E+02  0.00000000000E+00 0.  1.
         11    1    3    3    0    0  0.52417419154E+01  0.13139318781E+02 -0.18635618307E+02  0.23396662716E+02  0.51100000000E-03 0. -1.
        -11    1    3    3    0    0 -0.25776845373E+01  0.45655217489E+01 -0.10719291196E+02  0.11932797259E+02  0.51100000000E-03 0.  1.
         12    1    3    3    0    0  0.42830943873E+01 -0.36489469121E+01 -0.11114735785E+02  0.12457811312E+02  0.00000000000E+00 0. -1.
</event>
<event>
 7    1  0.2294216E-010  0.4778727E+02  0.7816164E-02  0.1312668E+00
        -11   -1    0    0    0    0  0.00000000000E+00  0.00000000000E+00  0.45593999997E+02  0.45594000000E+02  0.51100000000E-03 0.  1.
         11   -1    0    0    0    0 -0.00000000000E+00 -0.00000000000E+00 -0.45593999997E+02  0.45594000000E+02  0.51100000000E-03 0. -1.
    9900012    2    1    2    0    0 -0.25520142405E+02 -0.50794098083E+01  0.34735357775E+02  0.47787272447E+02  0.20000006395E+02 0.  0.
        -12    1    1    2    0    0  0.25520142405E+02  0.50794098083E+01 -0.34735357775E+02  0.43400727553E+02  0.00000000000E+00 0.  1.
         11    1    3    3    0    0 -0.40710934413E+01 -0.71030602511E+01  0.15442130409E+02  0.17478176637E+02  0.51100000000E-03 0. -1.
        -11    1    3    3    0    0 -0.82331615530E+01 -0.36160236752E+01  0.69131611156E+01  0.11342502953E+02  0.51100000000E-03 0.  1.
        -12    1    3    3    0    0 -0.13215887411E+02  0.56396741180E+01  0.12380066251E+02  0.18966592856E+02  0.00000000000E+00 0.  1.
</event>
<event>
 7    1  0.2294216E-010  0.4778727E+02  0.7816164E-02  0.1312668E+00
        -11   -1    0    0    0    0  0.00000000000E+00  0.00000000000E+00  0.45593999997E+02  0.45594000000E+02  0.51100000000E-03 0.  1.
         11   -1    0    0    0    0 -0.00000000000E+00 -0.00000000000E+00 -0.45593999997E+02  0.45594000000E+02  0.51100000000E-03 0. -1.
    9900012    2    1    2    0    0  0.15094097586E+02 -0.22358060615E+02 -0.33998652867E+02  0.47787273587E+02  0.20000011593E+02 0.  0.
        -12    1    1    2    0    0 -0.15094097586E+02  0.22358060615E+02  0.33998652867E+02  0.43400726413E+02  0.00000000000E+00 0.  1.
         11    1    3    3    0    0  0.89409079448E+00 -0.11717074995E+01 -0.35357029513E+01  0.38305994876E+01  0.51100000000E-03 0. -1.
        -11    1    3    3    0    0  0.74813291006E+01 -0.52774026462E+00 -0.13315588289E+01  0.76172071046E+01  0.51100000000E-03 0.  1.
         12    1    3    3    0    0  0.67186776910E+01 -0.20658612851E+02 -0.29131391086E+02  0.36339466995E+02  0.00000000000E+00 0. -1.
</event>
<event>
 7    1  0.2294216E-010  0.4778727E+02  0.7816164E-02  0.1312668E+00
        -11   -1    0    0    0    0  0.00000000000E+00  0.00000000000E+00  0.45593999997E+02  0.45594000000E+02  0.51100000000E-03 0. -1.
         11   -1    0    0    0    0 -0.00000000000E+00 -0.00000000000E+00 -0.45593999997E+02  0.45594000000E+02  0.51100000000E-03 0.  1.
    9900012    2    1    2    0    0  0.26676015956E+02  0.30890633075E+02  0.14757451314E+02  0.47787269495E+02  0.19999992935E+02 0.  0.
        -12    1    1    2    0    0 -0.26676015956E+02 -0.30890633075E+02 -0.14757451314E+02  0.43400730505E+02  0.00000000000E+00 0.  1.
         11    1    3    3    0    0  0.12543015936E+02  0.14346329942E+02  0.99516607892E+00  0.19082316090E+02  0.51100000000E-03 0. -1.
        -11    1    3    3    0    0  0.26424185629E+01  0.11006663843E+02  0.22885245179E+01  0.11548435805E+02  0.51100000000E-03 0.  1.
        -12    1    3    3    0    0  0.11490581458E+02  0.55376392900E+01  0.11473760718E+02  0.17156517599E+02  0.00000000000E+00 0.  1.
</event>
<event>
 7    1  0.2294216E-010  0.4778727E+02  0.7816164E-02  0.1312668E+00
        -11   -1    0    0    0    0  0.00000000000E+00  0.00000000000E+00  0.45593999997E+02  0.45594000000E+02  0.51100000000E-03 0.  1.
         11   -1    0    0    0    0 -0.00000000000E+00 -0.00000000000E+00 -0.45593999997E+02  0.45594000000E+02  0.51100000000E-03 0. -1.
    9900012    2    1    2    0    0 -0.36149751528E+02  0.15779607544E+02 -0.18105886111E+02  0.47787266577E+02  0.19999979633E+02 0.  0.
        -12    1    1    2    0    0  0.36149751528E+02 -0.15779607544E+02  0.18105886111E+02  0.43400733423E+02  0.00000000000E+00 0.  1.
         11    1    3    3    0    0  0.14540875148E+00  0.38589651875E+01  0.84886647455E-01  0.38626366678E+01  0.51100000000E-03 0. -1.
        -11    1    3    3    0    0  0.19691814705E+00  0.40014726748E+00  0.10145912304E+01  0.11082825535E+01  0.51100000000E-03 0.  1.
         12    1    3    3    0    0 -0.36492078426E+02  0.11520495089E+02 -0.19205363989E+02  0.42816347356E+02  0.00000000000E+00 0. -1.
</event>
<event>
 7    1  0.2294216E-010  0.4778727E+02  0.7816164E-02  0.1312668E+00
        -11   -1    0    0    0    0  0.00000000000E+00  0.00000000000E+00  0.45593999997E+02  0.45594000000E+02  0.51100000000E-03 0. -1.
         11   -1    0    0    0    0 -0.00000000000E+00 -0.00000000000E+00 -0.45593999997E+02  0.45594000000E+02  0.51100000000E-03 0.  1.
    9900012    2    1    2    0    0  0.31178647674E+01  0.32820040571E+02  0.28226707316E+02  0.47787272476E+02  0.20000006526E+02 0.  0.
        -12    1    1    2    0    0 -0.31178647674E+01 -0.32820040571E+02 -0.28226707316E+02  0.43400727524E+02  0.00000000000E+00 0.  1.
         11    1    3    3    0    0  0.43289570905E+01  0.15991369808E+02  0.59022108260E+01  0.17586923287E+02  0.51100000000E-03 0. -1.
        -11    1    3    3    0    0  0.70467110018E+00  0.77366393224E+01  0.22630072054E+01  0.80915604945E+01  0.51100000000E-03 0.  1.
         12    1    3    3    0    0 -0.19157634233E+01  0.90920314405E+01  0.20061489284E+02  0.22108788694E+02  0.00000000000E+00 0. -1.
</event>
<event>
 7    1  0.2294216E-010  0.4778727E+02  0.7816164E-02  0.1312668E+00
        -11   -1    0    0    0    0  0.00000000000E+00  0.00000000000E+00  0.45593999997E+02  0.45594000000E+02  0.51100000000E-03 0. -1.
         11   -1    0    0    0    0 -0.00000000000E+00 -0.00000000000E+00 -0.45593999997E+02  0.45594000000E+02  0.51100000000E-03 0.  1.
    9900012    2    1    2    0    0  0.25457259231E+02  0.11445316815E+02  0.33234864433E+02  0.47787267996E+02  0.19999986103E+02 0.  0.
        -12    1    1    2    0    0 -0.25457259231E+02 -0.11445316815E+02 -0.33234864433E+02  0.43400732004E+02  0.00000000000E+00 0.  1.
         11    1    3    3    0    0  0.19971215776E+01  0.31892728935E+01  0.26179867450E+01  0.45840823556E+01  0.51100000000E-03 0.  1.
        -11    1    3    3    0    0  0.14991704906E+01 -0.40606066209E+01  0.12201025161E+01  0.44971867540E+01  0.51100000000E-03 0. -1.
         12    1    3    3    0    0  0.21960967163E+02  0.12316650543E+02  0.29396775172E+02  0.38705998887E+02  0.00000000000E+00 0. -1.
</event>
<event>
 7    1  0.2294216E-010  0.4778729E+02  0.7816164E-02  0.1312668E+00
        -11   -1    0    0    0    0  0.00000000000E+00  0.00000000000E+00  0.45593999997E+02  0.45594000000E+02  0.51100000000E-03 0.  1.
         11   -1    0    0    0    0 -0.00000000000E+00 -0.00000000000E+00 -0.45593999997E+02  0.45594000000E+02  0.51100000000E-03 0. -1.
    9900012    2    1    2    0    0  0.36707676590E+02  0.79806684934E+01 -0.21736530702E+02  0.47787293125E+02  0.20000100676E+02 0.  0.
        -12    1    1    2    0    0 -0.36707676590E+02 -0.79806684934E+01  0.21736530702E+02  0.43400706875E+02  0.00000000000E+00 0.  1.
         11    1    3    3    0    0  0.21872054928E+02 -0.11898262029E+01 -0.14295179758E+02  0.26156349855E+02  0.51100000000E-03 0. -1.
        -11    1    3    3    0    0  0.14956212940E+02  0.46304596883E+01 -0.47943456891E+01  0.16374224051E+02  0.51100000000E-03 0.  1.
        -12    1    3    3    0    0 -0.12059127758E+00  0.45400350080E+01 -0.26470052549E+01  0.52567192191E+01  0.00000000000E+00 0.  1.
</event>
<event>
 7    1  0.2294216E-010  0.4778727E+02  0.7816164E-02  0.1312668E+00
        -11   -1    0    0    0    0  0.00000000000E+00  0.00000000000E+00  0.45593999997E+02  0.45594000000E+02  0.51100000000E-03 0.  1.
         11   -1    0    0    0    0 -0.00000000000E+00 -0.00000000000E+00 -0.45593999997E+02  0.45594000000E+02  0.51100000000E-03 0. -1.
    9900012    2    1    2    0    0  0.32721928519E+02  0.13393135405E+02 -0.25169873102E+02  0.47787271965E+02  0.20000004197E+02 0.  0.
        -12    1    1    2    0    0 -0.32721928519E+02 -0.13393135405E+02  0.25169873102E+02  0.43400728035E+02  0.00000000000E+00 0.  1.
         11    1    3    3    0    0  0.51804696986E+01 -0.21862618715E+01 -0.11262715778E+01  0.57345876222E+01  0.51100000000E-03 0. -1.
        -11    1    3    3    0    0  0.21384126641E+02  0.65841506222E+01 -0.10639488020E+02  0.24775605284E+02  0.51100000000E-03 0.  1.
         12    1    3    3    0    0  0.61573321795E+01  0.89952466543E+01 -0.13404113505E+02  0.17277079058E+02  0.00000000000E+00 0. -1.
</event>
<event>
 7    1  0.2294216E-010  0.4778726E+02  0.7816164E-02  0.1312668E+00
        -11   -1    0    0    0    0  0.00000000000E+00  0.00000000000E+00  0.45593999997E+02  0.45594000000E+02  0.51100000000E-03 0. -1.
         11   -1    0    0    0    0 -0.00000000000E+00 -0.00000000000E+00 -0.45593999997E+02  0.45594000000E+02  0.51100000000E-03 0.  1.
    9900012    2    1    2    0    0  0.40771572867E+02 -0.96796366380E+01 -0.11296373303E+02  0.47787256121E+02  0.19999931957E+02 0.  0.
        -12    1    1    2    0    0 -0.40771572867E+02  0.96796366380E+01  0.11296373303E+02  0.43400743879E+02  0.00000000000E+00 0.  1.
         11    1    3    3    0    0  0.19093886070E+02 -0.33401062109E+01 -0.27575814696E+00  0.19385789578E+02  0.51100000000E-03 0. -1.
        -11    1    3    3    0    0  0.36291739878E+00 -0.11409581033E+01  0.24004109253E+01  0.26824368219E+01  0.51100000000E-03 0.  1.
         12    1    3    3    0    0  0.21314769398E+02 -0.51985723237E+01 -0.13421026082E+02  0.25719029721E+02  0.00000000000E+00 0. -1.
</event>
<event>
 7    1  0.2294216E-010  0.4778728E+02  0.7816164E-02  0.1312668E+00
        -11   -1    0    0    0    0  0.00000000000E+00  0.00000000000E+00  0.45593999997E+02  0.45594000000E+02  0.51100000000E-03 0. -1.
         11   -1    0    0    0    0 -0.00000000000E+00 -0.00000000000E+00 -0.45593999997E+02  0.45594000000E+02  0.51100000000E-03 0.  1.
    9900012    2    1    2    0    0 -0.31857076567E+02 -0.50389388872E+01  0.29040625104E+02  0.47787284119E+02  0.20000059613E+02 0.  0.
        -12    1    1    2    0    0  0.31857076567E+02  0.50389388872E+01 -0.29040625104E+02  0.43400715881E+02  0.00000000000E+00 0.  1.
         11    1    3    3    0    0 -0.19391970306E+02 -0.18777057639E+01  0.13363815582E+02  0.23625534035E+02  0.51100000000E-03 0. -1.
        -11    1    3    3    0    0 -0.10121796029E+02  0.39402643579E+01  0.84405342616E+01  0.13755691802E+02  0.51100000000E-03 0.  1.
        -12    1    3    3    0    0 -0.23433102317E+01 -0.71014974812E+01  0.72362752604E+01  0.10406058282E+02  0.00000000000E+00 0.  1.
</event>
<event>
 7    1  0.2294216E-010  0.4778727E+02  0.7816164E-02  0.1312668E+00
        -11   -1    0    0    0    0  0.00000000000E+00  0.00000000000E+00  0.45593999997E+02  0.45594000000E+02  0.51100000000E-03 0.  1.
         11   -1    0    0    0    0 -0.00000000000E+00 -0.00000000000E+00 -0.45593999997E+02  0.45594000000E+02  0.51100000000E-03 0. -1.
    9900012    2    1    2    0    0  0.41697534646E+02  0.93857072174E+01 -0.75397429518E+01  0.47787267065E+02  0.19999981857E+02 0.  0.
        -12    1    1    2    0    0 -0.41697534646E+02 -0.93857072174E+01  0.75397429518E+01  0.43400732935E+02  0.00000000000E+00 0.  1.
         11    1    3    3    0    0  0.56675996138E+00 -0.15438844446E+01  0.22340545597E+00  0.16597307888E+01  0.51100000000E-03 0. -1.
        -11    1    3    3    0    0  0.87797075547E+01  0.31269093716E+01 -0.88204293515E+01  0.12832022489E+02  0.51100000000E-03 0.  1.
         12    1    3    3    0    0  0.32351067130E+02  0.78026822905E+01  0.10572809437E+01  0.33295513787E+02  0.00000000000E+00 0. -1.
</event>
<event>
 7    1  0.2294216E-010  0.4778727E+02  0.7816164E-02  0.1312668E+00
        -11   -1    0    0    0    0  0.00000000000E+00  0.00000000000E+00  0.45593999997E+02  0.45594000000E+02  0.51100000000E-03 0.  1.
         11   -1    0    0    0    0 -0.00000000000E+00 -0.00000000000E+00 -0.45593999997E+02  0.45594000000E+02  0.51100000000E-03 0. -1.
    9900012    2    1    2    0    0 -0.43307616543E+02  0.27407539891E+00 -0.28281167959E+01  0.47787274055E+02  0.20000013727E+02 0.  0.
        -12    1    1    2    0    0  0.43307616543E+02 -0.27407539891E+00  0.28281167959E+01  0.43400725945E+02  0.00000000000E+00 0.  1.
         11    1    3    3    0    0 -0.46474923993E+01  0.33731427786E+01  0.28792936338E+01  0.64239870716E+01  0.51100000000E-03 0. -1.
        -11    1    3    3    0    0 -0.41421282833E+01 -0.18593663814E+01 -0.50855687932E+01  0.68174394216E+01  0.51100000000E-03 0.  1.
         12    1    3    3    0    0 -0.34517995860E+02 -0.12397009982E+01 -0.62184163647E+00  0.34545847562E+02  0.00000000000E+00 0. -1.
</event>
<event>
 7    1  0.2294216E-010  0.4778727E+02  0.7816164E-02  0.1312668E+00
        -11   -1    0    0    0    0  0.00000000000E+00  0.00000000000E+00  0.45593999997E+02  0.45594000000E+02  0.51100000000E-03 0.  1.
         11   -1    0    0    0    0 -0.00000000000E+00 -0.00000000000E+00 -0.45593999997E+02  0.45594000000E+02  0.51100000000E-03 0. -1.
    9900012    2    1    2    0    0  0.25927446247E+02  0.53446436000E+01 -0.34392228902E+02  0.47787273129E+02  0.20000009504E+02 0.  0.
        -12    1    1    2    0    0 -0.25927446247E+02 -0.53446436000E+01  0.34392228902E+02  0.43400726871E+02  0.00000000000E+00 0.  1.
         11    1    3    3    0    0  0.81618514694E+01  0.52992893650E+00 -0.92978132696E+01  0.12383294228E+02  0.51100000000E-03 0. -1.
        -11    1    3    3    0    0  0.10131173667E+02  0.95958899422E+01 -0.80089315798E+01  0.16089274967E+02  0.51100000000E-03 0.  1.
         12    1    3    3    0    0  0.76344211104E+01 -0.47811752788E+01 -0.17085484053E+02  0.19314703934E+02  0.00000000000E+00 0. -1.
</event>
<event>
 7    1  0.2294216E-010  0.4778727E+02  0.7816164E-02  0.1312668E+00
        -11   -1    0    0    0    0  0.00000000000E+00  0.00000000000E+00  0.45593999997E+02  0.45594000000E+02  0.51100000000E-03 0. -1.
         11   -1    0    0    0    0 -0.00000000000E+00 -0.00000000000E+00 -0.45593999997E+02  0.45594000000E+02  0.51100000000E-03 0.  1.
    9900012    2    1    2    0    0  0.69684665005E+01  0.39949293436E+02  0.15463427506E+02  0.47787272337E+02  0.20000005894E+02 0.  0.
        -12    1    1    2    0    0 -0.69684665005E+01 -0.39949293436E+02 -0.15463427506E+02  0.43400727663E+02  0.00000000000E+00 0.  1.
         11    1    3    3    0    0  0.27118288647E+00  0.35340488878E+00 -0.97744249273E+00  0.10741644479E+01  0.51100000000E-03 0.  1.
        -11    1    3    3    0    0 -0.49743728333E+01  0.19855614401E+02  0.49341187542E+01  0.21055529831E+02  0.51100000000E-03 0. -1.
         12    1    3    3    0    0  0.11671656447E+02  0.19740274147E+02  0.11506751245E+02  0.25657578058E+02  0.00000000000E+00 0. -1.
</event>
<event>
 7    1  0.2294216E-010  0.4778727E+02  0.7816164E-02  0.1312668E+00
        -11   -1    0    0    0    0  0.00000000000E+00  0.00000000000E+00  0.45593999997E+02  0.45594000000E+02  0.51100000000E-03 0.  1.
         11   -1    0    0    0    0 -0.00000000000E+00 -0.00000000000E+00 -0.45593999997E+02  0.45594000000E+02  0.51100000000E-03 0. -1.
    9900012    2    1    2    0    0  0.19663797794E+02 -0.11908347094E+02 -0.36812354326E+02  0.47787272987E+02  0.20000008858E+02 0.  0.
        -12    1    1    2    0    0 -0.19663797794E+02  0.11908347094E+02  0.36812354326E+02  0.43400727013E+02  0.00000000000E+00 0.  1.
         11    1    3    3    0    0  0.13581395216E+02 -0.51421986659E-01 -0.18823482632E+02  0.23211644467E+02  0.51100000000E-03 0. -1.
        -11    1    3    3    0    0 -0.15305110181E+01  0.42714600689E+00 -0.11920382643E+00  0.15934639943E+01  0.51100000000E-03 0.  1.
         12    1    3    3    0    0  0.76129135961E+01 -0.12284071114E+02 -0.17869667868E+02  0.22982164526E+02  0.00000000000E+00 0. -1.
</event>
<event>
 7    1  0.2294216E-010  0.4778727E+02  0.7816164E-02  0.1312668E+00
        -11   -1    0    0    0    0  0.00000000000E+00  0.00000000000E+00  0.45593999997E+02  0.45594000000E+02  0.51100000000E-03 0.  1.
         11   -1    0    0    0    0 -0.00000000000E+00 -0.00000000000E+00 -0.45593999997E+02  0.45594000000E+02  0.51100000000E-03 0. -1.
    9900012    2    1    2    0    0 -0.24009182297E+02 -0.34209036709E+02  0.11701459253E+02  0.47787272174E+02  0.20000005151E+02 0.  0.
        -12    1    1    2    0    0  0.24009182297E+02  0.34209036709E+02 -0.11701459253E+02  0.43400727826E+02  0.00000000000E+00 0.  1.
         11    1    3    3    0    0 -0.66641259918E+01 -0.30720081025E+01 -0.31062928395E+00  0.73446783340E+01  0.51100000000E-03 0. -1.
        -11    1    3    3    0    0 -0.28107907753E+01 -0.37795442593E+01 -0.34317499731E+01  0.58277274927E+01  0.51100000000E-03 0.  1.
         12    1    3    3    0    0 -0.14534265530E+02 -0.27357484347E+02  0.15443838510E+02  0.34614866347E+02  0.00000000000E+00 0. -1.
</event>
<event>
 7    1  0.2294216E-010  0.4778727E+02  0.7816164E-02  0.1312668E+00
        -11   -1    0    0    0    0  0.00000000000E+00  0.00000000000E+00  0.45593999997E+02  0.45594000000E+02  0.51100000000E-03 0.  1.
         11   -1    0    0    0    0 -0.00000000000E+00 -0.00000000000E+00 -0.45593999997E+02  0.45594000000E+02  0.51100000000E-03 0. -1.
    9900012    2    1    2    0    0 -0.23034171177E+02  0.79901310516E+01 -0.35905540524E+02  0.47787273320E+02  0.20000010377E+02 0.  0.
        -12    1    1    2    0    0  0.23034171177E+02 -0.79901310516E+01  0.35905540524E+02  0.43400726680E+02  0.00000000000E+00 0.  1.
         11    1    3    3    0    0 -0.18804417105E+01 -0.24560292525E+01 -0.84716226167E+01  0.90186767730E+01  0.51100000000E-03 0. -1.
        -11    1    3    3    0    0 -0.13950403167E+02  0.32288944276E+00 -0.92362186388E+01  0.16733969676E+02  0.51100000000E-03 0.  1.
         12    1    3    3    0    0 -0.72033262991E+01  0.10123270861E+02 -0.18197699268E+02  0.22034626871E+02  0.00000000000E+00 0. -1.
</event>
<event>
 7    1  0.2294216E-010  0.4778727E+02  0.7816164E-02  0.1312668E+00
        -11   -1    0    0    0    0  0.00000000000E+00  0.00000000000E+00  0.45593999997E+02  0.45594000000E+02  0.51100000000E-03 0. -1.
         11   -1    0    0    0    0 -0.00000000000E+00 -0.00000000000E+00 -0.45593999997E+02  0.45594000000E+02  0.51100000000E-03 0.  1.
    9900012    2    1    2    0    0 -0.62700854309E+01 -0.28758506101E+02  0.31894478190E+02  0.47787269782E+02  0.19999994243E+02 0.  0.
        -12    1    1    2    0    0  0.62700854309E+01  0.28758506101E+02 -0.31894478190E+02  0.43400730218E+02  0.00000000000E+00 0.  1.
         11    1    3    3    0    0 -0.66371842470E+01 -0.84943322135E+01  0.15653187907E+02  0.19006003956E+02  0.51100000000E-03 0.  1.
        -11    1    3    3    0    0 -0.45940784453E+01 -0.59558973347E+01  0.15455064777E+01  0.76789882378E+01  0.51100000000E-03 0. -1.
         12    1    3    3    0    0  0.49611772614E+01 -0.14308276553E+02  0.14695783805E+02  0.21102277588E+02  0.00000000000E+00 0. -1.
</event>
<event>
 7    1  0.2294216E-010  0.4778727E+02  0.7816164E-02  0.1312668E+00
        -11   -1    0    0    0    0  0.00000000000E+00  0.00000000000E+00  0.45593999997E+02  0.45594000000E+02  0.51100000000E-03 0. -1.
         11   -1    0    0    0    0 -0.00000000000E+00 -0.00000000000E+00 -0.45593999997E+02  0.45594000000E+02  0.51100000000E-03 0.  1.
    9900012    2    1    2    0    0 -0.10954929632E+02  0.15747044400E+01  0.41965858525E+02  0.47787268911E+02  0.19999990273E+02 0.  0.
        -12    1    1    2    0    0  0.10954929632E+02 -0.15747044400E+01 -0.41965858525E+02  0.43400731089E+02  0.00000000000E+00 0.  1.
         11    1    3    3    0    0 -0.17488349192E+01  0.49458293611E+01  0.14447578095E+02  0.15370496567E+02  0.51100000000E-03 0. -1.
        -11    1    3    3    0    0 -0.50727537839E+01  0.32673227587E+01  0.22085100275E+02  0.22894538287E+02  0.51100000000E-03 0.  1.
        -12    1    3    3    0    0 -0.41333409289E+01 -0.66384476798E+01  0.54331801545E+01  0.95222340563E+01  0.00000000000E+00 0.  1.
</event>
<event>
 7    1  0.2294216E-010  0.4778726E+02  0.7816164E-02  0.1312668E+00
        -11   -1    0    0    0    0  0.00000000000E+00  0.00000000000E+00  0.45593999997E+02  0.45594000000E+02  0.51100000000E-03 0.  1.
         11   -1    0    0    0    0 -0.00000000000E+00 -0.00000000000E+00 -0.45593999997E+02  0.45594000000E+02  0.51100000000E-03 0. -1.
    9900012    2    1    2    0    0  0.34258357201E+01 -0.29902248313E+02 -0.31268888275E+02  0.47787260623E+02  0.19999952483E+02 0.  0.
        -12    1    1    2    0    0 -0.34258357201E+01  0.29902248313E+02  0.31268888275E+02  0.43400739377E+02  0.00000000000E+00 0.  1.
         11    1    3    3    0    0  0.27870813864E+01 -0.17529845843E+02 -0.13891215272E+02  0.22539502655E+02  0.51100000000E-03 0. -1.
        -11    1    3    3    0    0  0.44323696514E+01 -0.69033497784E+01 -0.19308678880E+01  0.84279528921E+01  0.51100000000E-03 0.  1.
        -12    1    3    3    0    0 -0.37936153178E+01 -0.54690526910E+01 -0.15446805115E+02  0.16819805076E+02  0.00000000000E+00 0.  1.
</event>
<event>
 7    1  0.2294216E-010  0.4778727E+02  0.7816164E-02  0.1312668E+00
        -11   -1    0    0    0    0  0.00000000000E+00  0.00000000000E+00  0.45593999997E+02  0.45594000000E+02  0.51100000000E-03 0.  1.
         11   -1    0    0    0    0 -0.00000000000E+00 -0.00000000000E+00 -0.45593999997E+02  0.45594000000E+02  0.51100000000E-03 0. -1.
    9900012    2    1    2    0    0  0.23240947059E+02  0.33406906563E+02 -0.15081784858E+02  0.47787271195E+02  0.20000000687E+02 0.  0.
        -12    1    1    2    0    0 -0.23240947059E+02 -0.33406906563E+02  0.15081784858E+02  0.43400728805E+02  0.00000000000E+00 0.  1.
         11    1    3    3    0    0  0.80693435357E+01  0.10404018264E+02  0.11941524290E+01  0.13220586274E+02  0.51100000000E-03 0. -1.
        -11    1    3    3    0    0  0.14956866907E+02  0.19674585210E+02 -0.85498060939E+01  0.26151412110E+02  0.51100000000E-03 0.  1.
        -12    1    3    3    0    0  0.21473661610E+00  0.33283030889E+01 -0.77261311935E+01  0.84152728111E+01  0.00000000000E+00 0.  1.
</event>
<event>
 7    1  0.2294216E-010  0.4778728E+02  0.7816164E-02  0.1312668E+00
        -11   -1    0    0    0    0  0.00000000000E+00  0.00000000000E+00  0.45593999997E+02  0.45594000000E+02  0.51100000000E-03 0.  1.
         11   -1    0    0    0    0 -0.00000000000E+00 -0.00000000000E+00 -0.45593999997E+02  0.45594000000E+02  0.51100000000E-03 0. -1.
    9900012    2    1    2    0    0  0.28801775355E+02  0.27200715753E+01 -0.32352461512E+02  0.47787276287E+02  0.20000023901E+02 0.  0.
        -12    1    1    2    0    0 -0.28801775355E+02 -0.27200715753E+01  0.32352461512E+02  0.43400723713E+02  0.00000000000E+00 0.  1.
         11    1    3    3    0    0  0.59131932746E+01 -0.90660202173E-01 -0.95243204727E+01  0.11211010423E+02  0.51100000000E-03 0. -1.
        -11    1    3    3    0    0  0.78478122579E+01  0.88836249875E+01 -0.63217272378E+01  0.13433956442E+02  0.51100000000E-03 0.  1.
        -12    1    3    3    0    0  0.15040769822E+02 -0.60728932101E+01 -0.16506413801E+02  0.23142309422E+02  0.00000000000E+00 0.  1.
</event>
<event>
 7    1  0.2294216E-010  0.4778727E+02  0.7816164E-02  0.1312668E+00
        -11   -1    0    0    0    0  0.00000000000E+00  0.00000000000E+00  0.45593999997E+02  0.45594000000E+02  0.51100000000E-03 0.  1.
         11   -1    0    0    0    0 -0.00000000000E+00 -0.00000000000E+00 -0.45593999997E+02  0.45594000000E+02  0.51100000000E-03 0. -1.
    9900012    2    1    2    0    0  0.17573824210E+02 -0.18020055202E+02 -0.35356211264E+02  0.47787270032E+02  0.19999995383E+02 0.  0.
        -12    1    1    2    0    0 -0.17573824210E+02  0.18020055202E+02  0.35356211264E+02  0.43400729968E+02  0.00000000000E+00 0.  1.
         11    1    3    3    0    0  0.16851491172E+02 -0.10608705784E+02 -0.24608787098E+02  0.31656117826E+02  0.51100000000E-03 0. -1.
        -11    1    3    3    0    0  0.29250647735E+01 -0.89000219801E+01 -0.82355066594E+01  0.12473570675E+02  0.51100000000E-03 0.  1.
        -12    1    3    3    0    0 -0.22027317358E+01  0.14886725620E+01 -0.25119175067E+01  0.36575815311E+01  0.00000000000E+00 0.  1.
</event>
<event>
 7    1  0.2294216E-010  0.4778727E+02  0.7816164E-02  0.1312668E+00
        -11   -1    0    0    0    0  0.00000000000E+00  0.00000000000E+00  0.45593999997E+02  0.45594000000E+02  0.51100000000E-03 0.  1.
         11   -1    0    0    0    0 -0.00000000000E+00 -0.00000000000E+00 -0.45593999997E+02  0.45594000000E+02  0.51100000000E-03 0. -1.
    9900012    2    1    2    0    0 -0.10357637001E+02  0.41771605830E+02 -0.56103460030E+01  0.47787266364E+02  0.19999978660E+02 0.  0.
        -12    1    1    2    0    0  0.10357637001E+02 -0.41771605830E+02  0.56103460030E+01  0.43400733636E+02  0.00000000000E+00 0.  1.
         11    1    3    3    0    0  0.17471141294E+01  0.32084037834E+01  0.14613771902E+01  0.39347028060E+01  0.51100000000E-03 0. -1.
        -11    1    3    3    0    0  0.24840355029E+01  0.22941122014E+01  0.17040508240E+01  0.37864459119E+01  0.51100000000E-03 0.  1.
         12    1    3    3    0    0 -0.14588786633E+02  0.36269089845E+02 -0.87757740173E+01  0.40066117646E+02  0.00000000000E+00 0. -1.
</event>
<event>
 7    1  0.2294216E-010  0.4778727E+02  0.7816164E-02  0.1312668E+00
        -11   -1    0    0    0    0  0.00000000000E+00  0.00000000000E+00  0.45593999997E+02  0.45594000000E+02  0.51100000000E-03 0.  1.
         11   -1    0    0    0    0 -0.00000000000E+00 -0.00000000000E+00 -0.45593999997E+02  0.45594000000E+02  0.51100000000E-03 0. -1.
    9900012    2    1    2    0    0 -0.19204748721E+02 -0.35774669509E+02 -0.15328866797E+02  0.47787268333E+02  0.19999987638E+02 0.  0.
        -12    1    1    2    0    0  0.19204748721E+02  0.35774669509E+02  0.15328866797E+02  0.43400731667E+02  0.00000000000E+00 0.  1.
         11    1    3    3    0    0 -0.20467963184E+01 -0.34902546698E+01  0.30373848194E+01  0.50593437946E+01  0.51100000000E-03 0. -1.
        -11    1    3    3    0    0 -0.70856259006E+01 -0.75973885624E+01 -0.65791699349E-01  0.10388971854E+02  0.51100000000E-03 0.  1.
         12    1    3    3    0    0 -0.10072326502E+02 -0.24687026277E+02 -0.18300459917E+02  0.32338952685E+02  0.00000000000E+00 0. -1.
</event>
<event>
 7    1  0.2294216E-010  0.4778726E+02  0.7816164E-02  0.1312668E+00
        -11   -1    0    0    0    0  0.00000000000E+00  0.00000000000E+00  0.45593999997E+02  0.45594000000E+02  0.51100000000E-03 0.  1.
         11   -1    0    0    0    0 -0.00000000000E+00 -0.00000000000E+00 -0.45593999997E+02  0.45594000000E+02  0.51100000000E-03 0. -1.
    9900012    2    1    2    0    0 -0.13901787205E+02  0.15185777080E+01 -0.41085985414E+02  0.47787263103E+02  0.19999963794E+02 0.  0.
        -12    1    1    2    0    0  0.13901787205E+02 -0.15185777080E+01  0.41085985414E+02  0.43400736897E+02  0.00000000000E+00 0.  1.
         11    1    3    3    0    0 -0.10670222085E+02 -0.50634472384E+01 -0.12210984358E+02  0.16988239359E+02  0.51100000000E-03 0.  1.
        -11    1    3    3    0    0 -0.16201496354E+00 -0.12832143139E+01 -0.10473396953E+02  0.10552958439E+02  0.51100000000E-03 0. -1.
        -12    1    3    3    0    0 -0.30695501570E+01  0.78652392602E+01 -0.18401604103E+02  0.20246065305E+02  0.00000000000E+00 0.  1.
</event>
<event>
 7    1  0.2294216E-010  0.4778727E+02  0.7816164E-02  0.1312668E+00
        -11   -1    0    0    0    0  0.00000000000E+00  0.00000000000E+00  0.45593999997E+02  0.45594000000E+02  0.51100000000E-03 0.  1.
         11   -1    0    0    0    0 -0.00000000000E+00 -0.00000000000E+00 -0.45593999997E+02  0.45594000000E+02  0.51100000000E-03 0. -1.
    9900012    2    1    2    0    0  0.12486663336E+02  0.41528579388E+02 -0.17559573637E+01  0.47787273583E+02  0.20000011574E+02 0.  0.
        -12    1    1    2    0    0 -0.12486663336E+02 -0.41528579388E+02  0.17559573637E+01  0.43400726417E+02  0.00000000000E+00 0.  1.
         11    1    3    3    0    0  0.56470704515E+01  0.18898393309E+02 -0.57599614656E+01  0.20547891149E+02  0.51100000000E-03 0. -1.
        -11    1    3    3    0    0  0.78348560703E+01  0.20839729023E+02 -0.52350943262E+00  0.22270009829E+02  0.51100000000E-03 0.  1.
        -12    1    3    3    0    0 -0.99526318566E+00  0.17904570564E+01  0.45275135345E+01  0.49693726047E+01  0.00000000000E+00 0.  1.
</event>
<event>
 7    1  0.2294216E-010  0.4778727E+02  0.7816164E-02  0.1312668E+00
        -11   -1    0    0    0    0  0.00000000000E+00  0.00000000000E+00  0.45593999997E+02  0.45594000000E+02  0.51100000000E-03 0.  1.
         11   -1    0    0    0    0 -0.00000000000E+00 -0.00000000000E+00 -0.45593999997E+02  0.45594000000E+02  0.51100000000E-03 0. -1.
    9900012    2    1    2    0    0 -0.12505419832E+02  0.79491433833E+01 -0.40792754684E+02  0.47787271430E+02  0.20000001757E+02 0.  0.
        -12    1    1    2    0    0  0.12505419832E+02 -0.79491433833E+01  0.40792754684E+02  0.43400728570E+02  0.00000000000E+00 0.  1.
         11    1    3    3    0    0 -0.22388016377E+01  0.12064217010E+01 -0.91046879333E+00  0.27012293087E+01  0.51100000000E-03 0. -1.
        -11    1    3    3    0    0 -0.71560064501E+01  0.12234016451E+02 -0.31925865201E+02  0.34930508956E+02  0.51100000000E-03 0.  1.
        -12    1    3    3    0    0 -0.31106117442E+01 -0.54912947692E+01 -0.79564206902E+01  0.10155533165E+02  0.00000000000E+00 0.  1.
</event>
<event>
 7    1  0.2294216E-010  0.4778727E+02  0.7816164E-02  0.1312668E+00
        -11   -1    0    0    0    0  0.00000000000E+00  0.00000000000E+00  0.45593999997E+02  0.45594000000E+02  0.51100000000E-03 0.  1.
         11   -1    0    0    0    0 -0.00000000000E+00 -0.00000000000E+00 -0.45593999997E+02  0.45594000000E+02  0.51100000000E-03 0. -1.
    9900012    2    1    2    0    0  0.11367119984E+02 -0.22256391180E+02 -0.35483299941E+02  0.47787274893E+02  0.20000017546E+02 0.  0.
        -12    1    1    2    0    0 -0.11367119984E+02  0.22256391180E+02  0.35483299941E+02  0.43400725107E+02  0.00000000000E+00 0.  1.
         11    1    3    3    0    0  0.32623324400E+01 -0.31859605383E+01 -0.73537496814E+01  0.86527910028E+01  0.51100000000E-03 0. -1.
        -11    1    3    3    0    0 -0.31846853334E+00 -0.10735632969E+02 -0.26925048746E+01  0.11072706093E+02  0.51100000000E-03 0.  1.
        -12    1    3    3    0    0  0.84232560771E+01 -0.83347976727E+01 -0.25437045385E+02  0.28061777797E+02  0.00000000000E+00 0.  1.
</event>
<event>
 7    1  0.2294216E-010  0.4778724E+02  0.7816164E-02  0.1312668E+00
        -11   -1    0    0    0    0  0.00000000000E+00  0.00000000000E+00  0.45593999997E+02  0.45594000000E+02  0.51100000000E-03 0.  1.
         11   -1    0    0    0    0 -0.00000000000E+00 -0.00000000000E+00 -0.45593999997E+02  0.45594000000E+02  0.51100000000E-03 0. -1.
    9900012    2    1    2    0    0  0.14481402532E+02 -0.37052423818E+01 -0.40745379821E+02  0.47787241744E+02  0.19999866408E+02 0.  0.
        -12    1    1    2    0    0 -0.14481402532E+02  0.37052423818E+01  0.40745379821E+02  0.43400758256E+02  0.00000000000E+00 0.  1.
         11    1    3    3    0    0  0.21893101585E+01  0.31395280814E+01 -0.22789495785E+02  0.23108674431E+02  0.51100000000E-03 0. -1.
        -11    1    3    3    0    0 -0.12743051374E+01 -0.22224382448E+01 -0.21735312842E+01  0.33596612686E+01  0.51100000000E-03 0.  1.
        -12    1    3    3    0    0  0.13566397511E+02 -0.46223322184E+01 -0.15782352752E+02  0.21318906045E+02  0.00000000000E+00 0.  1.
</event>
<event>
 7    1  0.2294216E-010  0.4778727E+02  0.7816164E-02  0.1312668E+00
        -11   -1    0    0    0    0  0.00000000000E+00  0.00000000000E+00  0.45593999997E+02  0.45594000000E+02  0.51100000000E-03 0. -1.
         11   -1    0    0    0    0 -0.00000000000E+00 -0.00000000000E+00 -0.45593999997E+02  0.45594000000E+02  0.51100000000E-03 0.  1.
    9900012    2    1    2    0    0 -0.10143121198E+02  0.25541429686E+02  0.33591309288E+02  0.47787267313E+02  0.19999982986E+02 0.  0.
        -12    1    1    2    0    0  0.10143121198E+02 -0.25541429686E+02 -0.33591309288E+02  0.43400732687E+02  0.00000000000E+00 0.  1.
         11    1    3    3    0    0 -0.22031071404E+01  0.69641474534E+01  0.11897096751E+02  0.13960442049E+02  0.51100000000E-03 0. -1.
        -11    1    3    3    0    0 -0.33953530863E+01  0.11085258273E+02  0.22204854563E+02  0.25049290209E+02  0.51100000000E-03 0.  1.
         12    1    3    3    0    0 -0.45446609717E+01  0.74920239596E+01 -0.51064202601E+00  0.87775350547E+01  0.00000000000E+00 0. -1.
</event>
<event>
 7    1  0.2294216E-010  0.4778727E+02  0.7816164E-02  0.1312668E+00
        -11   -1    0    0    0    0  0.00000000000E+00  0.00000000000E+00  0.45593999997E+02  0.45594000000E+02  0.51100000000E-03 0.  1.
         11   -1    0    0    0    0 -0.00000000000E+00 -0.00000000000E+00 -0.45593999997E+02  0.45594000000E+02  0.51100000000E-03 0. -1.
    9900012    2    1    2    0    0 -0.31686772009E+01 -0.23459344898E+02 -0.36376395591E+02  0.47787268042E+02  0.19999986313E+02 0.  0.
        -12    1    1    2    0    0  0.31686772009E+01  0.23459344898E+02  0.36376395591E+02  0.43400731958E+02  0.00000000000E+00 0.  1.
         11    1    3    3    0    0  0.40827784687E+01 -0.14849322219E+02 -0.29776414598E+02  0.33523220563E+02  0.51100000000E-03 0. -1.
        -11    1    3    3    0    0  0.63538689660E+00 -0.76152028093E+00 -0.19837351888E+01  0.22178447211E+01  0.51100000000E-03 0.  1.
        -12    1    3    3    0    0 -0.78868425661E+01 -0.78485023981E+01 -0.46162458047E+01  0.12046202758E+02  0.00000000000E+00 0.  1.
</event>
<event>
 7    1  0.2294216E-010  0.4778728E+02  0.7816164E-02  0.1312668E+00
        -11   -1    0    0    0    0  0.00000000000E+00  0.00000000000E+00  0.45593999997E+02  0.45594000000E+02  0.51100000000E-03 0.  1.
         11   -1    0    0    0    0 -0.00000000000E+00 -0.00000000000E+00 -0.45593999997E+02  0.45594000000E+02  0.51100000000E-03 0. -1.
    9900012    2    1    2    0    0  0.99647010549E+01 -0.41015847166E+02 -0.10100876526E+02  0.47787277743E+02  0.20000030541E+02 0.  0.
        -12    1    1    2    0    0 -0.99647010549E+01  0.41015847166E+02  0.10100876526E+02  0.43400722257E+02  0.00000000000E+00 0.  1.
         11    1    3    3    0    0  0.23957045078E+01 -0.12679445102E+00  0.18070627712E+01  0.30034901434E+01  0.51100000000E-03 0. -1.
        -11    1    3    3    0    0 -0.21616130677E+01 -0.12313315827E+02 -0.49530751274E+00  0.12511420682E+02  0.51100000000E-03 0.  1.
         12    1    3    3    0    0  0.97306096148E+01 -0.28575736888E+02 -0.11412631784E+02  0.32272366917E+02  0.00000000000E+00 0. -1.
</event>
<event>
 7    1  0.2294216E-010  0.4778727E+02  0.7816164E-02  0.1312668E+00
        -11   -1    0    0    0    0  0.00000000000E+00  0.00000000000E+00  0.45593999997E+02  0.45594000000E+02  0.51100000000E-03 0.  1.
         11   -1    0    0    0    0 -0.00000000000E+00 -0.00000000000E+00 -0.45593999997E+02  0.45594000000E+02  0.51100000000E-03 0. -1.
    9900012    2    1    2    0    0 -0.34992330274E+01  0.23542708664E+02 -0.36292143195E+02  0.47787269352E+02  0.19999992286E+02 0.  0.
        -12    1    1    2    0    0  0.34992330274E+01 -0.23542708664E+02  0.36292143195E+02  0.43400730648E+02  0.00000000000E+00 0.  1.
         11    1    3    3    0    0 -0.14454651901E+01  0.17116892306E+02 -0.17973592195E+02  0.24862167816E+02  0.51100000000E-03 0. -1.
        -11    1    3    3    0    0 -0.62915784225E+01  0.68220106394E+01 -0.10425639585E+02  0.13957712894E+02  0.51100000000E-03 0.  1.
        -12    1    3    3    0    0  0.42378105851E+01 -0.39619428123E+00 -0.78929114156E+01  0.89673886433E+01  0.00000000000E+00 0.  1.
</event>
<event>
 7    1  0.2294216E-010  0.4778727E+02  0.7816164E-02  0.1312668E+00
        -11   -1    0    0    0    0  0.00000000000E+00  0.00000000000E+00  0.45593999997E+02  0.45594000000E+02  0.51100000000E-03 0. -1.
         11   -1    0    0    0    0 -0.00000000000E+00 -0.00000000000E+00 -0.45593999997E+02  0.45594000000E+02  0.51100000000E-03 0.  1.
    9900012    2    1    2    0    0  0.65236934941E+01  0.21168163027E+02  0.37322562890E+02  0.47787269552E+02  0.19999993196E+02 0.  0.
        -12    1    1    2    0    0 -0.65236934941E+01 -0.21168163027E+02 -0.37322562890E+02  0.43400730448E+02  0.00000000000E+00 0.  1.
         11    1    3    3    0    0  0.32617439683E+01  0.26332183810E+01  0.12751278561E+02  0.13422664339E+02  0.51100000000E-03 0. -1.
        -11    1    3    3    0    0  0.12463726854E+01  0.14049822499E+02  0.25702996402E+02  0.29318850275E+02  0.51100000000E-03 0.  1.
        -12    1    3    3    0    0  0.20155768404E+01  0.44851221471E+01 -0.11317120738E+01  0.50457549378E+01  0.00000000000E+00 0.  1.
</event>
<event>
 7    1  0.2294216E-010  0.4778726E+02  0.7816164E-02  0.1312668E+00
        -11   -1    0    0    0    0  0.00000000000E+00  0.00000000000E+00  0.45593999997E+02  0.45594000000E+02  0.51100000000E-03 0.  1.
         11   -1    0    0    0    0 -0.00000000000E+00 -0.00000000000E+00 -0.45593999997E+02  0.45594000000E+02  0.51100000000E-03 0. -1.
    9900012    2    1    2    0    0  0.82168112869E+01  0.28607165364E+02 -0.31586989652E+02  0.47787264831E+02  0.19999971673E+02 0.  0.
        -12    1    1    2    0    0 -0.82168112869E+01 -0.28607165364E+02  0.31586989652E+02  0.43400735169E+02  0.00000000000E+00 0.  1.
         11    1    3    3    0    0  0.10280617591E+02  0.12849733995E+02 -0.15324462732E+02  0.22486571995E+02  0.51100000000E-03 0. -1.
        -11    1    3    3    0    0  0.17697022016E+01  0.13896577029E+02 -0.83361651413E+01  0.16301483016E+02  0.51100000000E-03 0.  1.
        -12    1    3    3    0    0 -0.38335085060E+01  0.18608543399E+01 -0.79263617786E+01  0.89992098201E+01  0.00000000000E+00 0.  1.
</event>
<event>
 7    1  0.2294216E-010  0.4778729E+02  0.7816164E-02  0.1312668E+00
        -11   -1    0    0    0    0  0.00000000000E+00  0.00000000000E+00  0.45593999997E+02  0.45594000000E+02  0.51100000000E-03 0.  1.
         11   -1    0    0    0    0 -0.00000000000E+00 -0.00000000000E+00 -0.45593999997E+02  0.45594000000E+02  0.51100000000E-03 0. -1.
    9900012    2    1    2    0    0 -0.51717203619E+00 -0.43077527363E+02 -0.52612876551E+01  0.47787285969E+02  0.20000068046E+02 0.  0.
        -12    1    1    2    0    0  0.51717203619E+00  0.43077527363E+02  0.52612876551E+01  0.43400714031E+02  0.00000000000E+00 0.  1.
         11    1    3    3    0    0  0.57682512331E+01 -0.10847830667E+02  0.16766954278E+01  0.12399978237E+02  0.51100000000E-03 0. -1.
        -11    1    3    3    0    0  0.30077797018E+01 -0.11334559933E+02 -0.36618807095E+01  0.12285290318E+02  0.51100000000E-03 0.  1.
        -12    1    3    3    0    0 -0.92932029711E+01 -0.20895136764E+02 -0.32761023735E+01  0.23102017414E+02  0.00000000000E+00 0.  1.
</event>
<event>
 7    1  0.2294216E-010  0.4778728E+02  0.7816164E-02  0.1312668E+00
        -11   -1    0    0    0    0  0.00000000000E+00  0.00000000000E+00  0.45593999997E+02  0.45594000000E+02  0.51100000000E-03 0. -1.
         11   -1    0    0    0    0 -0.00000000000E+00 -0.00000000000E+00 -0.45593999997E+02  0.45594000000E+02  0.51100000000E-03 0.  1.
    9900012    2    1    2    0    0  0.31635803202E+02 -0.19695579212E+02  0.22245952095E+02  0.47787282617E+02  0.20000052764E+02 0.  0.
        -12    1    1    2    0    0 -0.31635803202E+02  0.19695579212E+02 -0.22245952095E+02  0.43400717383E+02  0.00000000000E+00 0.  1.
         11    1    3    3    0    0  0.71816576573E+01  0.34901135917E+00  0.10888843625E+02  0.13048560511E+02  0.51100000000E-03 0. -1.
        -11    1    3    3    0    0  0.51428644159E+00  0.86357009553E+00  0.65912675889E+00  0.12019534930E+01  0.51100000000E-03 0.  1.
        -12    1    3    3    0    0  0.23939859103E+02 -0.20908160667E+02  0.10697981711E+02  0.33536768613E+02  0.00000000000E+00 0.  1.
</event>
<event>
 7    1  0.2294216E-010  0.4778727E+02  0.7816164E-02  0.1312668E+00
        -11   -1    0    0    0    0  0.00000000000E+00  0.00000000000E+00  0.45593999997E+02  0.45594000000E+02  0.51100000000E-03 0. -1.
         11   -1    0    0    0    0 -0.00000000000E+00 -0.00000000000E+00 -0.45593999997E+02  0.45594000000E+02  0.51100000000E-03 0.  1.
    9900012    2    1    2    0    0  0.28461670933E+02 -0.91791637389E+01  0.31453131226E+02  0.47787271629E+02  0.20000002664E+02 0.  0.
        -12    1    1    2    0    0 -0.28461670933E+02  0.91791637389E+01 -0.31453131226E+02  0.43400728371E+02  0.00000000000E+00 0.  1.
         11    1    3    3    0    0 -0.81682572624E+00 -0.20834128058E+01  0.56420766588E+01  0.60696657627E+01  0.51100000000E-03 0. -1.
        -11    1    3    3    0    0  0.18650116508E+01  0.22659409873E+01  0.24202564372E-01  0.29348497475E+01  0.51100000000E-03 0.  1.
         12    1    3    3    0    0  0.27413485009E+02 -0.93616919204E+01  0.25786852003E+02  0.38782756118E+02  0.00000000000E+00 0. -1.
</event>
<event>
 7    1  0.2294216E-010  0.4778727E+02  0.7816164E-02  0.1312668E+00
        -11   -1    0    0    0    0  0.00000000000E+00  0.00000000000E+00  0.45593999997E+02  0.45594000000E+02  0.51100000000E-03 0.  1.
         11   -1    0    0    0    0 -0.00000000000E+00 -0.00000000000E+00 -0.45593999997E+02  0.45594000000E+02  0.51100000000E-03 0. -1.
    9900012    2    1    2    0    0  0.19708048156E+02  0.16801895073E+02 -0.34826894817E+02  0.47787269099E+02  0.19999991130E+02 0.  0.
        -12    1    1    2    0    0 -0.19708048156E+02 -0.16801895073E+02  0.34826894817E+02  0.43400730901E+02  0.00000000000E+00 0.  1.
         11    1    3    3    0    0  0.65429951711E+01  0.12467993408E+02 -0.12197084080E+02  0.18628754809E+02  0.51100000000E-03 0. -1.
        -11    1    3    3    0    0  0.66113223695E+01  0.73985954481E+01 -0.76699204774E+01  0.12540991925E+02  0.51100000000E-03 0.  1.
         12    1    3    3    0    0  0.65537306152E+01 -0.30646937831E+01 -0.14959890259E+02  0.16617522365E+02  0.00000000000E+00 0. -1.
</event>
<event>
 7    1  0.2294216E-010  0.4778727E+02  0.7816164E-02  0.1312668E+00
        -11   -1    0    0    0    0  0.00000000000E+00  0.00000000000E+00  0.45593999997E+02  0.45594000000E+02  0.51100000000E-03 0.  1.
         11   -1    0    0    0    0 -0.00000000000E+00 -0.00000000000E+00 -0.45593999997E+02  0.45594000000E+02  0.51100000000E-03 0. -1.
    9900012    2    1    2    0    0 -0.38511013844E+02 -0.24826497611E+01 -0.19858541731E+02  0.47787269398E+02  0.19999992492E+02 0.  0.
        -12    1    1    2    0    0  0.38511013844E+02  0.24826497611E+01  0.19858541731E+02  0.43400730602E+02  0.00000000000E+00 0.  1.
         11    1    3    3    0    0 -0.56330818775E+01 -0.31647037609E+01  0.36418631640E+00  0.64714444498E+01  0.51100000000E-03 0. -1.
        -11    1    3    3    0    0 -0.26351964201E+01  0.18072371886E+01  0.19997089507E+01  0.37695095937E+01  0.51100000000E-03 0.  1.
         12    1    3    3    0    0 -0.30242735546E+02 -0.11251831888E+01 -0.22222436998E+02  0.37546315354E+02  0.00000000000E+00 0. -1.
</event>
<event>
 7    1  0.2294216E-010  0.4778727E+02  0.7816164E-02  0.1312668E+00
        -11   -1    0    0    0    0  0.00000000000E+00  0.00000000000E+00  0.45593999997E+02  0.45594000000E+02  0.51100000000E-03 0. -1.
         11   -1    0    0    0    0 -0.00000000000E+00 -0.00000000000E+00 -0.45593999997E+02  0.45594000000E+02  0.51100000000E-03 0.  1.
    9900012    2    1    2    0    0  0.32505498869E+02 -0.16222668988E+02  0.23745338318E+02  0.47787268005E+02  0.19999986144E+02 0.  0.
        -12    1    1    2    0    0 -0.32505498869E+02  0.16222668988E+02 -0.23745338318E+02  0.43400731995E+02  0.00000000000E+00 0.  1.
         11    1    3    3    0    0  0.10101278812E+02  0.38321703457E+00  0.51092915357E+01  0.11326409369E+02  0.51100000000E-03 0. -1.
        -11    1    3    3    0    0  0.22793278525E+02 -0.10948295579E+02  0.17289897809E+02  0.30632324243E+02  0.51100000000E-03 0.  1.
        -12    1    3    3    0    0 -0.38905846821E+00 -0.56575904431E+01  0.13461489727E+01  0.58285343929E+01  0.00000000000E+00 0.  1.
</event>
<event>
 7    1  0.2294216E-010  0.4778727E+02  0.7816164E-02  0.1312668E+00
        -11   -1    0    0    0    0  0.00000000000E+00  0.00000000000E+00  0.45593999997E+02  0.45594000000E+02  0.51100000000E-03 0.  1.
         11   -1    0    0    0    0 -0.00000000000E+00 -0.00000000000E+00 -0.45593999997E+02  0.45594000000E+02  0.51100000000E-03 0. -1.
    9900012    2    1    2    0    0 -0.18675643519E+02 -0.23304103062E+02 -0.31492254776E+02  0.47787274301E+02  0.20000014848E+02 0.  0.
        -12    1    1    2    0    0  0.18675643519E+02  0.23304103062E+02  0.31492254776E+02  0.43400725699E+02  0.00000000000E+00 0.  1.
         11    1    3    3    0    0 -0.13876701240E+02 -0.17559143094E+02 -0.12580666409E+02  0.25674101952E+02  0.51100000000E-03 0. -1.
        -11    1    3    3    0    0 -0.67572833032E-01  0.13439615649E+01  0.26213200344E-01  0.13459146216E+01  0.51100000000E-03 0.  1.
        -12    1    3    3    0    0 -0.47313694458E+01 -0.70889215325E+01 -0.18937801567E+02  0.20767257727E+02  0.00000000000E+00 0.  1.
</event>
<event>
 7    1  0.2294216E-010  0.4778727E+02  0.7816164E-02  0.1312668E+00
        -11   -1    0    0    0    0  0.00000000000E+00  0.00000000000E+00  0.45593999997E+02  0.45594000000E+02  0.51100000000E-03 0.  1.
         11   -1    0    0    0    0 -0.00000000000E+00 -0.00000000000E+00 -0.45593999997E+02  0.45594000000E+02  0.51100000000E-03 0. -1.
    9900012    2    1    2    0    0 -0.13773442084E+02 -0.38912581612E+02 -0.13406217010E+02  0.47787269947E+02  0.19999994998E+02 0.  0.
        -12    1    1    2    0    0  0.13773442084E+02  0.38912581612E+02  0.13406217010E+02  0.43400730053E+02  0.00000000000E+00 0.  1.
         11    1    3    3    0    0 -0.13976165145E+02 -0.14530266306E+02 -0.24794230123E+01  0.20312788332E+02  0.51100000000E-03 0. -1.
        -11    1    3    3    0    0  0.10247687608E+01 -0.69370405887E+00 -0.15521280340E+01  0.19850637343E+01  0.51100000000E-03 0.  1.
         12    1    3    3    0    0 -0.82204569957E+00 -0.23688611247E+02 -0.93746659637E+01  0.25489417881E+02  0.00000000000E+00 0. -1.
</event>
<event>
 7    1  0.2294216E-010  0.4778727E+02  0.7816164E-02  0.1312668E+00
        -11   -1    0    0    0    0  0.00000000000E+00  0.00000000000E+00  0.45593999997E+02  0.45594000000E+02  0.51100000000E-03 0.  1.
         11   -1    0    0    0    0 -0.00000000000E+00 -0.00000000000E+00 -0.45593999997E+02  0.45594000000E+02  0.51100000000E-03 0. -1.
    9900012    2    1    2    0    0  0.25418241440E+02 -0.23540298966E+02 -0.26141741849E+02  0.47787270281E+02  0.19999996518E+02 0.  0.
        -12    1    1    2    0    0 -0.25418241440E+02  0.23540298966E+02  0.26141741849E+02  0.43400729719E+02  0.00000000000E+00 0.  1.
         11    1    3    3    0    0  0.26055187060E+01 -0.14043366563E+01 -0.31073329613E+01  0.42914342084E+01  0.51100000000E-03 0. -1.
        -11    1    3    3    0    0  0.15105779964E+02 -0.20261173188E+02 -0.80189577757E+01  0.26514211498E+02  0.51100000000E-03 0.  1.
        -12    1    3    3    0    0  0.77069427698E+01 -0.18747891216E+01 -0.15015451112E+02  0.16981624575E+02  0.00000000000E+00 0.  1.
</event>
<event>
 7    1  0.2294216E-010  0.4778727E+02  0.7816164E-02  0.1312668E+00
        -11   -1    0    0    0    0  0.00000000000E+00  0.00000000000E+00  0.45593999997E+02  0.45594000000E+02  0.51100000000E-03 0.  1.
         11   -1    0    0    0    0 -0.00000000000E+00 -0.00000000000E+00 -0.45593999997E+02  0.45594000000E+02  0.51100000000E-03 0. -1.
    9900012    2    1    2    0    0  0.26237138845E+02 -0.53441670967E+01 -0.34156635452E+02  0.47787270489E+02  0.19999997467E+02 0.  0.
        -12    1    1    2    0    0 -0.26237138845E+02  0.53441670967E+01  0.34156635452E+02  0.43400729511E+02  0.00000000000E+00 0.  1.
         11    1    3    3    0    0  0.11868005217E+02 -0.57089769714E+01 -0.23773944527E+02  0.27177976461E+02  0.51100000000E-03 0. -1.
        -11    1    3    3    0    0  0.95401301160E+01 -0.48346614700E+01 -0.66046242412E+01  0.12570166896E+02  0.51100000000E-03 0.  1.
        -12    1    3    3    0    0  0.48290035114E+01  0.51994713447E+01 -0.37780666841E+01  0.80391271322E+01  0.00000000000E+00 0.  1.
</event>
<event>
 7    1  0.2294216E-010  0.4778727E+02  0.7816164E-02  0.1312668E+00
        -11   -1    0    0    0    0  0.00000000000E+00  0.00000000000E+00  0.45593999997E+02  0.45594000000E+02  0.51100000000E-03 0.  1.
         11   -1    0    0    0    0 -0.00000000000E+00 -0.00000000000E+00 -0.45593999997E+02  0.45594000000E+02  0.51100000000E-03 0. -1.
    9900012    2    1    2    0    0  0.32120898399E+02 -0.29153017308E+02 -0.14046993297E+01  0.47787265993E+02  0.19999976970E+02 0.  0.
        -12    1    1    2    0    0 -0.32120898399E+02  0.29153017308E+02  0.14046993297E+01  0.43400734007E+02  0.00000000000E+00 0.  1.
         11    1    3    3    0    0  0.28955553518E+02 -0.15335779236E+02  0.23777680941E+01  0.32852153440E+02  0.51100000000E-03 0.  1.
        -11    1    3    3    0    0  0.17976218004E+00 -0.44908268496E+00 -0.77147707675E+00  0.91058598736E+00  0.51100000000E-03 0. -1.
        -12    1    3    3    0    0  0.29855827012E+01 -0.13368155387E+02 -0.30109903471E+01  0.14024526566E+02  0.00000000000E+00 0.  1.
</event>
<event>
 7    1  0.2294216E-010  0.4778727E+02  0.7816164E-02  0.1312668E+00
        -11   -1    0    0    0    0  0.00000000000E+00  0.00000000000E+00  0.45593999997E+02  0.45594000000E+02  0.51100000000E-03 0.  1.
         11   -1    0    0    0    0 -0.00000000000E+00 -0.00000000000E+00 -0.45593999997E+02  0.45594000000E+02  0.51100000000E-03 0. -1.
    9900012    2    1    2    0    0  0.32713736354E+02  0.25803793508E+02 -0.12149032378E+02  0.47787270819E+02  0.19999998973E+02 0.  0.
        -12    1    1    2    0    0 -0.32713736354E+02 -0.25803793508E+02  0.12149032378E+02  0.43400729181E+02  0.00000000000E+00 0.  1.
         11    1    3    3    0    0 -0.14035284005E+01  0.86597395463E-01  0.32742712339E+00  0.14438143448E+01  0.51100000000E-03 0. -1.
        -11    1    3    3    0    0  0.19090846032E+02  0.15273000548E+02 -0.46285989939E+00  0.24452795086E+02  0.51100000000E-03 0.  1.
         12    1    3    3    0    0  0.15026418723E+02  0.10444195565E+02 -0.12013599602E+02  0.21890661389E+02  0.00000000000E+00 0. -1.
</event>
<event>
 7    1  0.2294216E-010  0.4778725E+02  0.7816164E-02  0.1312668E+00
        -11   -1    0    0    0    0  0.00000000000E+00  0.00000000000E+00  0.45593999997E+02  0.45594000000E+02  0.51100000000E-03 0.  1.
         11   -1    0    0    0    0 -0.00000000000E+00 -0.00000000000E+00 -0.45593999997E+02  0.45594000000E+02  0.51100000000E-03 0. -1.
    9900012    2    1    2    0    0  0.26354906901E+02 -0.19970410248E+02 -0.28110967552E+02  0.47787252311E+02  0.19999914587E+02 0.  0.
        -12    1    1    2    0    0 -0.26354906901E+02  0.19970410248E+02  0.28110967552E+02  0.43400747689E+02  0.00000000000E+00 0.  1.
         11    1    3    3    0    0  0.19325893383E+02 -0.11963055564E+02 -0.21299869846E+02  0.31149467237E+02  0.51100000000E-03 0. -1.
        -11    1    3    3    0    0  0.80677735336E+01 -0.14393426261E+01 -0.54734978127E+01  0.98549406671E+01  0.51100000000E-03 0.  1.
        -12    1    3    3    0    0 -0.10387600156E+01 -0.65680120585E+01 -0.13375998938E+01  0.67828444068E+01  0.00000000000E+00 0.  1.
</event>
<event>
 7    1  0.2294216E-010  0.4778727E+02  0.7816164E-02  0.1312668E+00
        -11   -1    0    0    0    0  0.00000000000E+00  0.00000000000E+00  0.45593999997E+02  0.45594000000E+02  0.51100000000E-03 0.  1.
         11   -1    0    0    0    0 -0.00000000000E+00 -0.00000000000E+00 -0.45593999997E+02  0.45594000000E+02  0.51100000000E-03 0. -1.
    9900012    2    1    2    0    0 -0.14077381541E+02 -0.22267879133E+02 -0.34490463451E+02  0.47787272113E+02  0.20000004870E+02 0.  0.
        -12    1    1    2    0    0  0.14077381541E+02  0.22267879133E+02  0.34490463451E+02  0.43400727887E+02  0.00000000000E+00 0.  1.
         11    1    3    3    0    0 -0.20449301038E+01 -0.45670449737E+01 -0.91210427276E+01  0.10403511889E+02  0.51100000000E-03 0. -1.
        -11    1    3    3    0    0  0.71097288817E+00 -0.12052442588E+01 -0.13144438156E+02  0.13218712149E+02  0.51100000000E-03 0.  1.
         12    1    3    3    0    0 -0.12743424326E+02 -0.16495589900E+02 -0.12224982566E+02  0.24165048075E+02  0.00000000000E+00 0. -1.
</event>
<event>
 7    1  0.2294216E-010  0.4778731E+02  0.7816164E-02  0.1312668E+00
        -11   -1    0    0    0    0  0.00000000000E+00  0.00000000000E+00  0.45593999997E+02  0.45594000000E+02  0.51100000000E-03 0.  1.
         11   -1    0    0    0    0 -0.00000000000E+00 -0.00000000000E+00 -0.45593999997E+02  0.45594000000E+02  0.51100000000E-03 0. -1.
    9900012    2    1    2    0    0  0.40218728435E+02  0.35171865383E+01 -0.15928074277E+02  0.47787305671E+02  0.20000157873E+02 0.  0.
        -12    1    1    2    0    0 -0.40218728435E+02 -0.35171865383E+01  0.15928074277E+02  0.43400694329E+02  0.00000000000E+00 0.  1.
         11    1    3    3    0    0  0.71760015640E+01  0.14299080507E+01 -0.75497044073E+01  0.10513689760E+02  0.51100000000E-03 0.  1.
        -11    1    3    3    0    0  0.23086681837E+02 -0.35616224560E+01 -0.10534613584E+02  0.25625341293E+02  0.51100000000E-03 0. -1.
        -12    1    3    3    0    0  0.99560450345E+01  0.56489009436E+01  0.21562437142E+01  0.11648274617E+02  0.00000000000E+00 0.  1.
</event>
<event>
 7    1  0.2294216E-010  0.4778727E+02  0.7816164E-02  0.1312668E+00
        -11   -1    0    0    0    0  0.00000000000E+00  0.00000000000E+00  0.45593999997E+02  0.45594000000E+02  0.51100000000E-03 0.  1.
         11   -1    0    0    0    0 -0.00000000000E+00 -0.00000000000E+00 -0.45593999997E+02  0.45594000000E+02  0.51100000000E-03 0. -1.
    9900012    2    1    2    0    0  0.35488832320E+02  0.18923712854E+02 -0.16311324665E+02  0.47787269132E+02  0.19999991279E+02 0.  0.
        -12    1    1    2    0    0 -0.35488832320E+02 -0.18923712854E+02  0.16311324665E+02  0.43400730868E+02  0.00000000000E+00 0.  1.
         11    1    3    3    0    0  0.15354802568E+02  0.17295393354E+02 -0.76538210660E+01  0.24361477179E+02  0.51100000000E-03 0. -1.
        -11    1    3    3    0    0 -0.36022034523E+00 -0.47105696816E+00  0.59669016922E+00  0.84124478217E+00  0.51100000000E-03 0.  1.
        -12    1    3    3    0    0  0.20494250097E+02  0.20993764679E+01 -0.92541937680E+01  0.22584547170E+02  0.00000000000E+00 0.  1.
</event>
<event>
 7    1  0.2294216E-010  0.4778726E+02  0.7816164E-02  0.1312668E+00
        -11   -1    0    0    0    0  0.00000000000E+00  0.00000000000E+00  0.45593999997E+02  0.45594000000E+02  0.51100000000E-03 0.  1.
         11   -1    0    0    0    0 -0.00000000000E+00 -0.00000000000E+00 -0.45593999997E+02  0.45594000000E+02  0.51100000000E-03 0. -1.
    9900012    2    1    2    0    0  0.19220797154E+02 -0.18343306353E+02 -0.34317749042E+02  0.47787264631E+02  0.19999970760E+02 0.  0.
        -12    1    1    2    0    0 -0.19220797154E+02  0.18343306353E+02  0.34317749042E+02  0.43400735369E+02  0.00000000000E+00 0.  1.
         11    1    3    3    0    0  0.73361609810E+01 -0.82350978961E+01 -0.84312894706E+01  0.13882461514E+02  0.51100000000E-03 0. -1.
        -11    1    3    3    0    0  0.14573695096E+02 -0.11575707992E+02 -0.20350428871E+02  0.27577700408E+02  0.51100000000E-03 0.  1.
        -12    1    3    3    0    0 -0.26890589231E+01  0.14674995345E+01 -0.55360307007E+01  0.63271027094E+01  0.00000000000E+00 0.  1.
</event>
<event>
 7    1  0.2294216E-010  0.4778727E+02  0.7816164E-02  0.1312668E+00
        -11   -1    0    0    0    0  0.00000000000E+00  0.00000000000E+00  0.45593999997E+02  0.45594000000E+02  0.51100000000E-03 0. -1.
         11   -1    0    0    0    0 -0.00000000000E+00 -0.00000000000E+00 -0.45593999997E+02  0.45594000000E+02  0.51100000000E-03 0.  1.
    9900012    2    1    2    0    0 -0.23551557933E+02 -0.34517165567E+02 -0.11726575978E+02  0.47787272079E+02  0.20000004718E+02 0.  0.
        -12    1    1    2    0    0  0.23551557933E+02  0.34517165567E+02  0.11726575978E+02  0.43400727921E+02  0.00000000000E+00 0.  1.
         11    1    3    3    0    0 -0.79999445934E+01 -0.45173508141E+01  0.22788771177E+01  0.94656670686E+01  0.51100000000E-03 0. -1.
        -11    1    3    3    0    0 -0.43280313031E+01 -0.31597629051E+01 -0.62112561636E+01  0.82033931985E+01  0.51100000000E-03 0.  1.
         12    1    3    3    0    0 -0.11223582037E+02 -0.26840051848E+02 -0.77941969324E+01  0.30118211812E+02  0.00000000000E+00 0. -1.
</event>
<event>
 7    1  0.2294216E-010  0.4778727E+02  0.7816164E-02  0.1312668E+00
        -11   -1    0    0    0    0  0.00000000000E+00  0.00000000000E+00  0.45593999997E+02  0.45594000000E+02  0.51100000000E-03 0.  1.
         11   -1    0    0    0    0 -0.00000000000E+00 -0.00000000000E+00 -0.45593999997E+02  0.45594000000E+02  0.51100000000E-03 0. -1.
    9900012    2    1    2    0    0 -0.34132583716E+01  0.43205515900E+02 -0.22926898563E+01  0.47787270009E+02  0.19999995281E+02 0.  0.
        -12    1    1    2    0    0  0.34132583716E+01 -0.43205515900E+02  0.22926898563E+01  0.43400729991E+02  0.00000000000E+00 0.  1.
         11    1    3    3    0    0 -0.11819656084E+01  0.11050771058E+01  0.46556587684E+01  0.49288332228E+01  0.51100000000E-03 0.  1.
        -11    1    3    3    0    0 -0.22528710781E+01  0.27338532545E+02 -0.31192212085E+01  0.27607975859E+02  0.51100000000E-03 0. -1.
        -12    1    3    3    0    0  0.21578314985E-01  0.14761906250E+02 -0.38291274162E+01  0.15250460928E+02  0.00000000000E+00 0.  1.
</event>
<event>
 7    1  0.2294216E-010  0.4778727E+02  0.7816164E-02  0.1312668E+00
        -11   -1    0    0    0    0  0.00000000000E+00  0.00000000000E+00  0.45593999997E+02  0.45594000000E+02  0.51100000000E-03 0.  1.
         11   -1    0    0    0    0 -0.00000000000E+00 -0.00000000000E+00 -0.45593999997E+02  0.45594000000E+02  0.51100000000E-03 0. -1.
    9900012    2    1    2    0    0  0.21522095062E+02 -0.26107479532E+02 -0.27181284211E+02  0.47787271035E+02  0.19999999956E+02 0.  0.
        -12    1    1    2    0    0 -0.21522095062E+02  0.26107479532E+02  0.27181284211E+02  0.43400728965E+02  0.00000000000E+00 0.  1.
         11    1    3    3    0    0  0.52488236427E+00 -0.40011150487E+01 -0.60761786923E+01  0.72941326346E+01  0.51100000000E-03 0. -1.
        -11    1    3    3    0    0  0.35310500395E+01 -0.20243393261E+01 -0.11498362516E+02  0.12197483548E+02  0.51100000000E-03 0.  1.
         12    1    3    3    0    0  0.17466162658E+02 -0.20082025157E+02 -0.96067430022E+01  0.28295654852E+02  0.00000000000E+00 0. -1.
</event>
<event>
 7    1  0.2294216E-010  0.4778727E+02  0.7816164E-02  0.1312668E+00
        -11   -1    0    0    0    0  0.00000000000E+00  0.00000000000E+00  0.45593999997E+02  0.45594000000E+02  0.51100000000E-03 0.  1.
         11   -1    0    0    0    0 -0.00000000000E+00 -0.00000000000E+00 -0.45593999997E+02  0.45594000000E+02  0.51100000000E-03 0. -1.
    9900012    2    1    2    0    0 -0.17729881670E+02 -0.35052095957E+01 -0.39458689553E+02  0.47787269827E+02  0.19999994448E+02 0.  0.
        -12    1    1    2    0    0  0.17729881670E+02  0.35052095957E+01  0.39458689553E+02  0.43400730173E+02  0.00000000000E+00 0.  1.
         11    1    3    3    0    0 -0.26463518715E+01 -0.32268621792E+01 -0.15761545445E+02  0.16304665984E+02  0.51100000000E-03 0. -1.
        -11    1    3    3    0    0 -0.57692262425E+01 -0.26152426459E+01 -0.20349936022E+02  0.21312985757E+02  0.51100000000E-03 0.  1.
        -12    1    3    3    0    0 -0.93143035560E+01  0.23368952293E+01 -0.33472080858E+01  0.10169618086E+02  0.00000000000E+00 0.  1.
</event>
<event>
 7    1  0.2294216E-010  0.4778727E+02  0.7816164E-02  0.1312668E+00
        -11   -1    0    0    0    0  0.00000000000E+00  0.00000000000E+00  0.45593999997E+02  0.45594000000E+02  0.51100000000E-03 0.  1.
         11   -1    0    0    0    0 -0.00000000000E+00 -0.00000000000E+00 -0.45593999997E+02  0.45594000000E+02  0.51100000000E-03 0. -1.
    9900012    2    1    2    0    0  0.32693322462E+02  0.18086062930E+00 -0.28543608641E+02  0.47787266845E+02  0.19999980852E+02 0.  0.
        -12    1    1    2    0    0 -0.32693322462E+02 -0.18086062930E+00  0.28543608641E+02  0.43400733155E+02  0.00000000000E+00 0.  1.
         11    1    3    3    0    0  0.65536403055E+01 -0.25927388316E+01 -0.10993579131E+02  0.13058762509E+02  0.51100000000E-03 0. -1.
        -11    1    3    3    0    0  0.35596829812E+01 -0.20018903813E+01  0.19392281440E+01  0.45210080824E+01  0.51100000000E-03 0.  1.
         12    1    3    3    0    0  0.22579999175E+02  0.47754898423E+01 -0.19489257654E+02  0.30207496253E+02  0.00000000000E+00 0. -1.
</event>
<event>
 7    1  0.2294216E-010  0.4778725E+02  0.7816164E-02  0.1312668E+00
        -11   -1    0    0    0    0  0.00000000000E+00  0.00000000000E+00  0.45593999997E+02  0.45594000000E+02  0.51100000000E-03 0.  1.
         11   -1    0    0    0    0 -0.00000000000E+00 -0.00000000000E+00 -0.45593999997E+02  0.45594000000E+02  0.51100000000E-03 0. -1.
    9900012    2    1    2    0    0  0.31887447689E+02  0.11324272307E+02 -0.27176761389E+02  0.47787253198E+02  0.19999918630E+02 0.  0.
        -12    1    1    2    0    0 -0.31887447689E+02 -0.11324272307E+02  0.27176761389E+02  0.43400746802E+02  0.00000000000E+00 0.  1.
         11    1    3    3    0    0  0.15283406992E+02  0.44906065256E+01 -0.13061893759E+02  0.20600027793E+02  0.51100000000E-03 0. -1.
        -11    1    3    3    0    0  0.10125059900E+02  0.11286047272E+02 -0.75130621537E+01  0.16921518968E+02  0.51100000000E-03 0.  1.
        -12    1    3    3    0    0  0.64789807971E+01 -0.44523814899E+01 -0.66018054762E+01  0.10265706437E+02  0.00000000000E+00 0.  1.
</event>
<event>
 7    1  0.2294216E-010  0.4778727E+02  0.7816164E-02  0.1312668E+00
        -11   -1    0    0    0    0  0.00000000000E+00  0.00000000000E+00  0.45593999997E+02  0.45594000000E+02  0.51100000000E-03 0.  1.
         11   -1    0    0    0    0 -0.00000000000E+00 -0.00000000000E+00 -0.45593999997E+02  0.45594000000E+02  0.51100000000E-03 0. -1.
    9900012    2    1    2    0    0 -0.27339002654E+02 -0.28393481513E+02 -0.18166240484E+02  0.47787272450E+02  0.20000006409E+02 0.  0.
        -12    1    1    2    0    0  0.27339002654E+02  0.28393481513E+02  0.18166240484E+02  0.43400727550E+02  0.00000000000E+00 0.  1.
         11    1    3    3    0    0 -0.13985677303E+02 -0.16914613854E+02 -0.11673710494E+02  0.24859180365E+02  0.51100000000E-03 0. -1.
        -11    1    3    3    0    0 -0.43638146274E+01 -0.11923308072E+02 -0.56214007953E+01  0.13885542865E+02  0.51100000000E-03 0.  1.
        -12    1    3    3    0    0 -0.89895107237E+01  0.44444041357E+00 -0.87112919472E+00  0.90425492205E+01  0.00000000000E+00 0.  1.
</event>
<event>
 7    1  0.2294216E-010  0.4778727E+02  0.7816164E-02  0.1312668E+00
        -11   -1    0    0    0    0  0.00000000000E+00  0.00000000000E+00  0.45593999997E+02  0.45594000000E+02  0.51100000000E-03 0.  1.
         11   -1    0    0    0    0 -0.00000000000E+00 -0.00000000000E+00 -0.45593999997E+02  0.45594000000E+02  0.51100000000E-03 0. -1.
    9900012    2    1    2    0    0  0.15604004822E+02  0.32634094827E+02 -0.23982377012E+02  0.47787268223E+02  0.19999987137E+02 0.  0.
        -12    1    1    2    0    0 -0.15604004822E+02 -0.32634094827E+02  0.23982377012E+02  0.43400731777E+02  0.00000000000E+00 0.  1.
         11    1    3    3    0    0  0.71677947784E+01  0.10042794718E+02 -0.55493581650E+01  0.13528872238E+02  0.51100000000E-03 0. -1.
        -11    1    3    3    0    0  0.52725083800E+00 -0.19614249018E+01  0.69319877577E+00  0.21460908405E+01  0.51100000000E-03 0.  1.
        -12    1    3    3    0    0  0.79089592051E+01  0.24552725010E+02 -0.19126217623E+02  0.32112305144E+02  0.00000000000E+00 0.  1.
</event>
<event>
 7    1  0.2294216E-010  0.4778727E+02  0.7816164E-02  0.1312668E+00
        -11   -1    0    0    0    0  0.00000000000E+00  0.00000000000E+00  0.45593999997E+02  0.45594000000E+02  0.51100000000E-03 0.  1.
         11   -1    0    0    0    0 -0.00000000000E+00 -0.00000000000E+00 -0.45593999997E+02  0.45594000000E+02  0.51100000000E-03 0. -1.
    9900012    2    1    2    0    0 -0.20978698856E+02  0.82211583682E+01 -0.37093532724E+02  0.47787269355E+02  0.19999992295E+02 0.  0.
        -12    1    1    2    0    0  0.20978698856E+02 -0.82211583682E+01  0.37093532724E+02  0.43400730645E+02  0.00000000000E+00 0.  1.
         11    1    3    3    0    0 -0.11206039097E+02  0.71359799442E+01 -0.20321043351E+02  0.24278433333E+02  0.51100000000E-03 0. -1.
        -11    1    3    3    0    0 -0.39992390114E+01  0.60997554058E+01 -0.32745904883E+01  0.79952405723E+01  0.51100000000E-03 0.  1.
         12    1    3    3    0    0 -0.57734207477E+01 -0.50145769818E+01 -0.13497898885E+02  0.15513595449E+02  0.00000000000E+00 0. -1.
</event>
<event>
 7    1  0.2294216E-010  0.4778727E+02  0.7816164E-02  0.1312668E+00
        -11   -1    0    0    0    0  0.00000000000E+00  0.00000000000E+00  0.45593999997E+02  0.45594000000E+02  0.51100000000E-03 0.  1.
         11   -1    0    0    0    0 -0.00000000000E+00 -0.00000000000E+00 -0.45593999997E+02  0.45594000000E+02  0.51100000000E-03 0. -1.
    9900012    2    1    2    0    0 -0.20672817564E+02  0.86040859348E+01 -0.37178319788E+02  0.47787272551E+02  0.20000006870E+02 0.  0.
        -12    1    1    2    0    0  0.20672817564E+02 -0.86040859348E+01  0.37178319788E+02  0.43400727449E+02  0.00000000000E+00 0.  1.
         11    1    3    3    0    0  0.12243026968E+01 -0.17862422482E+00 -0.21846168919E-01  0.12374575643E+01  0.51100000000E-03 0. -1.
        -11    1    3    3    0    0  0.61895001311E+00  0.20079178324E+01  0.49572128705E+00  0.21588360280E+01  0.51100000000E-03 0.  1.
         12    1    3    3    0    0 -0.22516070274E+02  0.67747923273E+01 -0.37652194906E+02  0.44390978959E+02  0.00000000000E+00 0. -1.
</event>
<event>
 7    1  0.2294216E-010  0.4778728E+02  0.7816164E-02  0.1312668E+00
        -11   -1    0    0    0    0  0.00000000000E+00  0.00000000000E+00  0.45593999997E+02  0.45594000000E+02  0.51100000000E-03 0.  1.
         11   -1    0    0    0    0 -0.00000000000E+00 -0.00000000000E+00 -0.45593999997E+02  0.45594000000E+02  0.51100000000E-03 0. -1.
    9900012    2    1    2    0    0  0.34173298213E+02 -0.26738135185E+02  0.93841905947E+00  0.47787276340E+02  0.20000024143E+02 0.  0.
        -12    1    1    2    0    0 -0.34173298213E+02  0.26738135185E+02 -0.93841905947E+00  0.43400723660E+02  0.00000000000E+00 0.  1.
         11    1    3    3    0    0  0.26397870451E+02 -0.28541476333E+02  0.15561218906E+00  0.38877855536E+02  0.51100000000E-03 0. -1.
        -11    1    3    3    0    0  0.13309341440E+01 -0.11460905198E+01  0.45557107642E+00  0.18145121775E+01  0.51100000000E-03 0.  1.
         12    1    3    3    0    0  0.64444936178E+01  0.29494316682E+01  0.32723579400E+00  0.70949086266E+01  0.00000000000E+00 0. -1.
</event>
<event>
 7    1  0.2294216E-010  0.4778727E+02  0.7816164E-02  0.1312668E+00
        -11   -1    0    0    0    0  0.00000000000E+00  0.00000000000E+00  0.45593999997E+02  0.45594000000E+02  0.51100000000E-03 0.  1.
         11   -1    0    0    0    0 -0.00000000000E+00 -0.00000000000E+00 -0.45593999997E+02  0.45594000000E+02  0.51100000000E-03 0. -1.
    9900012    2    1    2    0    0 -0.33059949429E+02 -0.17609601223E+02 -0.21921785995E+02  0.47787274054E+02  0.20000013720E+02 0.  0.
        -12    1    1    2    0    0  0.33059949429E+02  0.17609601223E+02  0.21921785995E+02  0.43400725946E+02  0.00000000000E+00 0.  1.
         11    1    3    3    0    0 -0.13746456444E+02 -0.24621660682E+01 -0.68191599141E+01  0.15541179772E+02  0.51100000000E-03 0. -1.
        -11    1    3    3    0    0 -0.10329288801E+02  0.60090427543E+00 -0.50177224673E+01  0.11499253546E+02  0.51100000000E-03 0.  1.
         12    1    3    3    0    0 -0.89842041838E+01 -0.15748339430E+02 -0.10084903614E+02  0.20746840736E+02  0.00000000000E+00 0. -1.
</event>
<event>
 7    1  0.2294216E-010  0.4778727E+02  0.7816164E-02  0.1312668E+00
        -11   -1    0    0    0    0  0.00000000000E+00  0.00000000000E+00  0.45593999997E+02  0.45594000000E+02  0.51100000000E-03 0. -1.
         11   -1    0    0    0    0 -0.00000000000E+00 -0.00000000000E+00 -0.45593999997E+02  0.45594000000E+02  0.51100000000E-03 0.  1.
    9900012    2    1    2    0    0  0.56449744977E+00 -0.14766004963E+01  0.43371925534E+02  0.47787274995E+02  0.20000018014E+02 0.  0.
        -12    1    1    2    0    0 -0.56449744977E+00  0.14766004963E+01 -0.43371925534E+02  0.43400725005E+02  0.00000000000E+00 0.  1.
         11    1    3    3    0    0 -0.11524359531E+01  0.15803510343E+01  0.20017560867E+02  0.20112890427E+02  0.51100000000E-03 0. -1.
        -11    1    3    3    0    0 -0.59256423048E+01 -0.37911437558E+01  0.93159401279E+01  0.11673591925E+02  0.51100000000E-03 0.  1.
         12    1    3    3    0    0  0.76425757077E+01  0.73419222523E+00  0.14038424539E+02  0.16000792643E+02  0.00000000000E+00 0. -1.
</event>
<event>
 7    1  0.2294216E-010  0.4778727E+02  0.7816164E-02  0.1312668E+00
        -11   -1    0    0    0    0  0.00000000000E+00  0.00000000000E+00  0.45593999997E+02  0.45594000000E+02  0.51100000000E-03 0. -1.
         11   -1    0    0    0    0 -0.00000000000E+00 -0.00000000000E+00 -0.45593999997E+02  0.45594000000E+02  0.51100000000E-03 0.  1.
    9900012    2    1    2    0    0  0.14729273320E+02 -0.10324922622E+02  0.39497693663E+02  0.47787270463E+02  0.19999997347E+02 0.  0.
        -12    1    1    2    0    0 -0.14729273320E+02  0.10324922622E+02 -0.39497693663E+02  0.43400729537E+02  0.00000000000E+00 0.  1.
         11    1    3    3    0    0  0.27357592946E+01 -0.33469434295E+01  0.57276016385E+01  0.71757807957E+01  0.51100000000E-03 0. -1.
        -11    1    3    3    0    0 -0.39725043503E+01 -0.45308287930E+01  0.61161474088E+01  0.85858290078E+01  0.51100000000E-03 0.  1.
         12    1    3    3    0    0  0.15966018375E+02 -0.24471503991E+01  0.27653944616E+02  0.32025660659E+02  0.00000000000E+00 0. -1.
</event>
<event>
 7    1  0.2294216E-010  0.4778727E+02  0.7816164E-02  0.1312668E+00
        -11   -1    0    0    0    0  0.00000000000E+00  0.00000000000E+00  0.45593999997E+02  0.45594000000E+02  0.51100000000E-03 0.  1.
         11   -1    0    0    0    0 -0.00000000000E+00 -0.00000000000E+00 -0.45593999997E+02  0.45594000000E+02  0.51100000000E-03 0. -1.
    9900012    2    1    2    0    0 -0.58451576902E+01 -0.28464554821E+02 -0.32237038170E+02  0.47787269827E+02  0.19999994450E+02 0.  0.
        -12    1    1    2    0    0  0.58451576902E+01  0.28464554821E+02  0.32237038170E+02  0.43400730173E+02  0.00000000000E+00 0.  1.
         11    1    3    3    0    0  0.23873201231E+01 -0.56632183478E+01 -0.67009561953E+01  0.90925328494E+01  0.51100000000E-03 0. -1.
        -11    1    3    3    0    0 -0.70706172002E+01 -0.19514747790E+02 -0.27683474021E+02  0.34600487613E+02  0.51100000000E-03 0.  1.
         12    1    3    3    0    0 -0.11618606131E+01 -0.32865886833E+01  0.21473920470E+01  0.40942493648E+01  0.00000000000E+00 0. -1.
</event>
<event>
 7    1  0.2294216E-010  0.4778728E+02  0.7816164E-02  0.1312668E+00
        -11   -1    0    0    0    0  0.00000000000E+00  0.00000000000E+00  0.45593999997E+02  0.45594000000E+02  0.51100000000E-03 0.  1.
         11   -1    0    0    0    0 -0.00000000000E+00 -0.00000000000E+00 -0.45593999997E+02  0.45594000000E+02  0.51100000000E-03 0. -1.
    9900012    2    1    2    0    0  0.28341423923E+02  0.27242548649E+01 -0.32756140237E+02  0.47787278833E+02  0.20000035512E+02 0.  0.
        -12    1    1    2    0    0 -0.28341423923E+02 -0.27242548649E+01  0.32756140237E+02  0.43400721167E+02  0.00000000000E+00 0.  1.
         11    1    3    3    0    0 -0.30278751942E+00  0.15235463616E+01  0.13929357954E+01  0.20864189869E+01  0.51100000000E-03 0. -1.
        -11    1    3    3    0    0  0.68622305327E+01 -0.50809276775E+00 -0.26667498392E+01  0.73796965459E+01  0.51100000000E-03 0.  1.
         12    1    3    3    0    0  0.21781980910E+02  0.17088012711E+01 -0.31482326193E+02  0.38321163300E+02  0.00000000000E+00 0. -1.
</event>
<event>
 7    1  0.2294216E-010  0.4778728E+02  0.7816164E-02  0.1312668E+00
        -11   -1    0    0    0    0  0.00000000000E+00  0.00000000000E+00  0.45593999997E+02  0.45594000000E+02  0.51100000000E-03 0. -1.
         11   -1    0    0    0    0 -0.00000000000E+00 -0.00000000000E+00 -0.45593999997E+02  0.45594000000E+02  0.51100000000E-03 0.  1.
    9900012    2    1    2    0    0 -0.17305975698E+02  0.37616976251E+02  0.13003417262E+02  0.47787279296E+02  0.20000037622E+02 0.  0.
        -12    1    1    2    0    0  0.17305975698E+02 -0.37616976251E+02 -0.13003417262E+02  0.43400720704E+02  0.00000000000E+00 0.  1.
         11    1    3    3    0    0 -0.77988191014E+01  0.12632488571E+02  0.11290421422E+02  0.18651406462E+02  0.51100000000E-03 0. -1.
        -11    1    3    3    0    0 -0.90440082603E+01  0.10540395472E+02  0.41165220190E+01  0.14485847435E+02  0.51100000000E-03 0.  1.
         12    1    3    3    0    0 -0.46314833643E+00  0.14444092207E+02 -0.24035261788E+01  0.14650025398E+02  0.00000000000E+00 0. -1.
</event>
<event>
 7    1  0.2294216E-010  0.4778727E+02  0.7816164E-02  0.1312668E+00
        -11   -1    0    0    0    0  0.00000000000E+00  0.00000000000E+00  0.45593999997E+02  0.45594000000E+02  0.51100000000E-03 0. -1.
         11   -1    0    0    0    0 -0.00000000000E+00 -0.00000000000E+00 -0.45593999997E+02  0.45594000000E+02  0.51100000000E-03 0.  1.
    9900012    2    1    2    0    0 -0.19417408295E+02 -0.27330908203E+02  0.27561003270E+02  0.47787272019E+02  0.20000004441E+02 0.  0.
        -12    1    1    2    0    0  0.19417408295E+02  0.27330908203E+02 -0.27561003270E+02  0.43400727981E+02  0.00000000000E+00 0.  1.
         11    1    3    3    0    0 -0.73762930594E+01 -0.56465998898E+01  0.17107947538E+01  0.94456661260E+01  0.51100000000E-03 0. -1.
        -11    1    3    3    0    0 -0.39239298958E-01 -0.51579148242E+01 -0.29231491771E+00  0.51663404193E+01  0.51100000000E-03 0.  1.
        -12    1    3    3    0    0 -0.12001875937E+02 -0.16526393489E+02  0.26142523433E+02  0.33175265473E+02  0.00000000000E+00 0.  1.
</event>
<event>
 7    1  0.2294216E-010  0.4778727E+02  0.7816164E-02  0.1312668E+00
        -11   -1    0    0    0    0  0.00000000000E+00  0.00000000000E+00  0.45593999997E+02  0.45594000000E+02  0.51100000000E-03 0.  1.
         11   -1    0    0    0    0 -0.00000000000E+00 -0.00000000000E+00 -0.45593999997E+02  0.45594000000E+02  0.51100000000E-03 0. -1.
    9900012    2    1    2    0    0 -0.32702749995E+02 -0.19312778057E+02 -0.21004049878E+02  0.47787269997E+02  0.19999995224E+02 0.  0.
        -12    1    1    2    0    0  0.32702749995E+02  0.19312778057E+02  0.21004049878E+02  0.43400730003E+02  0.00000000000E+00 0.  1.
         11    1    3    3    0    0 -0.15952638088E+02 -0.14474675677E+02 -0.95104964877E+01  0.23546813831E+02  0.51100000000E-03 0. -1.
        -11    1    3    3    0    0 -0.16777629497E+01 -0.49029793434E+01 -0.66045305323E+01  0.83948745535E+01  0.51100000000E-03 0.  1.
         12    1    3    3    0    0 -0.15072348957E+02  0.64876962692E-01 -0.48890228584E+01  0.15845581612E+02  0.00000000000E+00 0. -1.
</event>
<event>
 7    1  0.2294216E-010  0.4778727E+02  0.7816164E-02  0.1312668E+00
        -11   -1    0    0    0    0  0.00000000000E+00  0.00000000000E+00  0.45593999997E+02  0.45594000000E+02  0.51100000000E-03 0.  1.
         11   -1    0    0    0    0 -0.00000000000E+00 -0.00000000000E+00 -0.45593999997E+02  0.45594000000E+02  0.51100000000E-03 0. -1.
    9900012    2    1    2    0    0 -0.21742618621E+02  0.18561727023E+02 -0.32654924543E+02  0.47787271072E+02  0.20000000125E+02 0.  0.
        -12    1    1    2    0    0  0.21742618621E+02 -0.18561727023E+02  0.32654924543E+02  0.43400728928E+02  0.00000000000E+00 0.  1.
         11    1    3    3    0    0 -0.23469023306E+01 -0.75402930604E+00 -0.66135002749E+01  0.70579669092E+01  0.51100000000E-03 0. -1.
        -11    1    3    3    0    0 -0.98607517671E+00  0.94900795451E+01 -0.39100592433E+01  0.10311281083E+02  0.51100000000E-03 0.  1.
        -12    1    3    3    0    0 -0.18409641114E+02  0.98256767840E+01 -0.22131365025E+02  0.30418023080E+02  0.00000000000E+00 0.  1.
</event>
<event>
 7    1  0.2294216E-010  0.4778727E+02  0.7816164E-02  0.1312668E+00
        -11   -1    0    0    0    0  0.00000000000E+00  0.00000000000E+00  0.45593999997E+02  0.45594000000E+02  0.51100000000E-03 0.  1.
         11   -1    0    0    0    0 -0.00000000000E+00 -0.00000000000E+00 -0.45593999997E+02  0.45594000000E+02  0.51100000000E-03 0. -1.
    9900012    2    1    2    0    0 -0.37239897375E+02  0.18221955217E+01 -0.22214701232E+02  0.47787270699E+02  0.19999998424E+02 0.  0.
        -12    1    1    2    0    0  0.37239897375E+02 -0.18221955217E+01  0.22214701232E+02  0.43400729301E+02  0.00000000000E+00 0.  1.
         11    1    3    3    0    0 -0.10597781255E+00 -0.13962183509E+01  0.77205563546E+00  0.15989769059E+01  0.51100000000E-03 0. -1.
        -11    1    3    3    0    0 -0.14466932570E+02 -0.14833868932E+01 -0.15279836744E+01  0.14622835192E+02  0.51100000000E-03 0.  1.
         12    1    3    3    0    0 -0.22666986992E+02  0.47018007658E+01 -0.21458773193E+02  0.31565458601E+02  0.00000000000E+00 0. -1.
</event>
<event>
 7    1  0.2294216E-010  0.4778727E+02  0.7816164E-02  0.1312668E+00
        -11   -1    0    0    0    0  0.00000000000E+00  0.00000000000E+00  0.45593999997E+02  0.45594000000E+02  0.51100000000E-03 0.  1.
         11   -1    0    0    0    0 -0.00000000000E+00 -0.00000000000E+00 -0.45593999997E+02  0.45594000000E+02  0.51100000000E-03 0. -1.
    9900012    2    1    2    0    0 -0.18837259668E+02  0.19618769845E+02 -0.33821362482E+02  0.47787273714E+02  0.20000012169E+02 0.  0.
        -12    1    1    2    0    0  0.18837259668E+02 -0.19618769845E+02  0.33821362482E+02  0.43400726286E+02  0.00000000000E+00 0.  1.
         11    1    3    3    0    0 -0.77614305183E+01 -0.74120489957E+00 -0.15332229149E+02  0.17200768568E+02  0.51100000000E-03 0.  1.
        -11    1    3    3    0    0 -0.74760724618E+01  0.87734583370E+01 -0.12675221353E+02  0.17132614140E+02  0.51100000000E-03 0. -1.
        -12    1    3    3    0    0 -0.35997566882E+01  0.11586516408E+02 -0.58139119792E+01  0.13453891005E+02  0.00000000000E+00 0.  1.
</event>
<event>
 7    1  0.2294216E-010  0.4778727E+02  0.7816164E-02  0.1312668E+00
        -11   -1    0    0    0    0  0.00000000000E+00  0.00000000000E+00  0.45593999997E+02  0.45594000000E+02  0.51100000000E-03 0.  1.
         11   -1    0    0    0    0 -0.00000000000E+00 -0.00000000000E+00 -0.45593999997E+02  0.45594000000E+02  0.51100000000E-03 0. -1.
    9900012    2    1    2    0    0  0.96223990461E+01 -0.72958351485E+01 -0.41686969618E+02  0.47787271782E+02  0.20000003364E+02 0.  0.
        -12    1    1    2    0    0 -0.96223990461E+01  0.72958351485E+01  0.41686969618E+02  0.43400728218E+02  0.00000000000E+00 0.  1.
         11    1    3    3    0    0  0.15076387830E+01 -0.52886776668E+01 -0.18378142260E+02  0.19183305225E+02  0.51100000000E-03 0. -1.
        -11    1    3    3    0    0 -0.37526235950E+01  0.17025832487E+01 -0.51382726369E+01  0.65865635590E+01  0.51100000000E-03 0.  1.
        -12    1    3    3    0    0  0.11867383858E+02 -0.37097407303E+01 -0.18170554721E+02  0.22017402998E+02  0.00000000000E+00 0.  1.
</event>
<event>
 7    1  0.2294216E-010  0.4778727E+02  0.7816164E-02  0.1312668E+00
        -11   -1    0    0    0    0  0.00000000000E+00  0.00000000000E+00  0.45593999997E+02  0.45594000000E+02  0.51100000000E-03 0.  1.
         11   -1    0    0    0    0 -0.00000000000E+00 -0.00000000000E+00 -0.45593999997E+02  0.45594000000E+02  0.51100000000E-03 0. -1.
    9900012    2    1    2    0    0 -0.29313093424E+02 -0.22099878403E+02 -0.23150844597E+02  0.47787266399E+02  0.19999978821E+02 0.  0.
        -12    1    1    2    0    0  0.29313093424E+02  0.22099878403E+02  0.23150844597E+02  0.43400733601E+02  0.00000000000E+00 0.  1.
         11    1    3    3    0    0 -0.37556622603E+00 -0.65366868779E+01 -0.57487540178E+01  0.87130648080E+01  0.51100000000E-03 0. -1.
        -11    1    3    3    0    0 -0.39752898641E+01  0.17608235169E+01 -0.38373759498E+01  0.57990415934E+01  0.51100000000E-03 0.  1.
         12    1    3    3    0    0 -0.24962237334E+02 -0.17324015042E+02 -0.13564714629E+02  0.33275159998E+02  0.00000000000E+00 0. -1.
</event>
<event>
 7    1  0.2294216E-010  0.4778728E+02  0.7816164E-02  0.1312668E+00
        -11   -1    0    0    0    0  0.00000000000E+00  0.00000000000E+00  0.45593999997E+02  0.45594000000E+02  0.51100000000E-03 0.  1.
         11   -1    0    0    0    0 -0.00000000000E+00 -0.00000000000E+00 -0.45593999997E+02  0.45594000000E+02  0.51100000000E-03 0. -1.
    9900012    2    1    2    0    0  0.21060077103E+02 -0.29639081570E+02 -0.23698536088E+02  0.47787278617E+02  0.20000034526E+02 0.  0.
        -12    1    1    2    0    0 -0.21060077103E+02  0.29639081570E+02  0.23698536088E+02  0.43400721383E+02  0.00000000000E+00 0.  1.
         11    1    3    3    0    0  0.13315697419E+02 -0.16454314273E+02 -0.13042775311E+02  0.24862949222E+02  0.51100000000E-03 0. -1.
        -11    1    3    3    0    0  0.57835066435E+01 -0.45412054704E+01 -0.11885444261E+02  0.13976239901E+02  0.51100000000E-03 0.  1.
         12    1    3    3    0    0  0.19608730401E+01 -0.86435618262E+01  0.12296834839E+01  0.89480894940E+01  0.00000000000E+00 0. -1.
</event>
<event>
 7    1  0.2294216E-010  0.4778727E+02  0.7816164E-02  0.1312668E+00
        -11   -1    0    0    0    0  0.00000000000E+00  0.00000000000E+00  0.45593999997E+02  0.45594000000E+02  0.51100000000E-03 0. -1.
         11   -1    0    0    0    0 -0.00000000000E+00 -0.00000000000E+00 -0.45593999997E+02  0.45594000000E+02  0.51100000000E-03 0.  1.
    9900012    2    1    2    0    0 -0.37258984026E+02 -0.10543375701E+02  0.19601744055E+02  0.47787273834E+02  0.20000012717E+02 0.  0.
        -12    1    1    2    0    0  0.37258984026E+02  0.10543375701E+02 -0.19601744055E+02  0.43400726166E+02  0.00000000000E+00 0.  1.
         11    1    3    3    0    0 -0.13589113636E+02 -0.62199895923E+01  0.23322699791E+01  0.15125864057E+02  0.51100000000E-03 0. -1.
        -11    1    3    3    0    0 -0.53848477200E+01  0.22042567060E+01  0.10673276584E+02  0.12156239793E+02  0.51100000000E-03 0.  1.
        -12    1    3    3    0    0 -0.18285022669E+02 -0.65276428144E+01  0.65961974912E+01  0.20505169984E+02  0.00000000000E+00 0.  1.
</event>
<event>
 7    1  0.2294216E-010  0.4778726E+02  0.7816164E-02  0.1312668E+00
        -11   -1    0    0    0    0  0.00000000000E+00  0.00000000000E+00  0.45593999997E+02  0.45594000000E+02  0.51100000000E-03 0.  1.
         11   -1    0    0    0    0 -0.00000000000E+00 -0.00000000000E+00 -0.45593999997E+02  0.45594000000E+02  0.51100000000E-03 0. -1.
    9900012    2    1    2    0    0 -0.66597337873E+01 -0.24035933299E+01 -0.42819332352E+02  0.47787256480E+02  0.19999933595E+02 0.  0.
        -12    1    1    2    0    0  0.66597337873E+01  0.24035933299E+01  0.42819332352E+02  0.43400743520E+02  0.00000000000E+00 0.  1.
         11    1    3    3    0    0  0.29084442477E+01 -0.15073003325E+01 -0.36010696504E+01  0.48681315843E+01  0.51100000000E-03 0. -1.
        -11    1    3    3    0    0 -0.37868953587E+01  0.59863829434E+01 -0.93664651810E+01  0.11743424860E+02  0.51100000000E-03 0.  1.
         12    1    3    3    0    0 -0.57812826762E+01 -0.68826759408E+01 -0.29851797521E+02  0.31175700035E+02  0.00000000000E+00 0. -1.
</event>
<event>
 7    1  0.2294216E-010  0.4778727E+02  0.7816164E-02  0.1312668E+00
        -11   -1    0    0    0    0  0.00000000000E+00  0.00000000000E+00  0.45593999997E+02  0.45594000000E+02  0.51100000000E-03 0.  1.
         11   -1    0    0    0    0 -0.00000000000E+00 -0.00000000000E+00 -0.45593999997E+02  0.45594000000E+02  0.51100000000E-03 0. -1.
    9900012    2    1    2    0    0 -0.37845600143E+02  0.21228992517E+02 -0.81459467909E+00  0.47787272610E+02  0.20000007140E+02 0.  0.
        -12    1    1    2    0    0  0.37845600143E+02 -0.21228992517E+02  0.81459467909E+00  0.43400727390E+02  0.00000000000E+00 0.  1.
         11    1    3    3    0    0 -0.17613453211E+02  0.18312475574E+02 -0.55153346996E+01  0.25999988707E+02  0.51100000000E-03 0. -1.
        -11    1    3    3    0    0 -0.35350316525E+01  0.21813347948E+01  0.27009516420E+01  0.49547765141E+01  0.51100000000E-03 0.  1.
        -12    1    3    3    0    0 -0.16697115279E+02  0.73518214814E+00  0.19997883785E+01  0.16832507389E+02  0.00000000000E+00 0.  1.
</event>
<event>
 7    1  0.2294216E-010  0.4778727E+02  0.7816164E-02  0.1312668E+00
        -11   -1    0    0    0    0  0.00000000000E+00  0.00000000000E+00  0.45593999997E+02  0.45594000000E+02  0.51100000000E-03 0.  1.
         11   -1    0    0    0    0 -0.00000000000E+00 -0.00000000000E+00 -0.45593999997E+02  0.45594000000E+02  0.51100000000E-03 0. -1.
    9900012    2    1    2    0    0  0.99293124674E+01  0.42246539993E+02 -0.51195039940E+00  0.47787268662E+02  0.19999989138E+02 0.  0.
        -12    1    1    2    0    0 -0.99293124674E+01 -0.42246539993E+02  0.51195039940E+00  0.43400731338E+02  0.00000000000E+00 0.  1.
         11    1    3    3    0    0  0.58774437284E+01  0.31744554250E+02 -0.45678109477E+01  0.32605612499E+02  0.51100000000E-03 0. -1.
        -11    1    3    3    0    0  0.11779682888E+01  0.90540742050E+01 -0.10037326224E+01  0.91853877674E+01  0.51100000000E-03 0.  1.
        -12    1    3    3    0    0  0.28739004502E+01  0.14479115376E+01  0.50595931706E+01  0.59962683955E+01  0.00000000000E+00 0.  1.
</event>
<event>
 7    1  0.2294216E-010  0.4778727E+02  0.7816164E-02  0.1312668E+00
        -11   -1    0    0    0    0  0.00000000000E+00  0.00000000000E+00  0.45593999997E+02  0.45594000000E+02  0.51100000000E-03 0. -1.
         11   -1    0    0    0    0 -0.00000000000E+00 -0.00000000000E+00 -0.45593999997E+02  0.45594000000E+02  0.51100000000E-03 0.  1.
    9900012    2    1    2    0    0 -0.30696310218E+02  0.22284865309E+02  0.21088975221E+02  0.47787267763E+02  0.19999985039E+02 0.  0.
        -12    1    1    2    0    0  0.30696310218E+02 -0.22284865309E+02 -0.21088975221E+02  0.43400732237E+02  0.00000000000E+00 0.  1.
         11    1    3    3    0    0 -0.10866635749E+02  0.80508122235E+01  0.10049989026E+02  0.16849380690E+02  0.51100000000E-03 0. -1.
        -11    1    3    3    0    0 -0.17785973069E+02  0.37280219416E+01  0.63109265488E+01  0.19237119841E+02  0.51100000000E-03 0.  1.
         12    1    3    3    0    0 -0.20437013999E+01  0.10506031144E+02  0.47280596464E+01  0.11700767232E+02  0.00000000000E+00 0. -1.
</event>
<event>
 7    1  0.2294216E-010  0.4778727E+02  0.7816164E-02  0.1312668E+00
        -11   -1    0    0    0    0  0.00000000000E+00  0.00000000000E+00  0.45593999997E+02  0.45594000000E+02  0.51100000000E-03 0. -1.
         11   -1    0    0    0    0 -0.00000000000E+00 -0.00000000000E+00 -0.45593999997E+02  0.45594000000E+02  0.51100000000E-03 0.  1.
    9900012    2    1    2    0    0  0.29248316722E+02  0.25065015479E+02  0.19997605763E+02  0.47787271109E+02  0.20000000295E+02 0.  0.
        -12    1    1    2    0    0 -0.29248316722E+02 -0.25065015479E+02 -0.19997605763E+02  0.43400728891E+02  0.00000000000E+00 0.  1.
         11    1    3    3    0    0  0.10922085388E+02  0.87956561103E+01  0.81619955354E+01  0.16225710678E+02  0.51100000000E-03 0. -1.
        -11    1    3    3    0    0  0.90286014505E+01 -0.59927005113E+00  0.76541941120E+01  0.11851643621E+02  0.51100000000E-03 0.  1.
         12    1    3    3    0    0  0.92976298835E+01  0.16868629420E+02  0.41814161158E+01  0.19709916811E+02  0.00000000000E+00 0. -1.
</event>
<event>
 7    1  0.2294216E-010  0.4778727E+02  0.7816164E-02  0.1312668E+00
        -11   -1    0    0    0    0  0.00000000000E+00  0.00000000000E+00  0.45593999997E+02  0.45594000000E+02  0.51100000000E-03 0.  1.
         11   -1    0    0    0    0 -0.00000000000E+00 -0.00000000000E+00 -0.45593999997E+02  0.45594000000E+02  0.51100000000E-03 0. -1.
    9900012    2    1    2    0    0  0.21703845254E+02 -0.14633467105E+02 -0.34618318644E+02  0.47787271388E+02  0.20000001567E+02 0.  0.
        -12    1    1    2    0    0 -0.21703845254E+02  0.14633467105E+02  0.34618318644E+02  0.43400728612E+02  0.00000000000E+00 0.  1.
         11    1    3    3    0    0  0.85373332343E+00 -0.10326898407E+01 -0.15709443818E+01  0.20647458455E+01  0.51100000000E-03 0. -1.
        -11    1    3    3    0    0  0.91741805952E+01  0.42613346907E+01 -0.86530741315E+01  0.13311658617E+02  0.51100000000E-03 0.  1.
        -12    1    3    3    0    0  0.11675931335E+02 -0.17862111955E+02 -0.24394300130E+02  0.32410866926E+02  0.00000000000E+00 0.  1.
</event>
<event>
 7    1  0.2294216E-010  0.4778727E+02  0.7816164E-02  0.1312668E+00
        -11   -1    0    0    0    0  0.00000000000E+00  0.00000000000E+00  0.45593999997E+02  0.45594000000E+02  0.51100000000E-03 0. -1.
         11   -1    0    0    0    0 -0.00000000000E+00 -0.00000000000E+00 -0.45593999997E+02  0.45594000000E+02  0.51100000000E-03 0.  1.
    9900012    2    1    2    0    0  0.30415501694E+02  0.29984963267E+02  0.77085916287E+01  0.47787272468E+02  0.20000006490E+02 0.  0.
        -12    1    1    2    0    0 -0.30415501694E+02 -0.29984963267E+02 -0.77085916287E+01  0.43400727532E+02  0.00000000000E+00 0.  1.
         11    1    3    3    0    0  0.12677054194E+02  0.10668224659E+02  0.31268511959E+01  0.16861077044E+02  0.51100000000E-03 0. -1.
        -11    1    3    3    0    0  0.46512794206E+01  0.16449130346E+02  0.37640589673E+01  0.17503611900E+02  0.51100000000E-03 0.  1.
         12    1    3    3    0    0  0.13087168079E+02  0.28676082623E+01  0.81768146541E+00  0.13422583524E+02  0.00000000000E+00 0. -1.
</event>
<event>
 7    1  0.2294216E-010  0.4778727E+02  0.7816164E-02  0.1312668E+00
        -11   -1    0    0    0    0  0.00000000000E+00  0.00000000000E+00  0.45593999997E+02  0.45594000000E+02  0.51100000000E-03 0. -1.
         11   -1    0    0    0    0 -0.00000000000E+00 -0.00000000000E+00 -0.45593999997E+02  0.45594000000E+02  0.51100000000E-03 0.  1.
    9900012    2    1    2    0    0 -0.24721155485E+02 -0.19832647718E+02  0.29650530635E+02  0.47787269465E+02  0.19999992801E+02 0.  0.
        -12    1    1    2    0    0  0.24721155485E+02  0.19832647718E+02 -0.29650530635E+02  0.43400730535E+02  0.00000000000E+00 0.  1.
         11    1    3    3    0    0 -0.22424259241E+02 -0.12421461866E+02  0.27689664791E+02  0.37734038399E+02  0.51100000000E-03 0. -1.
        -11    1    3    3    0    0 -0.37456579783E+01 -0.38479230276E+01  0.28869461081E+01  0.60967961593E+01  0.51100000000E-03 0.  1.
        -12    1    3    3    0    0  0.14487617339E+01 -0.35632628246E+01 -0.92608026482E+00  0.39564349073E+01  0.00000000000E+00 0.  1.
</event>
<event>
 7    1  0.2294216E-010  0.4778727E+02  0.7816164E-02  0.1312668E+00
        -11   -1    0    0    0    0  0.00000000000E+00  0.00000000000E+00  0.45593999997E+02  0.45594000000E+02  0.51100000000E-03 0.  1.
         11   -1    0    0    0    0 -0.00000000000E+00 -0.00000000000E+00 -0.45593999997E+02  0.45594000000E+02  0.51100000000E-03 0. -1.
    9900012    2    1    2    0    0  0.22798166286E+02  0.17616109702E+02 -0.32458276005E+02  0.47787269727E+02  0.19999993992E+02 0.  0.
        -12    1    1    2    0    0 -0.22798166286E+02 -0.17616109702E+02  0.32458276005E+02  0.43400730273E+02  0.00000000000E+00 0.  1.
         11    1    3    3    0    0 -0.23401765049E+01  0.28242381369E+01 -0.10356175593E+02  0.10986497181E+02  0.51100000000E-03 0. -1.
        -11    1    3    3    0    0  0.13424950660E+01  0.17441922288E+01 -0.24546738963E+01  0.32969567379E+01  0.51100000000E-03 0.  1.
         12    1    3    3    0    0  0.23795847725E+02  0.13047679336E+02 -0.19647426516E+02  0.33503815808E+02  0.00000000000E+00 0. -1.
</event>
<event>
 7    1  0.2294216E-010  0.4778727E+02  0.7816164E-02  0.1312668E+00
        -11   -1    0    0    0    0  0.00000000000E+00  0.00000000000E+00  0.45593999997E+02  0.45594000000E+02  0.51100000000E-03 0.  1.
         11   -1    0    0    0    0 -0.00000000000E+00 -0.00000000000E+00 -0.45593999997E+02  0.45594000000E+02  0.51100000000E-03 0. -1.
    9900012    2    1    2    0    0 -0.15711918584E+02  0.18235616842E+02 -0.36114003914E+02  0.47787269754E+02  0.19999994118E+02 0.  0.
        -12    1    1    2    0    0  0.15711918584E+02 -0.18235616842E+02  0.36114003914E+02  0.43400730246E+02  0.00000000000E+00 0.  1.
         11    1    3    3    0    0  0.13483359144E+00  0.42632538564E+01 -0.43593493550E+01  0.60989704542E+01  0.51100000000E-03 0. -1.
        -11    1    3    3    0    0 -0.13858589924E+02  0.12807875643E+02 -0.13291009558E+02  0.23081445547E+02  0.51100000000E-03 0.  1.
         12    1    3    3    0    0 -0.19881622508E+01  0.11644873419E+01 -0.18463645000E+02  0.18606853753E+02  0.00000000000E+00 0. -1.
</event>
<event>
 7    1  0.2294216E-010  0.4778727E+02  0.7816164E-02  0.1312668E+00
        -11   -1    0    0    0    0  0.00000000000E+00  0.00000000000E+00  0.45593999997E+02  0.45594000000E+02  0.51100000000E-03 0.  1.
         11   -1    0    0    0    0 -0.00000000000E+00 -0.00000000000E+00 -0.45593999997E+02  0.45594000000E+02  0.51100000000E-03 0. -1.
    9900012    2    1    2    0    0  0.13970105882E+02 -0.26833160160E+02 -0.31119789011E+02  0.47787267165E+02  0.19999982313E+02 0.  0.
        -12    1    1    2    0    0 -0.13970105882E+02  0.26833160160E+02  0.31119789011E+02  0.43400732835E+02  0.00000000000E+00 0.  1.
         11    1    3    3    0    0  0.12173576927E+02 -0.12761077308E+02 -0.23805756900E+02  0.29626932530E+02  0.51100000000E-03 0. -1.
        -11    1    3    3    0    0  0.39437576929E+01 -0.37769696963E+01 -0.49741268998E+01  0.73865190383E+01  0.51100000000E-03 0.  1.
        -12    1    3    3    0    0 -0.21472287386E+01 -0.10295113155E+02 -0.23399052116E+01  0.10773815597E+02  0.00000000000E+00 0.  1.
</event>
<event>
 7    1  0.2294216E-010  0.4778727E+02  0.7816164E-02  0.1312668E+00
        -11   -1    0    0    0    0  0.00000000000E+00  0.00000000000E+00  0.45593999997E+02  0.45594000000E+02  0.51100000000E-03 0. -1.
         11   -1    0    0    0    0 -0.00000000000E+00 -0.00000000000E+00 -0.45593999997E+02  0.45594000000E+02  0.51100000000E-03 0.  1.
    9900012    2    1    2    0    0 -0.44432943497E+01 -0.38874016879E+02  0.18780076673E+02  0.47787270365E+02  0.19999996903E+02 0.  0.
        -12    1    1    2    0    0  0.44432943497E+01  0.38874016879E+02 -0.18780076673E+02  0.43400729635E+02  0.00000000000E+00 0.  1.
         11    1    3    3    0    0 -0.34394743400E+00 -0.19205171189E+02  0.64513037403E+01  0.20262680485E+02  0.51100000000E-03 0. -1.
        -11    1    3    3    0    0  0.46835467065E+01 -0.39201963135E+01  0.89471604020E+00  0.61728490943E+01  0.51100000000E-03 0.  1.
        -12    1    3    3    0    0 -0.87828936222E+01 -0.15748649377E+02  0.11434056892E+02  0.21351740786E+02  0.00000000000E+00 0.  1.
</event>
<event>
 7    1  0.2294216E-010  0.4778727E+02  0.7816164E-02  0.1312668E+00
        -11   -1    0    0    0    0  0.00000000000E+00  0.00000000000E+00  0.45593999997E+02  0.45594000000E+02  0.51100000000E-03 0.  1.
         11   -1    0    0    0    0 -0.00000000000E+00 -0.00000000000E+00 -0.45593999997E+02  0.45594000000E+02  0.51100000000E-03 0. -1.
    9900012    2    1    2    0    0  0.18070084234E+02  0.83352163068E+01 -0.38569673344E+02  0.47787268705E+02  0.19999989333E+02 0.  0.
        -12    1    1    2    0    0 -0.18070084234E+02 -0.83352163068E+01  0.38569673344E+02  0.43400731295E+02  0.00000000000E+00 0.  1.
         11    1    3    3    0    0  0.54394196667E+01  0.96413476575E+01 -0.17438936467E+02  0.20655734708E+02  0.51100000000E-03 0.  1.
        -11    1    3    3    0    0  0.62360143661E+01  0.40472268172E+01 -0.49600613599E+01  0.89370089538E+01  0.51100000000E-03 0. -1.
        -12    1    3    3    0    0  0.63946502015E+01 -0.53533581680E+01 -0.16170675517E+02  0.18194525044E+02  0.00000000000E+00 0.  1.
</event>
<event>
 7    1  0.2294216E-010  0.4778727E+02  0.7816164E-02  0.1312668E+00
        -11   -1    0    0    0    0  0.00000000000E+00  0.00000000000E+00  0.45593999997E+02  0.45594000000E+02  0.51100000000E-03 0.  1.
         11   -1    0    0    0    0 -0.00000000000E+00 -0.00000000000E+00 -0.45593999997E+02  0.45594000000E+02  0.51100000000E-03 0. -1.
    9900012    2    1    2    0    0  0.10856450846E+02 -0.39574379098E+02  0.14129018473E+02  0.47787272253E+02  0.20000005509E+02 0.  0.
        -12    1    1    2    0    0 -0.10856450846E+02  0.39574379098E+02 -0.14129018473E+02  0.43400727747E+02  0.00000000000E+00 0.  1.
         11    1    3    3    0    0  0.28301770556E+01 -0.26687426348E+02  0.46291250561E+00  0.26841067704E+02  0.51100000000E-03 0. -1.
        -11    1    3    3    0    0  0.18849093097E+00 -0.40553264843E+01  0.37549703497E+01  0.55300094316E+01  0.51100000000E-03 0.  1.
         12    1    3    3    0    0  0.78377828596E+01 -0.88316262662E+01  0.99111356173E+01  0.15416195117E+02  0.00000000000E+00 0. -1.
</event>
<event>
 7    1  0.2294216E-010  0.4778727E+02  0.7816164E-02  0.1312668E+00
        -11   -1    0    0    0    0  0.00000000000E+00  0.00000000000E+00  0.45593999997E+02  0.45594000000E+02  0.51100000000E-03 0. -1.
         11   -1    0    0    0    0 -0.00000000000E+00 -0.00000000000E+00 -0.45593999997E+02  0.45594000000E+02  0.51100000000E-03 0.  1.
    9900012    2    1    2    0    0 -0.59278892285E+01  0.33965421702E+01  0.42859619555E+02  0.47787270078E+02  0.19999995592E+02 0.  0.
        -12    1    1    2    0    0  0.59278892285E+01 -0.33965421702E+01 -0.42859619555E+02  0.43400729922E+02  0.00000000000E+00 0.  1.
         11    1    3    3    0    0 -0.18091927768E+01  0.25689395099E+01  0.53031474428E+01  0.61640896952E+01  0.51100000000E-03 0. -1.
        -11    1    3    3    0    0 -0.41868556995E+01  0.53766182222E+01  0.43017886771E+01  0.80587325454E+01  0.51100000000E-03 0.  1.
         12    1    3    3    0    0  0.68159247874E-01 -0.45490155618E+01  0.33254683435E+02  0.33564447837E+02  0.00000000000E+00 0. -1.
</event>
<event>
 7    1  0.2294216E-010  0.4778727E+02  0.7816164E-02  0.1312668E+00
        -11   -1    0    0    0    0  0.00000000000E+00  0.00000000000E+00  0.45593999997E+02  0.45594000000E+02  0.51100000000E-03 0.  1.
         11   -1    0    0    0    0 -0.00000000000E+00 -0.00000000000E+00 -0.45593999997E+02  0.45594000000E+02  0.51100000000E-03 0. -1.
    9900012    2    1    2    0    0  0.15538269995E+02 -0.38114269551E+02 -0.13765458127E+02  0.47787271719E+02  0.20000003076E+02 0.  0.
        -12    1    1    2    0    0 -0.15538269995E+02  0.38114269551E+02  0.13765458127E+02  0.43400728281E+02  0.00000000000E+00 0.  1.
         11    1    3    3    0    0  0.44871747328E+01 -0.78244980583E+01 -0.74038535978E+01  0.11669385387E+02  0.51100000000E-03 0. -1.
        -11    1    3    3    0    0  0.11185920227E+02 -0.11970685039E+02  0.90778469254E+00  0.16408722831E+02  0.51100000000E-03 0.  1.
         12    1    3    3    0    0 -0.13482496469E+00 -0.18319086454E+02 -0.72693892217E+01  0.19709163501E+02  0.00000000000E+00 0. -1.
</event>
<event>
 7    1  0.2294216E-010  0.4778727E+02  0.7816164E-02  0.1312668E+00
        -11   -1    0    0    0    0  0.00000000000E+00  0.00000000000E+00  0.45593999997E+02  0.45594000000E+02  0.51100000000E-03 0.  1.
         11   -1    0    0    0    0 -0.00000000000E+00 -0.00000000000E+00 -0.45593999997E+02  0.45594000000E+02  0.51100000000E-03 0. -1.
    9900012    2    1    2    0    0  0.49815110965E+01 -0.37534786048E+02  0.21211972475E+02  0.47787269675E+02  0.19999993756E+02 0.  0.
        -12    1    1    2    0    0 -0.49815110965E+01  0.37534786048E+02 -0.21211972475E+02  0.43400730325E+02  0.00000000000E+00 0.  1.
         11    1    3    3    0    0 -0.28146595351E+00  0.59556768698E+00  0.15831286166E+01  0.17147070976E+01  0.51100000000E-03 0.  1.
        -11    1    3    3    0    0  0.99567303278E+01 -0.26154245221E+02  0.17575542387E+02  0.33046644495E+02  0.51100000000E-03 0. -1.
        -12    1    3    3    0    0 -0.46937532777E+01 -0.11976108514E+02  0.20533014717E+01  0.13025918083E+02  0.00000000000E+00 0.  1.
</event>
<event>
 7    1  0.2294216E-010  0.4778727E+02  0.7816164E-02  0.1312668E+00
        -11   -1    0    0    0    0  0.00000000000E+00  0.00000000000E+00  0.45593999997E+02  0.45594000000E+02  0.51100000000E-03 0.  1.
         11   -1    0    0    0    0 -0.00000000000E+00 -0.00000000000E+00 -0.45593999997E+02  0.45594000000E+02  0.51100000000E-03 0. -1.
    9900012    2    1    2    0    0  0.13743576126E+02 -0.40254825896E+02  0.86189716518E+01  0.47787267691E+02  0.19999984710E+02 0.  0.
        -12    1    1    2    0    0 -0.13743576126E+02  0.40254825896E+02 -0.86189716518E+01  0.43400732309E+02  0.00000000000E+00 0.  1.
         11    1    3    3    0    0  0.23827980822E+01 -0.14288670272E+02  0.83575991462E+01  0.16724033263E+02  0.51100000000E-03 0. -1.
        -11    1    3    3    0    0 -0.24404701307E+01 -0.53523433806E+01 -0.18492048524E+01  0.61662819405E+01  0.51100000000E-03 0.  1.
         12    1    3    3    0    0  0.13801248175E+02 -0.20613812243E+02  0.21105773580E+01  0.24896952487E+02  0.00000000000E+00 0. -1.
</event>
<event>
 7    1  0.2294216E-010  0.4778729E+02  0.7816164E-02  0.1312668E+00
        -11   -1    0    0    0    0  0.00000000000E+00  0.00000000000E+00  0.45593999997E+02  0.45594000000E+02  0.51100000000E-03 0.  1.
         11   -1    0    0    0    0 -0.00000000000E+00 -0.00000000000E+00 -0.45593999997E+02  0.45594000000E+02  0.51100000000E-03 0. -1.
    9900012    2    1    2    0    0 -0.31563574624E+02  0.24604803583E+02 -0.16791833440E+02  0.47787294099E+02  0.20000105116E+02 0.  0.
        -12    1    1    2    0    0  0.31563574624E+02 -0.24604803583E+02  0.16791833440E+02  0.43400705901E+02  0.00000000000E+00 0.  1.
         11    1    3    3    0    0 -0.20355011443E+02  0.14303665241E+02 -0.90749141593E+01  0.26481604887E+02  0.51100000000E-03 0. -1.
        -11    1    3    3    0    0 -0.74265034079E+01  0.10452787251E+00  0.83027624279E+00  0.74735023814E+01  0.51100000000E-03 0.  1.
        -12    1    3    3    0    0 -0.37820597735E+01  0.10196610470E+02 -0.85471955238E+01  0.13832186831E+02  0.00000000000E+00 0.  1.
</event>
<event>
 7    1  0.2294216E-010  0.4778726E+02  0.7816164E-02  0.1312668E+00
        -11   -1    0    0    0    0  0.00000000000E+00  0.00000000000E+00  0.45593999997E+02  0.45594000000E+02  0.51100000000E-03 0. -1.
         11   -1    0    0    0    0 -0.00000000000E+00 -0.00000000000E+00 -0.45593999997E+02  0.45594000000E+02  0.51100000000E-03 0.  1.
    9900012    2    1    2    0    0  0.39727210466E+01  0.20739053967E+02  0.37917454807E+02  0.47787259787E+02  0.19999948675E+02 0.  0.
        -12    1    1    2    0    0 -0.39727210466E+01 -0.20739053967E+02 -0.37917454807E+02  0.43400740213E+02  0.00000000000E+00 0.  1.
         11    1    3    3    0    0  0.26832512529E+01  0.67235457406E+01  0.17122662236E+02  0.18590090557E+02  0.51100000000E-03 0. -1.
        -11    1    3    3    0    0 -0.24590484874E+01  0.89580126426E+01  0.20931761785E+02  0.22900470774E+02  0.51100000000E-03 0.  1.
        -12    1    3    3    0    0  0.37485182811E+01  0.50574955836E+01 -0.13696921453E+00  0.62966984562E+01  0.00000000000E+00 0.  1.
</event>
<event>
 7    1  0.2294216E-010  0.4778727E+02  0.7816164E-02  0.1312668E+00
        -11   -1    0    0    0    0  0.00000000000E+00  0.00000000000E+00  0.45593999997E+02  0.45594000000E+02  0.51100000000E-03 0. -1.
         11   -1    0    0    0    0 -0.00000000000E+00 -0.00000000000E+00 -0.45593999997E+02  0.45594000000E+02  0.51100000000E-03 0.  1.
    9900012    2    1    2    0    0  0.17645773138E+02 -0.29654022068E+02  0.26322782286E+02  0.47787271876E+02  0.20000003791E+02 0.  0.
        -12    1    1    2    0    0 -0.17645773138E+02  0.29654022068E+02 -0.26322782286E+02  0.43400728124E+02  0.00000000000E+00 0.  1.
         11    1    3    3    0    0  0.67672537700E+01 -0.20032900450E+02  0.10640966874E+02  0.23671565227E+02  0.51100000000E-03 0. -1.
        -11    1    3    3    0    0  0.28790614594E+01 -0.93531903475E+01  0.57146960031E+01  0.11332648200E+02  0.51100000000E-03 0.  1.
         12    1    3    3    0    0  0.79994579083E+01 -0.26793127098E+00  0.99671194091E+01  0.12783058449E+02  0.00000000000E+00 0. -1.
</event>
<event>
 7    1  0.2294216E-010  0.4778727E+02  0.7816164E-02  0.1312668E+00
        -11   -1    0    0    0    0  0.00000000000E+00  0.00000000000E+00  0.45593999997E+02  0.45594000000E+02  0.51100000000E-03 0.  1.
         11   -1    0    0    0    0 -0.00000000000E+00 -0.00000000000E+00 -0.45593999997E+02  0.45594000000E+02  0.51100000000E-03 0. -1.
    9900012    2    1    2    0    0 -0.63225164217E+01  0.37851466951E+02 -0.20271055196E+02  0.47787269096E+02  0.19999991114E+02 0.  0.
        -12    1    1    2    0    0  0.63225164217E+01 -0.37851466951E+02  0.20271055196E+02  0.43400730904E+02  0.00000000000E+00 0.  1.
         11    1    3    3    0    0  0.16382744686E+01  0.10965043596E+02 -0.88286272333E+00  0.11121851066E+02  0.51100000000E-03 0. -1.
        -11    1    3    3    0    0 -0.12632698045E+01  0.23624260812E+02 -0.14302949638E+02  0.27645540655E+02  0.51100000000E-03 0.  1.
        -12    1    3    3    0    0 -0.66975210858E+01  0.32621625440E+01 -0.50852428350E+01  0.90198773744E+01  0.00000000000E+00 0.  1.
</event>
<event>
 7    1  0.2294216E-010  0.4778727E+02  0.7816164E-02  0.1312668E+00
        -11   -1    0    0    0    0  0.00000000000E+00  0.00000000000E+00  0.45593999997E+02  0.45594000000E+02  0.51100000000E-03 0.  1.
         11   -1    0    0    0    0 -0.00000000000E+00 -0.00000000000E+00 -0.45593999997E+02  0.45594000000E+02  0.51100000000E-03 0. -1.
    9900012    2    1    2    0    0  0.22794746919E+02  0.13063426334E+02 -0.34545182762E+02  0.47787271357E+02  0.20000001427E+02 0.  0.
        -12    1    1    2    0    0 -0.22794746919E+02 -0.13063426334E+02  0.34545182762E+02  0.43400728643E+02  0.00000000000E+00 0.  1.
         11    1    3    3    0    0  0.18934489744E+02  0.52315587852E+01 -0.30723464876E+02  0.36466634112E+02  0.51100000000E-03 0. -1.
        -11    1    3    3    0    0  0.14456673370E+01 -0.82524041019E+00 -0.70923190280E+00  0.18094159104E+01  0.51100000000E-03 0.  1.
         12    1    3    3    0    0  0.24145898374E+01  0.86571079586E+01 -0.31124859830E+01  0.95112213351E+01  0.00000000000E+00 0. -1.
</event>
<event>
 7    1  0.2294216E-010  0.4778727E+02  0.7816164E-02  0.1312668E+00
        -11   -1    0    0    0    0  0.00000000000E+00  0.00000000000E+00  0.45593999997E+02  0.45594000000E+02  0.51100000000E-03 0.  1.
         11   -1    0    0    0    0 -0.00000000000E+00 -0.00000000000E+00 -0.45593999997E+02  0.45594000000E+02  0.51100000000E-03 0. -1.
    9900012    2    1    2    0    0 -0.11512857778E+02  0.50586492896E+01 -0.41538989125E+02  0.47787269081E+02  0.19999991046E+02 0.  0.
        -12    1    1    2    0    0  0.11512857778E+02 -0.50586492896E+01  0.41538989125E+02  0.43400730919E+02  0.00000000000E+00 0.  1.
         11    1    3    3    0    0 -0.11393221972E+02  0.87200793116E+01 -0.36514604645E+02  0.39232150626E+02  0.51100000000E-03 0. -1.
        -11    1    3    3    0    0  0.70109917715E-01  0.15359781826E+01 -0.20540888070E+01  0.25658186736E+01  0.51100000000E-03 0.  1.
        -12    1    3    3    0    0 -0.18974572438E+00 -0.51974082046E+01 -0.29702956729E+01  0.59892997813E+01  0.00000000000E+00 0.  1.
</event>
<event>
 7    1  0.2294216E-010  0.4778727E+02  0.7816164E-02  0.1312668E+00
        -11   -1    0    0    0    0  0.00000000000E+00  0.00000000000E+00  0.45593999997E+02  0.45594000000E+02  0.51100000000E-03 0. -1.
         11   -1    0    0    0    0 -0.00000000000E+00 -0.00000000000E+00 -0.45593999997E+02  0.45594000000E+02  0.51100000000E-03 0.  1.
    9900012    2    1    2    0    0 -0.61610718358E+01  0.11825571449E+02  0.41301575553E+02  0.47787273170E+02  0.20000009690E+02 0.  0.
        -12    1    1    2    0    0  0.61610718358E+01 -0.11825571449E+02 -0.41301575553E+02  0.43400726830E+02  0.00000000000E+00 0.  1.
         11    1    3    3    0    0 -0.94488907737E-01  0.77651069732E+01  0.88137781296E+01  0.11746850626E+02  0.51100000000E-03 0. -1.
        -11    1    3    3    0    0 -0.91577729609E+01  0.67307771909E+01  0.21522600804E+02  0.24339073787E+02  0.51100000000E-03 0.  1.
         12    1    3    3    0    0  0.30911900329E+01 -0.26703127154E+01  0.10965196619E+02  0.11701348756E+02  0.00000000000E+00 0. -1.
</event>
<event>
 7    1  0.2294216E-010  0.4778727E+02  0.7816164E-02  0.1312668E+00
        -11   -1    0    0    0    0  0.00000000000E+00  0.00000000000E+00  0.45593999997E+02  0.45594000000E+02  0.51100000000E-03 0.  1.
         11   -1    0    0    0    0 -0.00000000000E+00 -0.00000000000E+00 -0.45593999997E+02  0.45594000000E+02  0.51100000000E-03 0. -1.
    9900012    2    1    2    0    0  0.27300657943E+01  0.40172435352E+02 -0.16197082166E+02  0.47787270835E+02  0.19999999047E+02 0.  0.
        -12    1    1    2    0    0 -0.27300657943E+01 -0.40172435352E+02  0.16197082166E+02  0.43400729165E+02  0.00000000000E+00 0.  1.
         11    1    3    3    0    0  0.18938953201E+01  0.24250825915E+02 -0.10523593537E+02  0.26503498227E+02  0.51100000000E-03 0. -1.
        -11    1    3    3    0    0 -0.15523084032E+01  0.17402708858E+02 -0.37264241723E+01  0.17864774679E+02  0.51100000000E-03 0.  1.
        -12    1    3    3    0    0  0.23884788775E+01 -0.14810994212E+01 -0.19470644564E+01  0.34189979294E+01  0.00000000000E+00 0.  1.
</event>
<event>
 7    1  0.2294216E-010  0.4778727E+02  0.7816164E-02  0.1312668E+00
        -11   -1    0    0    0    0  0.00000000000E+00  0.00000000000E+00  0.45593999997E+02  0.45594000000E+02  0.51100000000E-03 0.  1.
         11   -1    0    0    0    0 -0.00000000000E+00 -0.00000000000E+00 -0.45593999997E+02  0.45594000000E+02  0.51100000000E-03 0. -1.
    9900012    2    1    2    0    0  0.26904224671E+02 -0.27994464048E+02 -0.19393197678E+02  0.47787269146E+02  0.19999991344E+02 0.  0.
        -12    1    1    2    0    0 -0.26904224671E+02  0.27994464048E+02  0.19393197678E+02  0.43400730854E+02  0.00000000000E+00 0.  1.
         11    1    3    3    0    0  0.10897218890E+02 -0.96262203410E+01 -0.98509525250E+01  0.17562880274E+02  0.51100000000E-03 0. -1.
        -11    1    3    3    0    0  0.17326263785E+02 -0.11407459017E+02 -0.37661685054E+01  0.21083490305E+02  0.51100000000E-03 0.  1.
        -12    1    3    3    0    0 -0.13192580039E+01 -0.69607846902E+01 -0.57760766471E+01  0.91408985673E+01  0.00000000000E+00 0.  1.
</event>
<event>
 7    1  0.2294216E-010  0.4778727E+02  0.7816164E-02  0.1312668E+00
        -11   -1    0    0    0    0  0.00000000000E+00  0.00000000000E+00  0.45593999997E+02  0.45594000000E+02  0.51100000000E-03 0.  1.
         11   -1    0    0    0    0 -0.00000000000E+00 -0.00000000000E+00 -0.45593999997E+02  0.45594000000E+02  0.51100000000E-03 0. -1.
    9900012    2    1    2    0    0  0.33988566105E+01  0.43156066088E+02 -0.31024053612E+01  0.47787272063E+02  0.20000004645E+02 0.  0.
        -12    1    1    2    0    0 -0.33988566105E+01 -0.43156066088E+02  0.31024053612E+01  0.43400727937E+02  0.00000000000E+00 0.  1.
         11    1    3    3    0    0  0.38459979224E+01  0.89345683357E+01  0.34460525675E+01  0.10319568301E+02  0.51100000000E-03 0. -1.
        -11    1    3    3    0    0 -0.52208298853E+01  0.49510025223E+01 -0.60220649416E+00  0.72202592467E+01  0.51100000000E-03 0.  1.
         12    1    3    3    0    0  0.47736885734E+01  0.29270495230E+02 -0.59462514345E+01  0.30247444515E+02  0.00000000000E+00 0. -1.
</event>
<event>
 7    1  0.2294216E-010  0.4778727E+02  0.7816164E-02  0.1312668E+00
        -11   -1    0    0    0    0  0.00000000000E+00  0.00000000000E+00  0.45593999997E+02  0.45594000000E+02  0.51100000000E-03 0. -1.
         11   -1    0    0    0    0 -0.00000000000E+00 -0.00000000000E+00 -0.45593999997E+02  0.45594000000E+02  0.51100000000E-03 0.  1.
    9900012    2    1    2    0    0 -0.12158948223E+02 -0.56930016898E+01  0.41271943422E+02  0.47787267242E+02  0.19999982661E+02 0.  0.
        -12    1    1    2    0    0  0.12158948223E+02  0.56930016898E+01 -0.41271943422E+02  0.43400732758E+02  0.00000000000E+00 0.  1.
         11    1    3    3    0    0  0.70873565511E+00  0.16016077230E+01 -0.86989233989E-01  0.17535737553E+01  0.51100000000E-03 0. -1.
        -11    1    3    3    0    0 -0.48416571924E+00  0.33864257700E+01  0.11397321376E+02  0.11899631539E+02  0.51100000000E-03 0.  1.
         12    1    3    3    0    0 -0.12383518159E+02 -0.10681035183E+02  0.29961611280E+02  0.34134061948E+02  0.00000000000E+00 0. -1.
</event>
<event>
 7    1  0.2294216E-010  0.4778726E+02  0.7816164E-02  0.1312668E+00
        -11   -1    0    0    0    0  0.00000000000E+00  0.00000000000E+00  0.45593999997E+02  0.45594000000E+02  0.51100000000E-03 0.  1.
         11   -1    0    0    0    0 -0.00000000000E+00 -0.00000000000E+00 -0.45593999997E+02  0.45594000000E+02  0.51100000000E-03 0. -1.
    9900012    2    1    2    0    0 -0.38864164211E+01  0.14266984154E+02 -0.40804084220E+02  0.47787258549E+02  0.19999943028E+02 0.  0.
        -12    1    1    2    0    0  0.38864164211E+01 -0.14266984154E+02  0.40804084220E+02  0.43400741451E+02  0.00000000000E+00 0.  1.
         11    1    3    3    0    0 -0.87379991973E+00  0.14369795589E+02 -0.25347338976E+02  0.29150336962E+02  0.51100000000E-03 0. -1.
        -11    1    3    3    0    0  0.34258359289E+01  0.54159477648E+00 -0.29408756922E+01  0.45473538253E+01  0.51100000000E-03 0.  1.
         12    1    3    3    0    0 -0.64384524303E+01 -0.64440621206E+00 -0.12515869553E+02  0.14089567762E+02  0.00000000000E+00 0. -1.
</event>
<event>
 7    1  0.2294216E-010  0.4778727E+02  0.7816164E-02  0.1312668E+00
        -11   -1    0    0    0    0  0.00000000000E+00  0.00000000000E+00  0.45593999997E+02  0.45594000000E+02  0.51100000000E-03 0.  1.
         11   -1    0    0    0    0 -0.00000000000E+00 -0.00000000000E+00 -0.45593999997E+02  0.45594000000E+02  0.51100000000E-03 0. -1.
    9900012    2    1    2    0    0 -0.35248150168E+02 -0.19052025451E+02 -0.16679675956E+02  0.47787270121E+02  0.19999995789E+02 0.  0.
        -12    1    1    2    0    0  0.35248150168E+02  0.19052025451E+02  0.16679675956E+02  0.43400729879E+02  0.00000000000E+00 0.  1.
         11    1    3    3    0    0 -0.68108392966E+01 -0.59355084318E+01 -0.26441145006E+01  0.94132424819E+01  0.51100000000E-03 0. -1.
        -11    1    3    3    0    0 -0.29685676011E+02 -0.12914713596E+02 -0.96073294432E+01  0.33768772065E+02  0.51100000000E-03 0.  1.
        -12    1    3    3    0    0  0.12483651399E+01 -0.20180342292E+00 -0.44282320123E+01  0.46052555737E+01  0.00000000000E+00 0.  1.
</event>
<event>
 7    1  0.2294216E-010  0.4778727E+02  0.7816164E-02  0.1312668E+00
        -11   -1    0    0    0    0  0.00000000000E+00  0.00000000000E+00  0.45593999997E+02  0.45594000000E+02  0.51100000000E-03 0. -1.
         11   -1    0    0    0    0 -0.00000000000E+00 -0.00000000000E+00 -0.45593999997E+02  0.45594000000E+02  0.51100000000E-03 0.  1.
    9900012    2    1    2    0    0 -0.22963858488E+02 -0.44357423458E-01  0.36827737270E+02  0.47787274238E+02  0.20000014561E+02 0.  0.
        -12    1    1    2    0    0  0.22963858488E+02  0.44357423458E-01 -0.36827737270E+02  0.43400725762E+02  0.00000000000E+00 0.  1.
         11    1    3    3    0    0 -0.27160417617E+01  0.31591943533E+00  0.14624653070E+01  0.31008858373E+01  0.51100000000E-03 0. -1.
        -11    1    3    3    0    0 -0.11888725504E+01  0.23830214595E+01  0.19656674223E+02  0.19836255972E+02  0.51100000000E-03 0.  1.
        -12    1    3    3    0    0 -0.19058944176E+02 -0.27432983183E+01  0.15708597740E+02  0.24850132428E+02  0.00000000000E+00 0.  1.
</event>
<event>
 7    1  0.2294216E-010  0.4778727E+02  0.7816164E-02  0.1312668E+00
        -11   -1    0    0    0    0  0.00000000000E+00  0.00000000000E+00  0.45593999997E+02  0.45594000000E+02  0.51100000000E-03 0.  1.
         11   -1    0    0    0    0 -0.00000000000E+00 -0.00000000000E+00 -0.45593999997E+02  0.45594000000E+02  0.51100000000E-03 0. -1.
    9900012    2    1    2    0    0 -0.49653779638E+01  0.98946657044E+01 -0.41965031700E+02  0.47787271051E+02  0.20000000030E+02 0.  0.
        -12    1    1    2    0    0  0.49653779638E+01 -0.98946657044E+01  0.41965031700E+02  0.43400728949E+02  0.00000000000E+00 0.  1.
         11    1    3    3    0    0 -0.16890980782E+01 -0.98603825938E+00 -0.86548577160E+01  0.88730990140E+01  0.51100000000E-03 0. -1.
        -11    1    3    3    0    0 -0.50489686329E+01 -0.30224473016E+01 -0.12609881329E+02  0.13915328934E+02  0.51100000000E-03 0.  1.
         12    1    3    3    0    0  0.17726887473E+01  0.13903151265E+02 -0.20700292655E+02  0.24998843104E+02  0.00000000000E+00 0. -1.
</event>
<event>
 7    1  0.2294216E-010  0.4778727E+02  0.7816164E-02  0.1312668E+00
        -11   -1    0    0    0    0  0.00000000000E+00  0.00000000000E+00  0.45593999997E+02  0.45594000000E+02  0.51100000000E-03 0. -1.
         11   -1    0    0    0    0 -0.00000000000E+00 -0.00000000000E+00 -0.45593999997E+02  0.45594000000E+02  0.51100000000E-03 0.  1.
    9900012    2    1    2    0    0 -0.30906567790E+02 -0.13679471193E+00  0.30469470104E+02  0.47787271275E+02  0.20000001053E+02 0.  0.
        -12    1    1    2    0    0  0.30906567790E+02  0.13679471193E+00 -0.30469470104E+02  0.43400728725E+02  0.00000000000E+00 0.  1.
         11    1    3    3    0    0  0.53941941318E+00 -0.46503181219E+00 -0.13693795105E+01  0.15435117085E+01  0.51100000000E-03 0. -1.
        -11    1    3    3    0    0 -0.75781702844E+00 -0.14759380883E+01 -0.39049699585E+00  0.17044553540E+01  0.51100000000E-03 0.  1.
         12    1    3    3    0    0 -0.30688170175E+02  0.18041751885E+01  0.32229346611E+02  0.44539304213E+02  0.00000000000E+00 0. -1.
</event>
<event>
 7    1  0.2294216E-010  0.4778727E+02  0.7816164E-02  0.1312668E+00
        -11   -1    0    0    0    0  0.00000000000E+00  0.00000000000E+00  0.45593999997E+02  0.45594000000E+02  0.51100000000E-03 0. -1.
         11   -1    0    0    0    0 -0.00000000000E+00 -0.00000000000E+00 -0.45593999997E+02  0.45594000000E+02  0.51100000000E-03 0.  1.
    9900012    2    1    2    0    0  0.90394309416E+01 -0.33393296747E+02  0.26206861099E+02  0.47787272494E+02  0.20000006610E+02 0.  0.
        -12    1    1    2    0    0 -0.90394309416E+01  0.33393296747E+02 -0.26206861099E+02  0.43400727506E+02  0.00000000000E+00 0.  1.
         11    1    3    3    0    0 -0.29837620311E+01 -0.15102890799E+02  0.13483921892E+02  0.20465001739E+02  0.51100000000E-03 0. -1.
        -11    1    3    3    0    0 -0.16546655491E+01 -0.38429366799E+01  0.13010954528E+01  0.43816583668E+01  0.51100000000E-03 0.  1.
        -12    1    3    3    0    0  0.13677858522E+02 -0.14447469269E+02  0.11421843754E+02  0.22940612388E+02  0.00000000000E+00 0.  1.
</event>
<event>
 7    1  0.2294216E-010  0.4778727E+02  0.7816164E-02  0.1312668E+00
        -11   -1    0    0    0    0  0.00000000000E+00  0.00000000000E+00  0.45593999997E+02  0.45594000000E+02  0.51100000000E-03 0.  1.
         11   -1    0    0    0    0 -0.00000000000E+00 -0.00000000000E+00 -0.45593999997E+02  0.45594000000E+02  0.51100000000E-03 0. -1.
    9900012    2    1    2    0    0 -0.10985295580E+01 -0.12255639379E+02 -0.41619894524E+02  0.47787273232E+02  0.20000009975E+02 0.  0.
        -12    1    1    2    0    0  0.10985295580E+01  0.12255639379E+02  0.41619894524E+02  0.43400726768E+02  0.00000000000E+00 0.  1.
         11    1    3    3    0    0  0.83077044201E+00  0.11215581740E+01 -0.29831754205E+01  0.32935403619E+01  0.51100000000E-03 0. -1.
        -11    1    3    3    0    0 -0.65520056937E+00 -0.16430581377E+02 -0.21643944576E+02  0.27181862137E+02  0.51100000000E-03 0.  1.
        -12    1    3    3    0    0 -0.12740994307E+01  0.30533838239E+01 -0.16992774527E+02  0.17311870733E+02  0.00000000000E+00 0.  1.
</event>
<event>
 7    1  0.2294216E-010  0.4778727E+02  0.7816164E-02  0.1312668E+00
        -11   -1    0    0    0    0  0.00000000000E+00  0.00000000000E+00  0.45593999997E+02  0.45594000000E+02  0.51100000000E-03 0.  1.
         11   -1    0    0    0    0 -0.00000000000E+00 -0.00000000000E+00 -0.45593999997E+02  0.45594000000E+02  0.51100000000E-03 0. -1.
    9900012    2    1    2    0    0  0.33655733041E+02  0.15866914146E+02 -0.22341802739E+02  0.47787268662E+02  0.19999989138E+02 0.  0.
        -12    1    1    2    0    0 -0.33655733041E+02 -0.15866914146E+02  0.22341802739E+02  0.43400731338E+02  0.00000000000E+00 0.  1.
         11    1    3    3    0    0  0.16955419009E+02  0.34436906078E+01 -0.70922519649E+01  0.18698804159E+02  0.51100000000E-03 0.  1.
        -11    1    3    3    0    0  0.18418853647E+02  0.13345010294E+02 -0.13390077872E+02  0.26393894277E+02  0.51100000000E-03 0. -1.
        -12    1    3    3    0    0 -0.17185396150E+01 -0.92178675617E+00 -0.18594729020E+01  0.26945702265E+01  0.00000000000E+00 0.  1.
</event>
<event>
 7    1  0.2294216E-010  0.4778727E+02  0.7816164E-02  0.1312668E+00
        -11   -1    0    0    0    0  0.00000000000E+00  0.00000000000E+00  0.45593999997E+02  0.45594000000E+02  0.51100000000E-03 0.  1.
         11   -1    0    0    0    0 -0.00000000000E+00 -0.00000000000E+00 -0.45593999997E+02  0.45594000000E+02  0.51100000000E-03 0. -1.
    9900012    2    1    2    0    0 -0.32621499739E+02 -0.17764183357E+02 -0.22447605754E+02  0.47787268904E+02  0.19999990241E+02 0.  0.
        -12    1    1    2    0    0  0.32621499739E+02  0.17764183357E+02  0.22447605754E+02  0.43400731096E+02  0.00000000000E+00 0.  1.
         11    1    3    3    0    0 -0.89583270077E+01 -0.69210374016E+01 -0.71017980949E+01  0.13363679057E+02  0.51100000000E-03 0. -1.
        -11    1    3    3    0    0 -0.16620192872E+02 -0.18407158129E+01 -0.19827135361E+01  0.16838948870E+02  0.51100000000E-03 0.  1.
        -12    1    3    3    0    0 -0.70429798592E+01 -0.90024301426E+01 -0.13363094122E+02  0.17584640977E+02  0.00000000000E+00 0.  1.
</event>
<event>
 7    1  0.2294216E-010  0.4778727E+02  0.7816164E-02  0.1312668E+00
        -11   -1    0    0    0    0  0.00000000000E+00  0.00000000000E+00  0.45593999997E+02  0.45594000000E+02  0.51100000000E-03 0.  1.
         11   -1    0    0    0    0 -0.00000000000E+00 -0.00000000000E+00 -0.45593999997E+02  0.45594000000E+02  0.51100000000E-03 0. -1.
    9900012    2    1    2    0    0  0.13489276304E+02 -0.69588769068E+01 -0.40660015072E+02  0.47787269953E+02  0.19999995022E+02 0.  0.
        -12    1    1    2    0    0 -0.13489276304E+02  0.69588769068E+01  0.40660015072E+02  0.43400730047E+02  0.00000000000E+00 0.  1.
         11    1    3    3    0    0  0.46129058706E+01 -0.48994703772E+01 -0.10528949589E+02  0.12495698870E+02  0.51100000000E-03 0. -1.
        -11    1    3    3    0    0  0.12645727951E+02 -0.27090793092E+01 -0.28162024181E+02  0.30989565217E+02  0.51100000000E-03 0.  1.
        -12    1    3    3    0    0 -0.37693575176E+01  0.64967277969E+00 -0.19690413020E+01  0.43020058653E+01  0.00000000000E+00 0.  1.
</event>
<event>
 7    1  0.2294216E-010  0.4778727E+02  0.7816164E-02  0.1312668E+00
        -11   -1    0    0    0    0  0.00000000000E+00  0.00000000000E+00  0.45593999997E+02  0.45594000000E+02  0.51100000000E-03 0. -1.
         11   -1    0    0    0    0 -0.00000000000E+00 -0.00000000000E+00 -0.45593999997E+02  0.45594000000E+02  0.51100000000E-03 0.  1.
    9900012    2    1    2    0    0 -0.20612969416E+02 -0.26858021267E+02  0.27154663673E+02  0.47787267591E+02  0.19999984252E+02 0.  0.
        -12    1    1    2    0    0  0.20612969416E+02  0.26858021267E+02 -0.27154663673E+02  0.43400732409E+02  0.00000000000E+00 0.  1.
         11    1    3    3    0    0 -0.93972285539E+01 -0.10848758815E+02  0.72941698290E+01  0.16099949878E+02  0.51100000000E-03 0. -1.
        -11    1    3    3    0    0 -0.49279307023E+01 -0.37902058225E+01 -0.13997001202E+01  0.63725443797E+01  0.51100000000E-03 0.  1.
        -12    1    3    3    0    0 -0.62878101598E+01 -0.12219056629E+02  0.21260193964E+02  0.25314773333E+02  0.00000000000E+00 0.  1.
</event>
<event>
 7    1  0.2294216E-010  0.4778728E+02  0.7816164E-02  0.1312668E+00
        -11   -1    0    0    0    0  0.00000000000E+00  0.00000000000E+00  0.45593999997E+02  0.45594000000E+02  0.51100000000E-03 0. -1.
         11   -1    0    0    0    0 -0.00000000000E+00 -0.00000000000E+00 -0.45593999997E+02  0.45594000000E+02  0.51100000000E-03 0.  1.
    9900012    2    1    2    0    0 -0.10432872167E+02  0.41913228736E+02  0.42496195950E+01  0.47787276141E+02  0.20000023240E+02 0.  0.
        -12    1    1    2    0    0  0.10432872167E+02 -0.41913228736E+02 -0.42496195950E+01  0.43400723859E+02  0.00000000000E+00 0.  1.
         11    1    3    3    0    0 -0.87742237577E+01  0.12077457233E+02 -0.35990105003E+01  0.15355938675E+02  0.51100000000E-03 0. -1.
        -11    1    3    3    0    0 -0.42765822216E+01  0.53921042673E+01  0.18558107743E+01  0.71279715079E+01  0.51100000000E-03 0.  1.
        -12    1    3    3    0    0  0.26179338125E+01  0.24443667236E+02  0.59928193210E+01  0.25303365958E+02  0.00000000000E+00 0.  1.
</event>
<event>
 7    1  0.2294216E-010  0.4778727E+02  0.7816164E-02  0.1312668E+00
        -11   -1    0    0    0    0  0.00000000000E+00  0.00000000000E+00  0.45593999997E+02  0.45594000000E+02  0.51100000000E-03 0.  1.
         11   -1    0    0    0    0 -0.00000000000E+00 -0.00000000000E+00 -0.45593999997E+02  0.45594000000E+02  0.51100000000E-03 0. -1.
    9900012    2    1    2    0    0  0.15200198923E+01 -0.41628027699E+02 -0.12182780241E+02  0.47787270916E+02  0.19999999416E+02 0.  0.
        -12    1    1    2    0    0 -0.15200198923E+01  0.41628027699E+02  0.12182780241E+02  0.43400729084E+02  0.00000000000E+00 0.  1.
         11    1    3    3    0    0  0.45789130848E+01 -0.15940762441E+02 -0.82788716455E+01  0.18536830048E+02  0.51100000000E-03 0. -1.
        -11    1    3    3    0    0  0.37906691956E+01 -0.30382819849E+01  0.12871852305E+01  0.50256518432E+01  0.51100000000E-03 0.  1.
         12    1    3    3    0    0 -0.68495623881E+01 -0.22648983273E+02 -0.51910938263E+01  0.24224789025E+02  0.00000000000E+00 0. -1.
</event>
<event>
 7    1  0.2294216E-010  0.4778727E+02  0.7816164E-02  0.1312668E+00
        -11   -1    0    0    0    0  0.00000000000E+00  0.00000000000E+00  0.45593999997E+02  0.45594000000E+02  0.51100000000E-03 0.  1.
         11   -1    0    0    0    0 -0.00000000000E+00 -0.00000000000E+00 -0.45593999997E+02  0.45594000000E+02  0.51100000000E-03 0. -1.
    9900012    2    1    2    0    0 -0.30522632411E+02  0.18080418672E+02 -0.25001814211E+02  0.47787270253E+02  0.19999996394E+02 0.  0.
        -12    1    1    2    0    0  0.30522632411E+02 -0.18080418672E+02  0.25001814211E+02  0.43400729747E+02  0.00000000000E+00 0.  1.
         11    1    3    3    0    0 -0.38856414262E+01  0.28325415804E+01  0.24165885506E+01  0.53815798406E+01  0.51100000000E-03 0. -1.
        -11    1    3    3    0    0 -0.35592343463E+01  0.56939214932E+01 -0.26172798535E+01  0.72068748564E+01  0.51100000000E-03 0.  1.
         12    1    3    3    0    0 -0.23077756639E+02  0.95539555987E+01 -0.24801122908E+02  0.35198815556E+02  0.00000000000E+00 0. -1.
</event>
<event>
 7    1  0.2294216E-010  0.4778727E+02  0.7816164E-02  0.1312668E+00
        -11   -1    0    0    0    0  0.00000000000E+00  0.00000000000E+00  0.45593999997E+02  0.45594000000E+02  0.51100000000E-03 0. -1.
         11   -1    0    0    0    0 -0.00000000000E+00 -0.00000000000E+00 -0.45593999997E+02  0.45594000000E+02  0.51100000000E-03 0.  1.
    9900012    2    1    2    0    0  0.29239729842E+02 -0.27088501682E+02  0.17171911446E+02  0.47787271120E+02  0.20000000344E+02 0.  0.
        -12    1    1    2    0    0 -0.29239729842E+02  0.27088501682E+02 -0.17171911446E+02  0.43400728880E+02  0.00000000000E+00 0.  1.
         11    1    3    3    0    0  0.10746442995E+01 -0.26171879921E+01  0.29416023096E+01  0.40813671442E+01  0.51100000000E-03 0. -1.
        -11    1    3    3    0    0  0.12649991062E+02 -0.44076393078E+00  0.32629567037E+01  0.13071474034E+02  0.51100000000E-03 0.  1.
        -12    1    3    3    0    0  0.15515094480E+02 -0.24030549759E+02  0.10967352433E+02  0.30634429941E+02  0.00000000000E+00 0.  1.
</event>
<event>
 7    1  0.2294216E-010  0.4778727E+02  0.7816164E-02  0.1312668E+00
        -11   -1    0    0    0    0  0.00000000000E+00  0.00000000000E+00  0.45593999997E+02  0.45594000000E+02  0.51100000000E-03 0. -1.
         11   -1    0    0    0    0 -0.00000000000E+00 -0.00000000000E+00 -0.45593999997E+02  0.45594000000E+02  0.51100000000E-03 0.  1.
    9900012    2    1    2    0    0 -0.30097022879E+02 -0.30270845084E+02  0.78401815417E+01  0.47787270802E+02  0.19999998895E+02 0.  0.
        -12    1    1    2    0    0  0.30097022879E+02  0.30270845084E+02 -0.78401815417E+01  0.43400729198E+02  0.00000000000E+00 0.  1.
         11    1    3    3    0    0 -0.90881322772E+01 -0.12324017404E+02 -0.16922261282E+01  0.15405816525E+02  0.51100000000E-03 0. -1.
        -11    1    3    3    0    0 -0.18010899399E+02 -0.17358620333E+02  0.30300580259E+01  0.25197131760E+02  0.51100000000E-03 0.  1.
         12    1    3    3    0    0 -0.29979912028E+01 -0.58820734664E+00  0.65023496440E+01  0.71843225169E+01  0.00000000000E+00 0. -1.
</event>
<event>
 7    1  0.2294216E-010  0.4778726E+02  0.7816164E-02  0.1312668E+00
        -11   -1    0    0    0    0  0.00000000000E+00  0.00000000000E+00  0.45593999997E+02  0.45594000000E+02  0.51100000000E-03 0.  1.
         11   -1    0    0    0    0 -0.00000000000E+00 -0.00000000000E+00 -0.45593999997E+02  0.45594000000E+02  0.51100000000E-03 0. -1.
    9900012    2    1    2    0    0 -0.51044913225E+01  0.28232554318E+02 -0.32565182360E+02  0.47787262021E+02  0.19999958859E+02 0.  0.
        -12    1    1    2    0    0  0.51044913225E+01 -0.28232554318E+02  0.32565182360E+02  0.43400737979E+02  0.00000000000E+00 0.  1.
         11    1    3    3    0    0 -0.22747724539E+01  0.19469236904E+01 -0.59284534093E+01  0.66416610618E+01  0.51100000000E-03 0. -1.
        -11    1    3    3    0    0 -0.65682841012E+00  0.10652461210E+02 -0.58885554463E+00  0.10688924385E+02  0.51100000000E-03 0.  1.
         12    1    3    3    0    0 -0.21728904584E+01  0.15633169418E+02 -0.26047873406E+02  0.30456676574E+02  0.00000000000E+00 0. -1.
</event>
<event>
 7    1  0.2294216E-010  0.4778727E+02  0.7816164E-02  0.1312668E+00
        -11   -1    0    0    0    0  0.00000000000E+00  0.00000000000E+00  0.45593999997E+02  0.45594000000E+02  0.51100000000E-03 0. -1.
         11   -1    0    0    0    0 -0.00000000000E+00 -0.00000000000E+00 -0.45593999997E+02  0.45594000000E+02  0.51100000000E-03 0.  1.
    9900012    2    1    2    0    0 -0.40555175461E+02  0.60496136738E+01  0.14223330746E+02  0.47787271667E+02  0.20000002839E+02 0.  0.
        -12    1    1    2    0    0  0.40555175461E+02 -0.60496136738E+01 -0.14223330746E+02  0.43400728333E+02  0.00000000000E+00 0.  1.
         11    1    3    3    0    0 -0.24569354855E+02  0.82292528105E+00  0.26367777938E+01  0.24724138032E+02  0.51100000000E-03 0. -1.
        -11    1    3    3    0    0 -0.46390529914E+00 -0.11420026790E+01 -0.13862629833E+01  0.18550211765E+01  0.51100000000E-03 0.  1.
         12    1    3    3    0    0 -0.15521915307E+02  0.63686910718E+01  0.12972815936E+02  0.21208112459E+02  0.00000000000E+00 0. -1.
</event>
<event>
 7    1  0.2294216E-010  0.4778727E+02  0.7816164E-02  0.1312668E+00
        -11   -1    0    0    0    0  0.00000000000E+00  0.00000000000E+00  0.45593999997E+02  0.45594000000E+02  0.51100000000E-03 0.  1.
         11   -1    0    0    0    0 -0.00000000000E+00 -0.00000000000E+00 -0.45593999997E+02  0.45594000000E+02  0.51100000000E-03 0. -1.
    9900012    2    1    2    0    0 -0.74412270956E+01  0.19499685219E+02 -0.38052779928E+02  0.47787266774E+02  0.19999980529E+02 0.  0.
        -12    1    1    2    0    0  0.74412270956E+01 -0.19499685219E+02  0.38052779928E+02  0.43400733226E+02  0.00000000000E+00 0.  1.
         11    1    3    3    0    0  0.17189400520E+01 -0.22631434997E+00 -0.57290514675E+00  0.18259774521E+01  0.51100000000E-03 0. -1.
        -11    1    3    3    0    0  0.51770992864E+00  0.17114621892E+01  0.12379814860E+01  0.21747930514E+01  0.51100000000E-03 0.  1.
         12    1    3    3    0    0 -0.96778770763E+01  0.18014537379E+02 -0.38717856267E+02  0.43786496270E+02  0.00000000000E+00 0. -1.
</event>
<event>
 7    1  0.2294216E-010  0.4778727E+02  0.7816164E-02  0.1312668E+00
        -11   -1    0    0    0    0  0.00000000000E+00  0.00000000000E+00  0.45593999997E+02  0.45594000000E+02  0.51100000000E-03 0.  1.
         11   -1    0    0    0    0 -0.00000000000E+00 -0.00000000000E+00 -0.45593999997E+02  0.45594000000E+02  0.51100000000E-03 0. -1.
    9900012    2    1    2    0    0 -0.26553915859E+02  0.22558800888E+02 -0.25876893472E+02  0.47787267740E+02  0.19999984932E+02 0.  0.
        -12    1    1    2    0    0  0.26553915859E+02 -0.22558800888E+02  0.25876893472E+02  0.43400732260E+02  0.00000000000E+00 0.  1.
         11    1    3    3    0    0 -0.21247899729E+02  0.17678052142E+02 -0.20146457741E+02  0.34203311684E+02  0.51100000000E-03 0. -1.
        -11    1    3    3    0    0 -0.68971837948E+01  0.66228844475E+01 -0.31037997967E+01  0.10053224167E+02  0.51100000000E-03 0.  1.
        -12    1    3    3    0    0  0.15911676640E+01 -0.17421357016E+01 -0.26266359345E+01  0.35307318887E+01  0.00000000000E+00 0.  1.
</event>
<event>
 7    1  0.2294216E-010  0.4778727E+02  0.7816164E-02  0.1312668E+00
        -11   -1    0    0    0    0  0.00000000000E+00  0.00000000000E+00  0.45593999997E+02  0.45594000000E+02  0.51100000000E-03 0.  1.
         11   -1    0    0    0    0 -0.00000000000E+00 -0.00000000000E+00 -0.45593999997E+02  0.45594000000E+02  0.51100000000E-03 0. -1.
    9900012    2    1    2    0    0  0.11173483973E+02 -0.22961802265E+02 -0.35093188672E+02  0.47787274217E+02  0.20000014465E+02 0.  0.
        -12    1    1    2    0    0 -0.11173483973E+02  0.22961802265E+02  0.35093188672E+02  0.43400725783E+02  0.00000000000E+00 0.  1.
         11    1    3    3    0    0  0.70297133256E+01 -0.15811571470E+02 -0.30706880009E+02  0.35246774915E+02  0.51100000000E-03 0. -1.
        -11    1    3    3    0    0 -0.19136697166E+01 -0.26779353161E+01 -0.37417951892E+01  0.49834226030E+01  0.51100000000E-03 0.  1.
        -12    1    3    3    0    0  0.60574403644E+01 -0.44722954785E+01 -0.64451347374E+00  0.75570766989E+01  0.00000000000E+00 0.  1.
</event>
<event>
 7    1  0.2294216E-010  0.4778727E+02  0.7816164E-02  0.1312668E+00
        -11   -1    0    0    0    0  0.00000000000E+00  0.00000000000E+00  0.45593999997E+02  0.45594000000E+02  0.51100000000E-03 0.  1.
         11   -1    0    0    0    0 -0.00000000000E+00 -0.00000000000E+00 -0.45593999997E+02  0.45594000000E+02  0.51100000000E-03 0. -1.
    9900012    2    1    2    0    0  0.26662697696E+02 -0.18516500745E+02 -0.28807346852E+02  0.47787268660E+02  0.19999989127E+02 0.  0.
        -12    1    1    2    0    0 -0.26662697696E+02  0.18516500745E+02  0.28807346852E+02  0.43400731340E+02  0.00000000000E+00 0.  1.
         11    1    3    3    0    0  0.13885796371E+01 -0.46951249883E+01 -0.11317084935E+01  0.50252478984E+01  0.51100000000E-03 0.  1.
        -11    1    3    3    0    0  0.32615443775E+01 -0.21266192661E+01  0.16892551356E+01  0.42442625277E+01  0.51100000000E-03 0. -1.
         12    1    3    3    0    0  0.22012573681E+02 -0.11694756490E+02 -0.29364893494E+02  0.38517758234E+02  0.00000000000E+00 0. -1.
</event>
<event>
 7    1  0.2294216E-010  0.4778727E+02  0.7816164E-02  0.1312668E+00
        -11   -1    0    0    0    0  0.00000000000E+00  0.00000000000E+00  0.45593999997E+02  0.45594000000E+02  0.51100000000E-03 0.  1.
         11   -1    0    0    0    0 -0.00000000000E+00 -0.00000000000E+00 -0.45593999997E+02  0.45594000000E+02  0.51100000000E-03 0. -1.
    9900012    2    1    2    0    0  0.22444302613E+02  0.36862849839E+02  0.45833435897E+01  0.47787268941E+02  0.19999990409E+02 0.  0.
        -12    1    1    2    0    0 -0.22444302613E+02 -0.36862849839E+02 -0.45833435897E+01  0.43400731059E+02  0.00000000000E+00 0.  1.
         11    1    3    3    0    0  0.86692660455E+01  0.18592753722E+02 -0.10356228389E+01  0.20540671353E+02  0.51100000000E-03 0. -1.
        -11    1    3    3    0    0  0.47486272407E-01  0.20518335880E+01 -0.35532590957E+01  0.41034042551E+01  0.51100000000E-03 0.  1.
        -12    1    3    3    0    0  0.13727550295E+02  0.16218262529E+02  0.91722255242E+01  0.23143193333E+02  0.00000000000E+00 0.  1.
</event>
<event>
 7    1  0.2294216E-010  0.4778727E+02  0.7816164E-02  0.1312668E+00
        -11   -1    0    0    0    0  0.00000000000E+00  0.00000000000E+00  0.45593999997E+02  0.45594000000E+02  0.51100000000E-03 0. -1.
         11   -1    0    0    0    0 -0.00000000000E+00 -0.00000000000E+00 -0.45593999997E+02  0.45594000000E+02  0.51100000000E-03 0.  1.
    9900012    2    1    2    0    0 -0.16099943571E+02 -0.36094605786E+02  0.17933057530E+02  0.47787270719E+02  0.19999998514E+02 0.  0.
        -12    1    1    2    0    0  0.16099943571E+02  0.36094605786E+02 -0.17933057530E+02  0.43400729281E+02  0.00000000000E+00 0.  1.
         11    1    3    3    0    0 -0.10877987753E+02 -0.21520943041E+02  0.85849504035E+01  0.25596542357E+02  0.51100000000E-03 0. -1.
        -11    1    3    3    0    0 -0.54776293507E+00 -0.90932128784E+01 -0.14361089585E+01  0.92222000567E+01  0.51100000000E-03 0.  1.
        -12    1    3    3    0    0 -0.46741928826E+01 -0.54804498662E+01  0.10784216085E+02  0.12968528305E+02  0.00000000000E+00 0.  1.
</event>
<event>
 7    1  0.2294216E-010  0.4778727E+02  0.7816164E-02  0.1312668E+00
        -11   -1    0    0    0    0  0.00000000000E+00  0.00000000000E+00  0.45593999997E+02  0.45594000000E+02  0.51100000000E-03 0.  1.
         11   -1    0    0    0    0 -0.00000000000E+00 -0.00000000000E+00 -0.45593999997E+02  0.45594000000E+02  0.51100000000E-03 0. -1.
    9900012    2    1    2    0    0  0.30895915276E+02 -0.10243861280E+02 -0.28707651135E+02  0.47787268343E+02  0.19999987683E+02 0.  0.
        -12    1    1    2    0    0 -0.30895915276E+02  0.10243861280E+02  0.28707651135E+02  0.43400731657E+02  0.00000000000E+00 0.  1.
         11    1    3    3    0    0  0.25733929995E+01 -0.12390732960E+01  0.71735557193E+00  0.29448690022E+01  0.51100000000E-03 0.  1.
        -11    1    3    3    0    0  0.11384669076E+02  0.40016122203E+01 -0.73572467245E+01  0.14133388481E+02  0.51100000000E-03 0. -1.
         12    1    3    3    0    0  0.16937853200E+02 -0.13006400204E+02 -0.22067759982E+02  0.30709010859E+02  0.00000000000E+00 0. -1.
</event>
<event>
 7    1  0.2294216E-010  0.4778727E+02  0.7816164E-02  0.1312668E+00
        -11   -1    0    0    0    0  0.00000000000E+00  0.00000000000E+00  0.45593999997E+02  0.45594000000E+02  0.51100000000E-03 0. -1.
         11   -1    0    0    0    0 -0.00000000000E+00 -0.00000000000E+00 -0.45593999997E+02  0.45594000000E+02  0.51100000000E-03 0.  1.
    9900012    2    1    2    0    0  0.33605601456E+02 -0.27343389003E+02  0.25740712530E+01  0.47787271732E+02  0.20000003134E+02 0.  0.
        -12    1    1    2    0    0 -0.33605601456E+02  0.27343389003E+02 -0.25740712530E+01  0.43400728268E+02  0.00000000000E+00 0.  1.
         11    1    3    3    0    0  0.90152881511E+01 -0.30236296357E+01 -0.16429024453E+01  0.96497090799E+01  0.51100000000E-03 0. -1.
        -11    1    3    3    0    0 -0.20860494670E+01 -0.25352423760E+01 -0.67176493355E+00  0.33511676579E+01  0.51100000000E-03 0.  1.
         12    1    3    3    0    0  0.26676362772E+02 -0.21784516991E+02  0.48887386319E+01  0.34786394994E+02  0.00000000000E+00 0. -1.
</event>
<event>
 7    1  0.2294216E-010  0.4778727E+02  0.7816164E-02  0.1312668E+00
        -11   -1    0    0    0    0  0.00000000000E+00  0.00000000000E+00  0.45593999997E+02  0.45594000000E+02  0.51100000000E-03 0.  1.
         11   -1    0    0    0    0 -0.00000000000E+00 -0.00000000000E+00 -0.45593999997E+02  0.45594000000E+02  0.51100000000E-03 0. -1.
    9900012    2    1    2    0    0 -0.31491583470E+00  0.26597458598E+02 -0.34294305729E+02  0.47787269806E+02  0.19999994355E+02 0.  0.
        -12    1    1    2    0    0  0.31491583470E+00 -0.26597458598E+02  0.34294305729E+02  0.43400730194E+02  0.00000000000E+00 0.  1.
         11    1    3    3    0    0  0.45864912958E+01  0.26281162304E+02 -0.31544788009E+02  0.41313545542E+02  0.51100000000E-03 0. -1.
        -11    1    3    3    0    0 -0.16818223048E+01  0.29161327517E+00 -0.27703437589E+01  0.32539774693E+01  0.51100000000E-03 0.  1.
         12    1    3    3    0    0 -0.32195848257E+01  0.24683019787E-01  0.20826038766E-01  0.32197467952E+01  0.00000000000E+00 0. -1.
</event>
<event>
 7    1  0.2294216E-010  0.4778727E+02  0.7816164E-02  0.1312668E+00
        -11   -1    0    0    0    0  0.00000000000E+00  0.00000000000E+00  0.45593999997E+02  0.45594000000E+02  0.51100000000E-03 0. -1.
         11   -1    0    0    0    0 -0.00000000000E+00 -0.00000000000E+00 -0.45593999997E+02  0.45594000000E+02  0.51100000000E-03 0.  1.
    9900012    2    1    2    0    0 -0.13592337772E+02  0.17906258434E+02  0.37124617149E+02  0.47787274940E+02  0.20000017764E+02 0.  0.
        -12    1    1    2    0    0  0.13592337772E+02 -0.17906258434E+02 -0.37124617149E+02  0.43400725060E+02  0.00000000000E+00 0.  1.
         11    1    3    3    0    0 -0.74880901355E+01  0.93347037009E+01  0.29139598399E+02  0.31501180647E+02  0.51100000000E-03 0. -1.
        -11    1    3    3    0    0  0.13201278050E+01  0.24344247962E+01  0.57729599519E+01  0.64028297164E+01  0.51100000000E-03 0.  1.
        -12    1    3    3    0    0 -0.74243754419E+01  0.61371299370E+01  0.22120587981E+01  0.98832645767E+01  0.00000000000E+00 0.  1.
</event>
<event>
 7    1  0.2294216E-010  0.4778727E+02  0.7816164E-02  0.1312668E+00
        -11   -1    0    0    0    0  0.00000000000E+00  0.00000000000E+00  0.45593999997E+02  0.45594000000E+02  0.51100000000E-03 0.  1.
         11   -1    0    0    0    0 -0.00000000000E+00 -0.00000000000E+00 -0.45593999997E+02  0.45594000000E+02  0.51100000000E-03 0. -1.
    9900012    2    1    2    0    0 -0.99375140201E+01 -0.42238364872E+02 -0.88860403639E+00  0.47787271100E+02  0.20000000251E+02 0.  0.
        -12    1    1    2    0    0  0.99375140201E+01  0.42238364872E+02  0.88860403639E+00  0.43400728900E+02  0.00000000000E+00 0.  1.
         11    1    3    3    0    0 -0.52657828741E+01 -0.80846814503E+01 -0.16033170372E+01  0.97806528010E+01  0.51100000000E-03 0. -1.
        -11    1    3    3    0    0  0.21026842035E+01 -0.38460520921E+01 -0.47615932838E+01  0.64719524424E+01  0.51100000000E-03 0.  1.
         12    1    3    3    0    0 -0.67744153495E+01 -0.30307631330E+02  0.54763062846E+01  0.31534665856E+02  0.00000000000E+00 0. -1.
</event>
<event>
 7    1  0.2294216E-010  0.4778727E+02  0.7816164E-02  0.1312668E+00
        -11   -1    0    0    0    0  0.00000000000E+00  0.00000000000E+00  0.45593999997E+02  0.45594000000E+02  0.51100000000E-03 0.  1.
         11   -1    0    0    0    0 -0.00000000000E+00 -0.00000000000E+00 -0.45593999997E+02  0.45594000000E+02  0.51100000000E-03 0. -1.
    9900012    2    1    2    0    0  0.20486913931E+01  0.54250173919E+01 -0.43011572321E+02  0.47787270702E+02  0.19999998437E+02 0.  0.
        -12    1    1    2    0    0 -0.20486913931E+01 -0.54250173919E+01  0.43011572321E+02  0.43400729298E+02  0.00000000000E+00 0.  1.
         11    1    3    3    0    0  0.72326429515E+01  0.27604034444E+01 -0.10820308307E+02  0.13304511391E+02  0.51100000000E-03 0. -1.
        -11    1    3    3    0    0  0.38092731958E+00 -0.24924377455E+01 -0.16501386667E+01  0.30133551763E+01  0.51100000000E-03 0.  1.
         12    1    3    3    0    0 -0.55648788779E+01  0.51570516931E+01 -0.30541125347E+02  0.31469404134E+02  0.00000000000E+00 0. -1.
</event>
<event>
 7    1  0.2294216E-010  0.4778728E+02  0.7816164E-02  0.1312668E+00
        -11   -1    0    0    0    0  0.00000000000E+00  0.00000000000E+00  0.45593999997E+02  0.45594000000E+02  0.51100000000E-03 0.  1.
         11   -1    0    0    0    0 -0.00000000000E+00 -0.00000000000E+00 -0.45593999997E+02  0.45594000000E+02  0.51100000000E-03 0. -1.
    9900012    2    1    2    0    0  0.38143819691E+02 -0.20704322611E+02 -0.46861176492E-01  0.47787283977E+02  0.20000058963E+02 0.  0.
        -12    1    1    2    0    0 -0.38143819691E+02  0.20704322611E+02  0.46861176492E-01  0.43400716023E+02  0.00000000000E+00 0.  1.
         11    1    3    3    0    0  0.19369830304E+02 -0.84802853351E+01 -0.18432898439E+01  0.21225062617E+02  0.51100000000E-03 0. -1.
        -11    1    3    3    0    0  0.17401445248E+02 -0.14768295821E+02 -0.56341251871E+00  0.22830468504E+02  0.51100000000E-03 0.  1.
        -12    1    3    3    0    0  0.13725441383E+01  0.25442585449E+01  0.23598411861E+01  0.37317528560E+01  0.00000000000E+00 0.  1.
</event>
<event>
 7    1  0.2294216E-010  0.4778727E+02  0.7816164E-02  0.1312668E+00
        -11   -1    0    0    0    0  0.00000000000E+00  0.00000000000E+00  0.45593999997E+02  0.45594000000E+02  0.51100000000E-03 0. -1.
         11   -1    0    0    0    0 -0.00000000000E+00 -0.00000000000E+00 -0.45593999997E+02  0.45594000000E+02  0.51100000000E-03 0.  1.
    9900012    2    1    2    0    0 -0.15534136060E+02  0.40196196158E+02 -0.51555321369E+01  0.47787273274E+02  0.20000010167E+02 0.  0.
        -12    1    1    2    0    0  0.15534136060E+02 -0.40196196158E+02  0.51555321369E+01  0.43400726726E+02  0.00000000000E+00 0.  1.
         11    1    3    3    0    0 -0.11919636605E+02  0.34717844032E+02  0.24680818740E+01  0.36789915187E+02  0.51100000000E-03 0. -1.
        -11    1    3    3    0    0  0.67297448574E+00 -0.19358205605E+00 -0.22353585384E+00  0.73507632934E+00  0.51100000000E-03 0.  1.
         12    1    3    3    0    0 -0.42874739409E+01  0.56719341818E+01 -0.74000781571E+01  0.10262281758E+02  0.00000000000E+00 0. -1.
</event>
<event>
 7    1  0.2294216E-010  0.4778727E+02  0.7816164E-02  0.1312668E+00
        -11   -1    0    0    0    0  0.00000000000E+00  0.00000000000E+00  0.45593999997E+02  0.45594000000E+02  0.51100000000E-03 0.  1.
         11   -1    0    0    0    0 -0.00000000000E+00 -0.00000000000E+00 -0.45593999997E+02  0.45594000000E+02  0.51100000000E-03 0. -1.
    9900012    2    1    2    0    0  0.25409842668E+02 -0.18141059015E+02 -0.30147385147E+02  0.47787274686E+02  0.20000016604E+02 0.  0.
        -12    1    1    2    0    0 -0.25409842668E+02  0.18141059015E+02  0.30147385147E+02  0.43400725314E+02  0.00000000000E+00 0.  1.
         11    1    3    3    0    0 -0.19748233175E+01  0.52356799713E-03 -0.78128176432E+00  0.21237534851E+01  0.51100000000E-03 0. -1.
        -11    1    3    3    0    0  0.10817189023E+02 -0.80725003678E+00 -0.11102346682E+02  0.15521769650E+02  0.51100000000E-03 0.  1.
        -12    1    3    3    0    0  0.16567476962E+02 -0.17334332546E+02 -0.18263756701E+02  0.30141751551E+02  0.00000000000E+00 0.  1.
</event>
<event>
 7    1  0.2294216E-010  0.4778727E+02  0.7816164E-02  0.1312668E+00
        -11   -1    0    0    0    0  0.00000000000E+00  0.00000000000E+00  0.45593999997E+02  0.45594000000E+02  0.51100000000E-03 0. -1.
         11   -1    0    0    0    0 -0.00000000000E+00 -0.00000000000E+00 -0.45593999997E+02  0.45594000000E+02  0.51100000000E-03 0.  1.
    9900012    2    1    2    0    0 -0.25996503050E+02 -0.16537101164E+02  0.30566804431E+02  0.47787269375E+02  0.19999992386E+02 0.  0.
        -12    1    1    2    0    0  0.25996503050E+02  0.16537101164E+02 -0.30566804431E+02  0.43400730625E+02  0.00000000000E+00 0.  1.
         11    1    3    3    0    0 -0.17795304218E+02 -0.14652930374E+02  0.21594899834E+02  0.31586720625E+02  0.51100000000E-03 0. -1.
        -11    1    3    3    0    0  0.47243189002E+00 -0.43013938328E+01  0.41080902226E+01  0.59667064896E+01  0.51100000000E-03 0.  1.
        -12    1    3    3    0    0 -0.86736307213E+01  0.24172230427E+01  0.48638143745E+01  0.10233842260E+02  0.00000000000E+00 0.  1.
</event>
<event>
 7    1  0.2294216E-010  0.4778728E+02  0.7816164E-02  0.1312668E+00
        -11   -1    0    0    0    0  0.00000000000E+00  0.00000000000E+00  0.45593999997E+02  0.45594000000E+02  0.51100000000E-03 0. -1.
         11   -1    0    0    0    0 -0.00000000000E+00 -0.00000000000E+00 -0.45593999997E+02  0.45594000000E+02  0.51100000000E-03 0.  1.
    9900012    2    1    2    0    0  0.15307283265E+02 -0.18987502179E+02  0.35899647038E+02  0.47787276303E+02  0.20000023975E+02 0.  0.
        -12    1    1    2    0    0 -0.15307283265E+02  0.18987502179E+02 -0.35899647038E+02  0.43400723697E+02  0.00000000000E+00 0.  1.
         11    1    3    3    0    0  0.95394707933E+01 -0.16839665252E+02  0.35568923267E+02  0.40493507275E+02  0.51100000000E-03 0. -1.
        -11    1    3    3    0    0  0.79457621635E+00  0.10136188744E+01 -0.41636814645E+00  0.13535646570E+01  0.51100000000E-03 0.  1.
         12    1    3    3    0    0  0.49732362555E+01 -0.31614558014E+01  0.74709191836E+00  0.59402043712E+01  0.00000000000E+00 0. -1.
</event>
<event>
 7    1  0.2294216E-010  0.4778727E+02  0.7816164E-02  0.1312668E+00
        -11   -1    0    0    0    0  0.00000000000E+00  0.00000000000E+00  0.45593999997E+02  0.45594000000E+02  0.51100000000E-03 0.  1.
         11   -1    0    0    0    0 -0.00000000000E+00 -0.00000000000E+00 -0.45593999997E+02  0.45594000000E+02  0.51100000000E-03 0. -1.
    9900012    2    1    2    0    0  0.21716793616E+02 -0.60901204100E+01 -0.37079837508E+02  0.47787273725E+02  0.20000012223E+02 0.  0.
        -12    1    1    2    0    0 -0.21716793616E+02  0.60901204100E+01  0.37079837508E+02  0.43400726275E+02  0.00000000000E+00 0.  1.
         11    1    3    3    0    0  0.18596595436E+02 -0.39165308197E+01 -0.25571813710E+02  0.31860480727E+02  0.51100000000E-03 0. -1.
        -11    1    3    3    0    0  0.46019123404E+01  0.30832178998E+01 -0.61240087035E+01  0.82575609394E+01  0.51100000000E-03 0.  1.
        -12    1    3    3    0    0 -0.14817141606E+01 -0.52568074900E+01 -0.53840150947E+01  0.76692320594E+01  0.00000000000E+00 0.  1.
</event>
<event>
 7    1  0.2294216E-010  0.4778726E+02  0.7816164E-02  0.1312668E+00
        -11   -1    0    0    0    0  0.00000000000E+00  0.00000000000E+00  0.45593999997E+02  0.45594000000E+02  0.51100000000E-03 0.  1.
         11   -1    0    0    0    0 -0.00000000000E+00 -0.00000000000E+00 -0.45593999997E+02  0.45594000000E+02  0.51100000000E-03 0. -1.
    9900012    2    1    2    0    0 -0.28354963707E+02 -0.25449099221E+02 -0.20783725298E+02  0.47787264346E+02  0.19999969461E+02 0.  0.
        -12    1    1    2    0    0  0.28354963707E+02  0.25449099221E+02  0.20783725298E+02  0.43400735654E+02  0.00000000000E+00 0.  1.
         11    1    3    3    0    0 -0.67015489766E+01 -0.11154386887E+02 -0.12392837888E+02  0.17969795121E+02  0.51100000000E-03 0. -1.
        -11    1    3    3    0    0 -0.27020649036E+00 -0.52762533700E+01 -0.50594540902E+00  0.53073385222E+01  0.51100000000E-03 0.  1.
         12    1    3    3    0    0 -0.21383208240E+02 -0.90184589645E+01 -0.78849420009E+01  0.24510130703E+02  0.00000000000E+00 0. -1.
</event>
<event>
 7    1  0.2294216E-010  0.4778727E+02  0.7816164E-02  0.1312668E+00
        -11   -1    0    0    0    0  0.00000000000E+00  0.00000000000E+00  0.45593999997E+02  0.45594000000E+02  0.51100000000E-03 0.  1.
         11   -1    0    0    0    0 -0.00000000000E+00 -0.00000000000E+00 -0.45593999997E+02  0.45594000000E+02  0.51100000000E-03 0. -1.
    9900012    2    1    2    0    0  0.14574892277E+02 -0.16322794998E+02 -0.37480156902E+02  0.47787270941E+02  0.19999999528E+02 0.  0.
        -12    1    1    2    0    0 -0.14574892277E+02  0.16322794998E+02  0.37480156902E+02  0.43400729059E+02  0.00000000000E+00 0.  1.
         11    1    3    3    0    0  0.25965088383E+01  0.24981480257E+01 -0.53826204278E+01  0.64772837391E+01  0.51100000000E-03 0. -1.
        -11    1    3    3    0    0 -0.43623917462E+00 -0.94225026095E+01 -0.17923108243E+02  0.20253682860E+02  0.51100000000E-03 0.  1.
         12    1    3    3    0    0  0.12414622613E+02 -0.93984404143E+01 -0.14174428232E+02  0.21056304342E+02  0.00000000000E+00 0. -1.
</event>
<event>
 7    1  0.2294216E-010  0.4778727E+02  0.7816164E-02  0.1312668E+00
        -11   -1    0    0    0    0  0.00000000000E+00  0.00000000000E+00  0.45593999997E+02  0.45594000000E+02  0.51100000000E-03 0. -1.
         11   -1    0    0    0    0 -0.00000000000E+00 -0.00000000000E+00 -0.45593999997E+02  0.45594000000E+02  0.51100000000E-03 0.  1.
    9900012    2    1    2    0    0  0.23509477222E+02 -0.36344436970E+02 -0.31638130280E+01  0.47787270388E+02  0.19999997009E+02 0.  0.
        -12    1    1    2    0    0 -0.23509477222E+02  0.36344436970E+02  0.31638130280E+01  0.43400729612E+02  0.00000000000E+00 0.  1.
         11    1    3    3    0    0  0.58186094891E+01 -0.45153006845E+01  0.12722132110E+01  0.74741342892E+01  0.51100000000E-03 0. -1.
        -11    1    3    3    0    0  0.17026745337E+01  0.94990668635E+00 -0.32905189129E+01  0.38247795044E+01  0.51100000000E-03 0.  1.
        -12    1    3    3    0    0  0.15988193199E+02 -0.32779042972E+02 -0.11455073261E+01  0.36488356595E+02  0.00000000000E+00 0.  1.
</event>
<event>
 7    1  0.2294216E-010  0.4778727E+02  0.7816164E-02  0.1312668E+00
        -11   -1    0    0    0    0  0.00000000000E+00  0.00000000000E+00  0.45593999997E+02  0.45594000000E+02  0.51100000000E-03 0.  1.
         11   -1    0    0    0    0 -0.00000000000E+00 -0.00000000000E+00 -0.45593999997E+02  0.45594000000E+02  0.51100000000E-03 0. -1.
    9900012    2    1    2    0    0 -0.15981779540E+02  0.30212207615E+02 -0.26747494908E+02  0.47787271319E+02  0.20000001250E+02 0.  0.
        -12    1    1    2    0    0  0.15981779540E+02 -0.30212207615E+02  0.26747494908E+02  0.43400728681E+02  0.00000000000E+00 0.  1.
         11    1    3    3    0    0 -0.42454490278E+00  0.44122280615E+01 -0.97028623569E+01  0.10667405168E+02  0.51100000000E-03 0. -1.
        -11    1    3    3    0    0  0.18133376808E+01  0.59148692140E+00 -0.27158011167E+01  0.33186783950E+01  0.51100000000E-03 0.  1.
        -12    1    3    3    0    0 -0.17370572318E+02  0.25208492632E+02 -0.14328831434E+02  0.33801187756E+02  0.00000000000E+00 0.  1.
</event>
<event>
 7    1  0.2294216E-010  0.4778727E+02  0.7816164E-02  0.1312668E+00
        -11   -1    0    0    0    0  0.00000000000E+00  0.00000000000E+00  0.45593999997E+02  0.45594000000E+02  0.51100000000E-03 0.  1.
         11   -1    0    0    0    0 -0.00000000000E+00 -0.00000000000E+00 -0.45593999997E+02  0.45594000000E+02  0.51100000000E-03 0. -1.
    9900012    2    1    2    0    0 -0.24465755703E+02  0.15879706479E+02 -0.32138527393E+02  0.47787271631E+02  0.20000002673E+02 0.  0.
        -12    1    1    2    0    0  0.24465755703E+02 -0.15879706479E+02  0.32138527393E+02  0.43400728369E+02  0.00000000000E+00 0.  1.
         11    1    3    3    0    0 -0.90345638163E+00  0.82515549297E+00 -0.13045787702E+01  0.17885863272E+01  0.51100000000E-03 0. -1.
        -11    1    3    3    0    0 -0.21311654231E+02  0.81219422267E+01 -0.31262278099E+02  0.38697320111E+02  0.51100000000E-03 0.  1.
        -12    1    3    3    0    0 -0.22506450910E+01  0.69326087592E+01  0.42832947581E+00  0.73013651925E+01  0.00000000000E+00 0.  1.
</event>
<event>
 7    1  0.2294216E-010  0.4778727E+02  0.7816164E-02  0.1312668E+00
        -11   -1    0    0    0    0  0.00000000000E+00  0.00000000000E+00  0.45593999997E+02  0.45594000000E+02  0.51100000000E-03 0.  1.
         11   -1    0    0    0    0 -0.00000000000E+00 -0.00000000000E+00 -0.45593999997E+02  0.45594000000E+02  0.51100000000E-03 0. -1.
    9900012    2    1    2    0    0  0.20859166768E+02 -0.30577440489E+02 -0.22661389588E+02  0.47787270937E+02  0.19999999512E+02 0.  0.
        -12    1    1    2    0    0 -0.20859166768E+02  0.30577440489E+02  0.22661389588E+02  0.43400729063E+02  0.00000000000E+00 0.  1.
         11    1    3    3    0    0  0.19865208813E+00 -0.88496622414E+01 -0.27666546192E+01  0.92741771863E+01  0.51100000000E-03 0. -1.
        -11    1    3    3    0    0  0.28770088677E+01 -0.11517922996E+02 -0.10915950652E+02  0.16127545041E+02  0.51100000000E-03 0.  1.
        -12    1    3    3    0    0  0.17783505812E+02 -0.10209855251E+02 -0.89787843167E+01  0.22385548710E+02  0.00000000000E+00 0.  1.
</event>
<event>
 7    1  0.2294216E-010  0.4778727E+02  0.7816164E-02  0.1312668E+00
        -11   -1    0    0    0    0  0.00000000000E+00  0.00000000000E+00  0.45593999997E+02  0.45594000000E+02  0.51100000000E-03 0.  1.
         11   -1    0    0    0    0 -0.00000000000E+00 -0.00000000000E+00 -0.45593999997E+02  0.45594000000E+02  0.51100000000E-03 0. -1.
    9900012    2    1    2    0    0 -0.22541975765E+02  0.13935147038E+02 -0.34369964926E+02  0.47787268631E+02  0.19999988996E+02 0.  0.
        -12    1    1    2    0    0  0.22541975765E+02 -0.13935147038E+02  0.34369964926E+02  0.43400731369E+02  0.00000000000E+00 0.  1.
         11    1    3    3    0    0 -0.70572380567E+01  0.74849254414E+01 -0.12947966415E+02  0.16537186956E+02  0.51100000000E-03 0. -1.
        -11    1    3    3    0    0  0.40467807069E+00  0.35053012663E+01  0.94794480560E+00  0.36536968845E+01  0.51100000000E-03 0.  1.
        -12    1    3    3    0    0 -0.15889415779E+02  0.29449203306E+01 -0.22369943316E+02  0.27596384791E+02  0.00000000000E+00 0.  1.
</event>
<event>
 7    1  0.2294216E-010  0.4778727E+02  0.7816164E-02  0.1312668E+00
        -11   -1    0    0    0    0  0.00000000000E+00  0.00000000000E+00  0.45593999997E+02  0.45594000000E+02  0.51100000000E-03 0.  1.
         11   -1    0    0    0    0 -0.00000000000E+00 -0.00000000000E+00 -0.45593999997E+02  0.45594000000E+02  0.51100000000E-03 0. -1.
    9900012    2    1    2    0    0 -0.85804360352E+00 -0.38006963300E+02 -0.20936997018E+02  0.47787270257E+02  0.19999996409E+02 0.  0.
        -12    1    1    2    0    0  0.85804360352E+00  0.38006963300E+02  0.20936997018E+02  0.43400729743E+02  0.00000000000E+00 0.  1.
         11    1    3    3    0    0  0.53627471486E+01 -0.42744552157E+01 -0.29892419876E+01  0.74810154586E+01  0.51100000000E-03 0. -1.
        -11    1    3    3    0    0 -0.47027318815E+00 -0.88825440884E+00  0.14244808427E+01  0.17433584538E+01  0.51100000000E-03 0.  1.
         12    1    3    3    0    0 -0.57505175639E+01 -0.32844253675E+02 -0.19372235873E+02  0.38562896344E+02  0.00000000000E+00 0. -1.
</event>
<event>
 7    1  0.2294216E-010  0.4778727E+02  0.7816164E-02  0.1312668E+00
        -11   -1    0    0    0    0  0.00000000000E+00  0.00000000000E+00  0.45593999997E+02  0.45594000000E+02  0.51100000000E-03 0.  1.
         11   -1    0    0    0    0 -0.00000000000E+00 -0.00000000000E+00 -0.45593999997E+02  0.45594000000E+02  0.51100000000E-03 0. -1.
    9900012    2    1    2    0    0  0.19475333034E+02  0.13926602647E+02 -0.36199233870E+02  0.47787269697E+02  0.19999993855E+02 0.  0.
        -12    1    1    2    0    0 -0.19475333034E+02 -0.13926602647E+02  0.36199233870E+02  0.43400730303E+02  0.00000000000E+00 0.  1.
         11    1    3    3    0    0  0.40772484190E+01  0.18283142108E+01 -0.15494046926E+02  0.16125513261E+02  0.51100000000E-03 0. -1.
        -11    1    3    3    0    0  0.13003237283E+01 -0.20342976454E+01 -0.71133321292E+01  0.75119040828E+01  0.51100000000E-03 0.  1.
        -12    1    3    3    0    0  0.14097760886E+02  0.14132586082E+02 -0.13591854815E+02  0.24149852353E+02  0.00000000000E+00 0.  1.
</event>
<event>
 7    1  0.2294216E-010  0.4778727E+02  0.7816164E-02  0.1312668E+00
        -11   -1    0    0    0    0  0.00000000000E+00  0.00000000000E+00  0.45593999997E+02  0.45594000000E+02  0.51100000000E-03 0.  1.
         11   -1    0    0    0    0 -0.00000000000E+00 -0.00000000000E+00 -0.45593999997E+02  0.45594000000E+02  0.51100000000E-03 0. -1.
    9900012    2    1    2    0    0 -0.27234249452E+01 -0.13228545921E+02 -0.41245747022E+02  0.47787272840E+02  0.20000008186E+02 0.  0.
        -12    1    1    2    0    0  0.27234249452E+01  0.13228545921E+02  0.41245747022E+02  0.43400727160E+02  0.00000000000E+00 0.  1.
         11    1    3    3    0    0 -0.56807112664E+01 -0.67416126068E+01 -0.12694326280E+02  0.15455281977E+02  0.51100000000E-03 0.  1.
        -11    1    3    3    0    0  0.26214188632E+01 -0.18574253844E+01  0.18980225280E+00  0.32183677651E+01  0.51100000000E-03 0. -1.
         12    1    3    3    0    0  0.33586745803E+00 -0.46295079295E+01 -0.28741222995E+02  0.29113623098E+02  0.00000000000E+00 0. -1.
</event>
<event>
 7    1  0.2294216E-010  0.4778724E+02  0.7816164E-02  0.1312668E+00
        -11   -1    0    0    0    0  0.00000000000E+00  0.00000000000E+00  0.45593999997E+02  0.45594000000E+02  0.51100000000E-03 0. -1.
         11   -1    0    0    0    0 -0.00000000000E+00 -0.00000000000E+00 -0.45593999997E+02  0.45594000000E+02  0.51100000000E-03 0.  1.
    9900012    2    1    2    0    0  0.21199429324E+02 -0.27529063790E+02  0.26006933505E+02  0.47787242551E+02  0.19999870086E+02 0.  0.
        -12    1    1    2    0    0 -0.21199429324E+02  0.27529063790E+02 -0.26006933505E+02  0.43400757449E+02  0.00000000000E+00 0.  1.
         11    1    3    3    0    0  0.88265108251E+01 -0.80224526582E+01  0.26252611697E+01  0.12213068266E+02  0.51100000000E-03 0. -1.
        -11    1    3    3    0    0 -0.43369083626E+00 -0.16368852397E+01 -0.15766870525E+01  0.23137466050E+01  0.51100000000E-03 0.  1.
         12    1    3    3    0    0  0.12806609335E+02 -0.17869725892E+02  0.24958359388E+02  0.33260427680E+02  0.00000000000E+00 0. -1.
</event>
<event>
 7    1  0.2294216E-010  0.4778727E+02  0.7816164E-02  0.1312668E+00
        -11   -1    0    0    0    0  0.00000000000E+00  0.00000000000E+00  0.45593999997E+02  0.45594000000E+02  0.51100000000E-03 0. -1.
         11   -1    0    0    0    0 -0.00000000000E+00 -0.00000000000E+00 -0.45593999997E+02  0.45594000000E+02  0.51100000000E-03 0.  1.
    9900012    2    1    2    0    0  0.42779820433E+02 -0.43134863420E+01  0.59079639254E+01  0.47787271453E+02  0.20000001863E+02 0.  0.
        -12    1    1    2    0    0 -0.42779820433E+02  0.43134863420E+01 -0.59079639254E+01  0.43400728547E+02  0.00000000000E+00 0.  1.
         11    1    3    3    0    0  0.26743591261E+02 -0.21027261109E+01  0.46652756314E+01  0.27228770219E+02  0.51100000000E-03 0. -1.
        -11    1    3    3    0    0  0.10722226694E+02 -0.64218176687E+01  0.41668996416E+01  0.13174556552E+02  0.51100000000E-03 0.  1.
        -12    1    3    3    0    0  0.53140024772E+01  0.42110574376E+01 -0.29242113476E+01  0.73839446826E+01  0.00000000000E+00 0.  1.
</event>
<event>
 7    1  0.2294216E-010  0.4778727E+02  0.7816164E-02  0.1312668E+00
        -11   -1    0    0    0    0  0.00000000000E+00  0.00000000000E+00  0.45593999997E+02  0.45594000000E+02  0.51100000000E-03 0.  1.
         11   -1    0    0    0    0 -0.00000000000E+00 -0.00000000000E+00 -0.45593999997E+02  0.45594000000E+02  0.51100000000E-03 0. -1.
    9900012    2    1    2    0    0  0.39367795383E+02  0.16769161398E+02 -0.72522407652E+01  0.47787273239E+02  0.20000010004E+02 0.  0.
        -12    1    1    2    0    0 -0.39367795383E+02 -0.16769161398E+02  0.72522407652E+01  0.43400726761E+02  0.00000000000E+00 0.  1.
         11    1    3    3    0    0  0.19561286236E+02  0.59630311013E+01 -0.32884450103E+01  0.20712690071E+02  0.51100000000E-03 0. -1.
        -11    1    3    3    0    0  0.19709774405E+02  0.91855266694E+01  0.10840390281E+01  0.21772097927E+02  0.51100000000E-03 0.  1.
        -12    1    3    3    0    0  0.96734741899E-01  0.16206036277E+01 -0.50478347829E+01  0.53024852403E+01  0.00000000000E+00 0.  1.
</event>
<event>
 7    1  0.2294216E-010  0.4778727E+02  0.7816164E-02  0.1312668E+00
        -11   -1    0    0    0    0  0.00000000000E+00  0.00000000000E+00  0.45593999997E+02  0.45594000000E+02  0.51100000000E-03 0. -1.
         11   -1    0    0    0    0 -0.00000000000E+00 -0.00000000000E+00 -0.45593999997E+02  0.45594000000E+02  0.51100000000E-03 0.  1.
    9900012    2    1    2    0    0 -0.20844533125E+02 -0.37852071840E+02 -0.40434655546E+01  0.47787268238E+02  0.19999987206E+02 0.  0.
        -12    1    1    2    0    0  0.20844533125E+02  0.37852071840E+02  0.40434655546E+01  0.43400731762E+02  0.00000000000E+00 0.  1.
         11    1    3    3    0    0 -0.42032327417E+01 -0.98635936543E+01 -0.63704519728E+01  0.12471579846E+02  0.51100000000E-03 0. -1.
        -11    1    3    3    0    0 -0.29100761916E+01 -0.42744482216E+01 -0.47418656832E+01  0.70160345965E+01  0.51100000000E-03 0.  1.
         12    1    3    3    0    0 -0.13731224192E+02 -0.23714029964E+02  0.70688521013E+01  0.28299653796E+02  0.00000000000E+00 0. -1.
</event>
<event>
 7    1  0.2294216E-010  0.4778730E+02  0.7816164E-02  0.1312668E+00
        -11   -1    0    0    0    0  0.00000000000E+00  0.00000000000E+00  0.45593999997E+02  0.45594000000E+02  0.51100000000E-03 0. -1.
         11   -1    0    0    0    0 -0.00000000000E+00 -0.00000000000E+00 -0.45593999997E+02  0.45594000000E+02  0.51100000000E-03 0.  1.
    9900012    2    1    2    0    0 -0.20353641912E+02  0.10705849436E+02  0.36806725328E+02  0.47787297464E+02  0.20000120456E+02 0.  0.
        -12    1    1    2    0    0  0.20353641912E+02 -0.10705849436E+02 -0.36806725328E+02  0.43400702536E+02  0.00000000000E+00 0.  1.
         11    1    3    3    0    0 -0.61051353469E+01  0.59645966939E+01  0.12290964348E+02  0.14963852986E+02  0.51100000000E-03 0. -1.
        -11    1    3    3    0    0 -0.15294022833E+02  0.71367368446E+01  0.13821851569E+02  0.21814759413E+02  0.51100000000E-03 0.  1.
         12    1    3    3    0    0  0.10455162670E+01 -0.23954841025E+01  0.10693909412E+02  0.11008685065E+02  0.00000000000E+00 0. -1.
</event>
<event>
 7    1  0.2294216E-010  0.4778727E+02  0.7816164E-02  0.1312668E+00
        -11   -1    0    0    0    0  0.00000000000E+00  0.00000000000E+00  0.45593999997E+02  0.45594000000E+02  0.51100000000E-03 0.  1.
         11   -1    0    0    0    0 -0.00000000000E+00 -0.00000000000E+00 -0.45593999997E+02  0.45594000000E+02  0.51100000000E-03 0. -1.
    9900012    2    1    2    0    0 -0.16804238381E+02  0.23641476660E+00 -0.40014808222E+02  0.47787271935E+02  0.20000004061E+02 0.  0.
        -12    1    1    2    0    0  0.16804238381E+02 -0.23641476660E+00  0.40014808222E+02  0.43400728065E+02  0.00000000000E+00 0.  1.
         11    1    3    3    0    0 -0.28721583455E+01 -0.14924546177E+01 -0.38049337679E+01  0.49954214624E+01  0.51100000000E-03 0. -1.
        -11    1    3    3    0    0  0.18109375030E+01 -0.21052129280E+01  0.35321995904E+00  0.27993179013E+01  0.51100000000E-03 0.  1.
         12    1    3    3    0    0 -0.15743017539E+02  0.38340823123E+01 -0.36563094413E+02  0.39992532571E+02  0.00000000000E+00 0. -1.
</event>
<event>
 7    1  0.2294216E-010  0.4778727E+02  0.7816164E-02  0.1312668E+00
        -11   -1    0    0    0    0  0.00000000000E+00  0.00000000000E+00  0.45593999997E+02  0.45594000000E+02  0.51100000000E-03 0. -1.
         11   -1    0    0    0    0 -0.00000000000E+00 -0.00000000000E+00 -0.45593999997E+02  0.45594000000E+02  0.51100000000E-03 0.  1.
    9900012    2    1    2    0    0 -0.23343142089E+02 -0.13867674222E+02  0.33858654647E+02  0.47787272294E+02  0.20000005697E+02 0.  0.
        -12    1    1    2    0    0  0.23343142089E+02  0.13867674222E+02 -0.33858654647E+02  0.43400727706E+02  0.00000000000E+00 0.  1.
         11    1    3    3    0    0 -0.51798302579E+01 -0.13417835893E+01  0.12193065426E+02  0.13315474811E+02  0.51100000000E-03 0. -1.
        -11    1    3    3    0    0 -0.10657949058E+02 -0.24862622649E+01  0.18578477804E+02  0.21562310079E+02  0.51100000000E-03 0.  1.
         12    1    3    3    0    0 -0.75053627729E+01 -0.10039628368E+02  0.30871114167E+01  0.12909487403E+02  0.00000000000E+00 0. -1.
</event>
<event>
 7    1  0.2294216E-010  0.4778727E+02  0.7816164E-02  0.1312668E+00
        -11   -1    0    0    0    0  0.00000000000E+00  0.00000000000E+00  0.45593999997E+02  0.45594000000E+02  0.51100000000E-03 0.  1.
         11   -1    0    0    0    0 -0.00000000000E+00 -0.00000000000E+00 -0.45593999997E+02  0.45594000000E+02  0.51100000000E-03 0. -1.
    9900012    2    1    2    0    0 -0.11622665468E+02 -0.21723323580E+02 -0.35730016998E+02  0.47787271266E+02  0.20000001011E+02 0.  0.
        -12    1    1    2    0    0  0.11622665468E+02  0.21723323580E+02  0.35730016998E+02  0.43400728734E+02  0.00000000000E+00 0.  1.
         11    1    3    3    0    0 -0.45906463353E+01 -0.78099641665E+01 -0.11699600015E+02  0.14796966406E+02  0.51100000000E-03 0. -1.
        -11    1    3    3    0    0 -0.40375296821E+01 -0.10694523180E+01  0.13486317133E+01  0.43890980797E+01  0.51100000000E-03 0.  1.
        -12    1    3    3    0    0 -0.29944894510E+01 -0.12843907096E+02 -0.25379048696E+02  0.28601206780E+02  0.00000000000E+00 0.  1.
</event>
<event>
 7    1  0.2294216E-010  0.4778727E+02  0.7816164E-02  0.1312668E+00
        -11   -1    0    0    0    0  0.00000000000E+00  0.00000000000E+00  0.45593999997E+02  0.45594000000E+02  0.51100000000E-03 0.  1.
         11   -1    0    0    0    0 -0.00000000000E+00 -0.00000000000E+00 -0.45593999997E+02  0.45594000000E+02  0.51100000000E-03 0. -1.
    9900012    2    1    2    0    0 -0.93965318060E+01  0.87217070970E+01 -0.41463963624E+02  0.47787271157E+02  0.20000000515E+02 0.  0.
        -12    1    1    2    0    0  0.93965318060E+01 -0.87217070970E+01  0.41463963624E+02  0.43400728843E+02  0.00000000000E+00 0.  1.
         11    1    3    3    0    0 -0.11669116066E+02 -0.61331469415E+00 -0.13275773878E+02  0.17685886944E+02  0.51100000000E-03 0.  1.
        -11    1    3    3    0    0  0.16440713597E+01  0.19529860334E+01 -0.35446093243E+01  0.43682239647E+01  0.51100000000E-03 0. -1.
        -12    1    3    3    0    0  0.62851290011E+00  0.73820357577E+01 -0.24643580421E+02  0.25733160248E+02  0.00000000000E+00 0.  1.
</event>
<event>
 7    1  0.2294216E-010  0.4778727E+02  0.7816164E-02  0.1312668E+00
        -11   -1    0    0    0    0  0.00000000000E+00  0.00000000000E+00  0.45593999997E+02  0.45594000000E+02  0.51100000000E-03 0.  1.
         11   -1    0    0    0    0 -0.00000000000E+00 -0.00000000000E+00 -0.45593999997E+02  0.45594000000E+02  0.51100000000E-03 0. -1.
    9900012    2    1    2    0    0 -0.54131392749E+01 -0.35616091396E+02 -0.24203620841E+02  0.47787270687E+02  0.19999998369E+02 0.  0.
        -12    1    1    2    0    0  0.54131392749E+01  0.35616091396E+02  0.24203620841E+02  0.43400729313E+02  0.00000000000E+00 0.  1.
         11    1    3    3    0    0  0.75146698986E+01 -0.14741862895E+02 -0.96333496976E+01  0.19146650150E+02  0.51100000000E-03 0. -1.
        -11    1    3    3    0    0 -0.25993751583E+01 -0.29373402452E+01 -0.29119381247E+01  0.48850898490E+01  0.51100000000E-03 0.  1.
         12    1    3    3    0    0 -0.10328434015E+02 -0.17936888256E+02 -0.11658333018E+02  0.23755530688E+02  0.00000000000E+00 0. -1.
</event>
<event>
 7    1  0.2294216E-010  0.4778726E+02  0.7816164E-02  0.1312668E+00
        -11   -1    0    0    0    0  0.00000000000E+00  0.00000000000E+00  0.45593999997E+02  0.45594000000E+02  0.51100000000E-03 0.  1.
         11   -1    0    0    0    0 -0.00000000000E+00 -0.00000000000E+00 -0.45593999997E+02  0.45594000000E+02  0.51100000000E-03 0. -1.
    9900012    2    1    2    0    0 -0.99877008851E+01  0.36888598273E+02 -0.20569419760E+02  0.47787264052E+02  0.19999968120E+02 0.  0.
        -12    1    1    2    0    0  0.99877008851E+01 -0.36888598273E+02  0.20569419760E+02  0.43400735948E+02  0.00000000000E+00 0.  1.
         11    1    3    3    0    0 -0.45512117608E+00  0.14288615161E+02 -0.16862192964E+02  0.22106677957E+02  0.51100000000E-03 0. -1.
        -11    1    3    3    0    0 -0.37402156950E+01  0.36254628238E+01  0.96816238068E+00  0.52981631523E+01  0.51100000000E-03 0.  1.
         12    1    3    3    0    0 -0.57923640140E+01  0.18974520289E+02 -0.46753891764E+01  0.20382422943E+02  0.00000000000E+00 0. -1.
</event>
<event>
 7    1  0.2294216E-010  0.4778727E+02  0.7816164E-02  0.1312668E+00
        -11   -1    0    0    0    0  0.00000000000E+00  0.00000000000E+00  0.45593999997E+02  0.45594000000E+02  0.51100000000E-03 0.  1.
         11   -1    0    0    0    0 -0.00000000000E+00 -0.00000000000E+00 -0.45593999997E+02  0.45594000000E+02  0.51100000000E-03 0. -1.
    9900012    2    1    2    0    0  0.23689824394E+01  0.20329704910E+02 -0.38271582852E+02  0.47787273813E+02  0.20000012623E+02 0.  0.
        -12    1    1    2    0    0 -0.23689824394E+01 -0.20329704910E+02  0.38271582852E+02  0.43400726187E+02  0.00000000000E+00 0.  1.
         11    1    3    3    0    0  0.64892006031E+01  0.75181961786E+01 -0.21555663536E+02  0.23733512782E+02  0.51100000000E-03 0. -1.
        -11    1    3    3    0    0  0.35644012806E+01  0.60641698143E+01 -0.60593761520E+01  0.92841344044E+01  0.51100000000E-03 0.  1.
         12    1    3    3    0    0 -0.76846194442E+01  0.67473389173E+01 -0.10656543164E+02  0.14769626626E+02  0.00000000000E+00 0. -1.
</event>
<event>
 7    1  0.2294216E-010  0.4778728E+02  0.7816164E-02  0.1312668E+00
        -11   -1    0    0    0    0  0.00000000000E+00  0.00000000000E+00  0.45593999997E+02  0.45594000000E+02  0.51100000000E-03 0. -1.
         11   -1    0    0    0    0 -0.00000000000E+00 -0.00000000000E+00 -0.45593999997E+02  0.45594000000E+02  0.51100000000E-03 0.  1.
    9900012    2    1    2    0    0  0.93081703547E+01  0.42304671097E+02  0.27010532658E+01  0.47787275113E+02  0.20000018549E+02 0.  0.
        -12    1    1    2    0    0 -0.93081703547E+01 -0.42304671097E+02 -0.27010532658E+01  0.43400724887E+02  0.00000000000E+00 0.  1.
         11    1    3    3    0    0  0.57536461377E+01  0.11357756603E+02  0.12596700854E+01  0.12794133340E+02  0.51100000000E-03 0. -1.
        -11    1    3    3    0    0  0.78641534728E+01  0.10190337115E+02 -0.32609614593E+01  0.13278620044E+02  0.51100000000E-03 0.  1.
        -12    1    3    3    0    0 -0.43096292559E+01  0.20756577379E+02  0.47023446397E+01  0.21714521729E+02  0.00000000000E+00 0.  1.
</event>
<event>
 7    1  0.2294216E-010  0.4778727E+02  0.7816164E-02  0.1312668E+00
        -11   -1    0    0    0    0  0.00000000000E+00  0.00000000000E+00  0.45593999997E+02  0.45594000000E+02  0.51100000000E-03 0.  1.
         11   -1    0    0    0    0 -0.00000000000E+00 -0.00000000000E+00 -0.45593999997E+02  0.45594000000E+02  0.51100000000E-03 0. -1.
    9900012    2    1    2    0    0  0.88640204984E+00  0.42235362220E+02  0.99504783902E+01  0.47787267856E+02  0.19999985461E+02 0.  0.
        -12    1    1    2    0    0 -0.88640204984E+00 -0.42235362220E+02 -0.99504783902E+01  0.43400732144E+02  0.00000000000E+00 0.  1.
         11    1    3    3    0    0  0.39746403830E+01  0.11360418968E+02  0.13769100310E+01  0.12114155637E+02  0.51100000000E-03 0. -1.
        -11    1    3    3    0    0  0.22337062923E+01  0.25427736560E+02  0.10833395350E+02  0.27729437164E+02  0.51100000000E-03 0.  1.
         12    1    3    3    0    0 -0.53219446254E+01  0.54472066922E+01 -0.22598269906E+01  0.79436750545E+01  0.00000000000E+00 0. -1.
</event>
<event>
 7    1  0.2294216E-010  0.4778727E+02  0.7816164E-02  0.1312668E+00
        -11   -1    0    0    0    0  0.00000000000E+00  0.00000000000E+00  0.45593999997E+02  0.45594000000E+02  0.51100000000E-03 0. -1.
         11   -1    0    0    0    0 -0.00000000000E+00 -0.00000000000E+00 -0.45593999997E+02  0.45594000000E+02  0.51100000000E-03 0.  1.
    9900012    2    1    2    0    0 -0.22228447008E+02 -0.22441710564E+02  0.29763887403E+02  0.47787271634E+02  0.20000002687E+02 0.  0.
        -12    1    1    2    0    0  0.22228447008E+02  0.22441710564E+02 -0.29763887403E+02  0.43400728366E+02  0.00000000000E+00 0.  1.
         11    1    3    3    0    0 -0.97144297043E+01 -0.81687260501E+01  0.13020072864E+02  0.18182973558E+02  0.51100000000E-03 0. -1.
        -11    1    3    3    0    0 -0.36475944295E+01  0.26060390144E+01  0.66810693168E+01  0.80456865427E+01  0.51100000000E-03 0.  1.
        -12    1    3    3    0    0 -0.88664228737E+01 -0.16879023528E+02  0.10062745222E+02  0.21558611533E+02  0.00000000000E+00 0.  1.
</event>
<event>
 7    1  0.2294216E-010  0.4778727E+02  0.7816164E-02  0.1312668E+00
        -11   -1    0    0    0    0  0.00000000000E+00  0.00000000000E+00  0.45593999997E+02  0.45594000000E+02  0.51100000000E-03 0.  1.
         11   -1    0    0    0    0 -0.00000000000E+00 -0.00000000000E+00 -0.45593999997E+02  0.45594000000E+02  0.51100000000E-03 0. -1.
    9900012    2    1    2    0    0  0.80268486591E+00 -0.41827100051E+02  0.11553044989E+02  0.47787269014E+02  0.19999990740E+02 0.  0.
        -12    1    1    2    0    0 -0.80268486591E+00  0.41827100051E+02 -0.11553044989E+02  0.43400730986E+02  0.00000000000E+00 0.  1.
         11    1    3    3    0    0  0.41388477990E+01 -0.10213864449E+02 -0.40513410723E+01  0.11741654604E+02  0.51100000000E-03 0. -1.
        -11    1    3    3    0    0  0.13550954545E+01 -0.49439224432E+01  0.81286289807E+00  0.51903178291E+01  0.51100000000E-03 0.  1.
        -12    1    3    3    0    0 -0.46912583876E+01 -0.26669313158E+02  0.14791523163E+02  0.30855296581E+02  0.00000000000E+00 0.  1.
</event>
<event>
 7    1  0.2294216E-010  0.4778727E+02  0.7816164E-02  0.1312668E+00
        -11   -1    0    0    0    0  0.00000000000E+00  0.00000000000E+00  0.45593999997E+02  0.45594000000E+02  0.51100000000E-03 0.  1.
         11   -1    0    0    0    0 -0.00000000000E+00 -0.00000000000E+00 -0.45593999997E+02  0.45594000000E+02  0.51100000000E-03 0. -1.
    9900012    2    1    2    0    0  0.64071577652E+01 -0.12445852284E+02 -0.41081286520E+02  0.47787274063E+02  0.20000013762E+02 0.  0.
        -12    1    1    2    0    0 -0.64071577652E+01  0.12445852284E+02  0.41081286520E+02  0.43400725937E+02  0.00000000000E+00 0.  1.
         11    1    3    3    0    0  0.18378611537E+01 -0.64502864369E+01 -0.83107727169E+01  0.10679553930E+02  0.51100000000E-03 0. -1.
        -11    1    3    3    0    0 -0.18486188372E+01  0.69090906269E+00  0.91149333990E+00  0.21738370012E+01  0.51100000000E-03 0.  1.
         12    1    3    3    0    0  0.64179154487E+01 -0.66864749097E+01 -0.33682007143E+02  0.34933883131E+02  0.00000000000E+00 0. -1.
</event>
<event>
 7    1  0.2294216E-010  0.4778726E+02  0.7816164E-02  0.1312668E+00
        -11   -1    0    0    0    0  0.00000000000E+00  0.00000000000E+00  0.45593999997E+02  0.45594000000E+02  0.51100000000E-03 0. -1.
         11   -1    0    0    0    0 -0.00000000000E+00 -0.00000000000E+00 -0.45593999997E+02  0.45594000000E+02  0.51100000000E-03 0.  1.
    9900012    2    1    2    0    0  0.10559985809E+02  0.31414520889E+02  0.28022107223E+02  0.47787263644E+02  0.19999966259E+02 0.  0.
        -12    1    1    2    0    0 -0.10559985809E+02 -0.31414520889E+02 -0.28022107223E+02  0.43400736356E+02  0.00000000000E+00 0.  1.
         11    1    3    3    0    0 -0.35426718417E+01  0.18362225982E+01  0.57847690658E+01  0.70275024449E+01  0.51100000000E-03 0.  1.
        -11    1    3    3    0    0  0.17034922540E+01  0.14473716731E+02  0.84834005583E+01  0.16862931156E+02  0.51100000000E-03 0. -1.
        -12    1    3    3    0    0  0.12399165397E+02  0.15104581560E+02  0.13753937599E+02  0.23896830043E+02  0.00000000000E+00 0.  1.
</event>
<event>
 7    1  0.2294216E-010  0.4778727E+02  0.7816164E-02  0.1312668E+00
        -11   -1    0    0    0    0  0.00000000000E+00  0.00000000000E+00  0.45593999997E+02  0.45594000000E+02  0.51100000000E-03 0. -1.
         11   -1    0    0    0    0 -0.00000000000E+00 -0.00000000000E+00 -0.45593999997E+02  0.45594000000E+02  0.51100000000E-03 0.  1.
    9900012    2    1    2    0    0  0.19299555762E+02  0.34068525433E+02  0.18721265266E+02  0.47787273613E+02  0.20000011709E+02 0.  0.
        -12    1    1    2    0    0 -0.19299555762E+02 -0.34068525433E+02 -0.18721265266E+02  0.43400726387E+02  0.00000000000E+00 0.  1.
         11    1    3    3    0    0  0.13588743458E+01  0.14952765455E+01  0.63038574323E+01  0.66197439696E+01  0.51100000000E-03 0. -1.
        -11    1    3    3    0    0 -0.18325158328E+01  0.38071269502E+01  0.23662779195E+01  0.48426853445E+01  0.51100000000E-03 0.  1.
         12    1    3    3    0    0  0.19773197249E+02  0.28766121937E+02  0.10051129914E+02  0.36324844299E+02  0.00000000000E+00 0. -1.
</event>
<event>
 7    1  0.2294216E-010  0.4778727E+02  0.7816164E-02  0.1312668E+00
        -11   -1    0    0    0    0  0.00000000000E+00  0.00000000000E+00  0.45593999997E+02  0.45594000000E+02  0.51100000000E-03 0.  1.
         11   -1    0    0    0    0 -0.00000000000E+00 -0.00000000000E+00 -0.45593999997E+02  0.45594000000E+02  0.51100000000E-03 0. -1.
    9900012    2    1    2    0    0  0.33790629341E+02 -0.38840302051E+00 -0.27233541278E+02  0.47787271219E+02  0.20000000797E+02 0.  0.
        -12    1    1    2    0    0 -0.33790629341E+02  0.38840302051E+00  0.27233541278E+02  0.43400728781E+02  0.00000000000E+00 0.  1.
         11    1    3    3    0    0  0.15328696742E+02 -0.67944916623E+01 -0.15660963269E+02  0.22943404968E+02  0.51100000000E-03 0. -1.
        -11    1    3    3    0    0 -0.61711203089E+00 -0.85043928480E+00 -0.20839023772E+01  0.23338216759E+01  0.51100000000E-03 0.  1.
        -12    1    3    3    0    0  0.19079044629E+02  0.72565279266E+01 -0.94886756320E+01  0.22510044575E+02  0.00000000000E+00 0.  1.
</event>
<event>
 7    1  0.2294216E-010  0.4778728E+02  0.7816164E-02  0.1312668E+00
        -11   -1    0    0    0    0  0.00000000000E+00  0.00000000000E+00  0.45593999997E+02  0.45594000000E+02  0.51100000000E-03 0.  1.
         11   -1    0    0    0    0 -0.00000000000E+00 -0.00000000000E+00 -0.45593999997E+02  0.45594000000E+02  0.51100000000E-03 0. -1.
    9900012    2    1    2    0    0 -0.38745682120E+02 -0.16783722888E+02 -0.10034982796E+02  0.47787284376E+02  0.20000060784E+02 0.  0.
        -12    1    1    2    0    0  0.38745682120E+02  0.16783722888E+02  0.10034982796E+02  0.43400715624E+02  0.00000000000E+00 0.  1.
         11    1    3    3    0    0 -0.34287715938E+02 -0.14399243932E+02 -0.65031989585E+01  0.37752844754E+02  0.51100000000E-03 0. -1.
        -11    1    3    3    0    0  0.18490746276E+00 -0.39224632491E+01  0.12305063270E+00  0.39287466742E+01  0.51100000000E-03 0.  1.
         12    1    3    3    0    0 -0.46428736452E+01  0.15379842926E+01 -0.36548344705E+01  0.61056929480E+01  0.00000000000E+00 0. -1.
</event>
<event>
 7    1  0.2294216E-010  0.4778727E+02  0.7816164E-02  0.1312668E+00
        -11   -1    0    0    0    0  0.00000000000E+00  0.00000000000E+00  0.45593999997E+02  0.45594000000E+02  0.51100000000E-03 0.  1.
         11   -1    0    0    0    0 -0.00000000000E+00 -0.00000000000E+00 -0.45593999997E+02  0.45594000000E+02  0.51100000000E-03 0. -1.
    9900012    2    1    2    0    0 -0.25739033183E+02  0.32378226008E+02 -0.13144439614E+02  0.47787266810E+02  0.19999980694E+02 0.  0.
        -12    1    1    2    0    0  0.25739033183E+02 -0.32378226008E+02  0.13144439614E+02  0.43400733190E+02  0.00000000000E+00 0.  1.
         11    1    3    3    0    0 -0.72936412079E+01  0.20740876855E+02 -0.97638396948E+01  0.24056469829E+02  0.51100000000E-03 0. -1.
        -11    1    3    3    0    0 -0.35885136799E+01  0.50607403752E+01  0.21530291343E+01  0.65668910673E+01  0.51100000000E-03 0.  1.
        -12    1    3    3    0    0 -0.14856878296E+02  0.65766087779E+01 -0.55336290532E+01  0.17163905914E+02  0.00000000000E+00 0.  1.
</event>
<event>
 7    1  0.2294216E-010  0.4778727E+02  0.7816164E-02  0.1312668E+00
        -11   -1    0    0    0    0  0.00000000000E+00  0.00000000000E+00  0.45593999997E+02  0.45594000000E+02  0.51100000000E-03 0.  1.
         11   -1    0    0    0    0 -0.00000000000E+00 -0.00000000000E+00 -0.45593999997E+02  0.45594000000E+02  0.51100000000E-03 0. -1.
    9900012    2    1    2    0    0 -0.10422146581E+02 -0.25717585263E+02 -0.33370759905E+02  0.47787274801E+02  0.20000017129E+02 0.  0.
        -12    1    1    2    0    0  0.10422146581E+02  0.25717585263E+02  0.33370759905E+02  0.43400725199E+02  0.00000000000E+00 0.  1.
         11    1    3    3    0    0  0.22174703254E+01 -0.25083135497E-01  0.37620048024E+00  0.22492956387E+01  0.51100000000E-03 0. -1.
        -11    1    3    3    0    0 -0.35090911151E+01 -0.87937010627E+00 -0.72694524286E+01  0.81198492049E+01  0.51100000000E-03 0.  1.
         12    1    3    3    0    0 -0.91305257911E+01 -0.24813132021E+02 -0.26477507957E+02  0.37418129958E+02  0.00000000000E+00 0. -1.
</event>
<event>
 7    1  0.2294216E-010  0.4778727E+02  0.7816164E-02  0.1312668E+00
        -11   -1    0    0    0    0  0.00000000000E+00  0.00000000000E+00  0.45593999997E+02  0.45594000000E+02  0.51100000000E-03 0.  1.
         11   -1    0    0    0    0 -0.00000000000E+00 -0.00000000000E+00 -0.45593999997E+02  0.45594000000E+02  0.51100000000E-03 0. -1.
    9900012    2    1    2    0    0 -0.22753001407E+02 -0.13553689971E+02 -0.34383455305E+02  0.47787267477E+02  0.19999983734E+02 0.  0.
        -12    1    1    2    0    0  0.22753001407E+02  0.13553689971E+02  0.34383455305E+02  0.43400732523E+02  0.00000000000E+00 0.  1.
         11    1    3    3    0    0 -0.12428476211E+02 -0.33721459487E+01 -0.98754650905E+01  0.16228468820E+02  0.51100000000E-03 0. -1.
        -11    1    3    3    0    0 -0.13131562688E+02 -0.10212049400E+02 -0.18214576662E+02  0.24667685234E+02  0.51100000000E-03 0.  1.
        -12    1    3    3    0    0  0.28070374924E+01  0.30505377001E-01 -0.62934135527E+01  0.68911134229E+01  0.00000000000E+00 0.  1.
</event>
<event>
 7    1  0.2294216E-010  0.4778727E+02  0.7816164E-02  0.1312668E+00
        -11   -1    0    0    0    0  0.00000000000E+00  0.00000000000E+00  0.45593999997E+02  0.45594000000E+02  0.51100000000E-03 0.  1.
         11   -1    0    0    0    0 -0.00000000000E+00 -0.00000000000E+00 -0.45593999997E+02  0.45594000000E+02  0.51100000000E-03 0. -1.
    9900012    2    1    2    0    0 -0.39579300728E+01 -0.11339140147E+02 -0.41705898535E+02  0.47787270947E+02  0.19999999554E+02 0.  0.
        -12    1    1    2    0    0  0.39579300728E+01  0.11339140147E+02  0.41705898535E+02  0.43400729053E+02  0.00000000000E+00 0.  1.
         11    1    3    3    0    0 -0.16351442647E+01 -0.84381894822E+01 -0.20009224489E+02  0.21777185388E+02  0.51100000000E-03 0. -1.
        -11    1    3    3    0    0  0.53761229561E+01 -0.13699475646E+01 -0.13810270754E+02  0.14882977959E+02  0.51100000000E-03 0.  1.
         12    1    3    3    0    0 -0.76989087642E+01 -0.15310031001E+01 -0.78864032923E+01  0.11127107600E+02  0.00000000000E+00 0. -1.
</event>
<event>
 7    1  0.2294216E-010  0.4778727E+02  0.7816164E-02  0.1312668E+00
        -11   -1    0    0    0    0  0.00000000000E+00  0.00000000000E+00  0.45593999997E+02  0.45594000000E+02  0.51100000000E-03 0.  1.
         11   -1    0    0    0    0 -0.00000000000E+00 -0.00000000000E+00 -0.45593999997E+02  0.45594000000E+02  0.51100000000E-03 0. -1.
    9900012    2    1    2    0    0 -0.67792643127E+01 -0.24660629886E+02 -0.35064491038E+02  0.47787267025E+02  0.19999981674E+02 0.  0.
        -12    1    1    2    0    0  0.67792643127E+01  0.24660629886E+02  0.35064491038E+02  0.43400732975E+02  0.00000000000E+00 0.  1.
         11    1    3    3    0    0 -0.73230293437E+01 -0.10217802087E+02 -0.25018494820E+02  0.27999202160E+02  0.51100000000E-03 0.  1.
        -11    1    3    3    0    0 -0.13248154448E+01 -0.49929077980E+01 -0.86212462635E+01  0.10050380671E+02  0.51100000000E-03 0. -1.
        -12    1    3    3    0    0  0.18685804758E+01 -0.94499200017E+01 -0.14247499544E+01  0.97376841942E+01  0.00000000000E+00 0.  1.
</event>
<event>
 7    1  0.2294216E-010  0.4778727E+02  0.7816164E-02  0.1312668E+00
        -11   -1    0    0    0    0  0.00000000000E+00  0.00000000000E+00  0.45593999997E+02  0.45594000000E+02  0.51100000000E-03 0. -1.
         11   -1    0    0    0    0 -0.00000000000E+00 -0.00000000000E+00 -0.45593999997E+02  0.45594000000E+02  0.51100000000E-03 0.  1.
    9900012    2    1    2    0    0 -0.25792398942E+02 -0.28951984529E+02  0.19497641836E+02  0.47787270876E+02  0.19999999232E+02 0.  0.
        -12    1    1    2    0    0  0.25792398942E+02  0.28951984529E+02 -0.19497641836E+02  0.43400729124E+02  0.00000000000E+00 0.  1.
         11    1    3    3    0    0 -0.16224127782E+01 -0.52020791315E+00 -0.11602974315E+01  0.20613417684E+01  0.51100000000E-03 0.  1.
        -11    1    3    3    0    0 -0.24991431085E+02 -0.19315322260E+02  0.15014793739E+02  0.34972808480E+02  0.51100000000E-03 0. -1.
         12    1    3    3    0    0  0.82144492152E+00 -0.91164543553E+01  0.56431455286E+01  0.10753120627E+02  0.00000000000E+00 0. -1.
</event>
<event>
 7    1  0.2294216E-010  0.4778727E+02  0.7816164E-02  0.1312668E+00
        -11   -1    0    0    0    0  0.00000000000E+00  0.00000000000E+00  0.45593999997E+02  0.45594000000E+02  0.51100000000E-03 0.  1.
         11   -1    0    0    0    0 -0.00000000000E+00 -0.00000000000E+00 -0.45593999997E+02  0.45594000000E+02  0.51100000000E-03 0. -1.
    9900012    2    1    2    0    0 -0.28320271145E+02 -0.31167056029E+02  0.10497643119E+02  0.47787266708E+02  0.19999980230E+02 0.  0.
        -12    1    1    2    0    0  0.28320271145E+02  0.31167056029E+02 -0.10497643119E+02  0.43400733292E+02  0.00000000000E+00 0.  1.
         11    1    3    3    0    0 -0.14031084578E+02 -0.18392568677E+02  0.52998250774E+01  0.23732805631E+02  0.51100000000E-03 0. -1.
        -11    1    3    3    0    0 -0.14966719478E+02 -0.71528274149E+01  0.71522103903E+01  0.18064322453E+02  0.51100000000E-03 0.  1.
        -12    1    3    3    0    0  0.67753291200E+00 -0.56216599365E+01 -0.19543923486E+01  0.59901386245E+01  0.00000000000E+00 0.  1.
</event>
<event>
 7    1  0.2294216E-010  0.4778727E+02  0.7816164E-02  0.1312668E+00
        -11   -1    0    0    0    0  0.00000000000E+00  0.00000000000E+00  0.45593999997E+02  0.45594000000E+02  0.51100000000E-03 0.  1.
         11   -1    0    0    0    0 -0.00000000000E+00 -0.00000000000E+00 -0.45593999997E+02  0.45594000000E+02  0.51100000000E-03 0. -1.
    9900012    2    1    2    0    0 -0.33034913597E+02  0.18337760400E+02 -0.21355189605E+02  0.47787273095E+02  0.20000009347E+02 0.  0.
        -12    1    1    2    0    0  0.33034913597E+02 -0.18337760400E+02  0.21355189605E+02  0.43400726905E+02  0.00000000000E+00 0.  1.
         11    1    3    3    0    0 -0.19618051024E+02  0.18149466326E+02 -0.18963886448E+02  0.32770414147E+02  0.51100000000E-03 0. -1.
        -11    1    3    3    0    0 -0.58783209289E+01 -0.15043552352E+00 -0.42376702113E+01  0.72481126419E+01  0.51100000000E-03 0.  1.
        -12    1    3    3    0    0 -0.75385416440E+01  0.33872959758E+00  0.18463670542E+01  0.77687463054E+01  0.00000000000E+00 0.  1.
</event>
<event>
 7    1  0.2294216E-010  0.4778727E+02  0.7816164E-02  0.1312668E+00
        -11   -1    0    0    0    0  0.00000000000E+00  0.00000000000E+00  0.45593999997E+02  0.45594000000E+02  0.51100000000E-03 0. -1.
         11   -1    0    0    0    0 -0.00000000000E+00 -0.00000000000E+00 -0.45593999997E+02  0.45594000000E+02  0.51100000000E-03 0.  1.
    9900012    2    1    2    0    0  0.15888970839E+02  0.73979507361E+01  0.39704338306E+02  0.47787267867E+02  0.19999985512E+02 0.  0.
        -12    1    1    2    0    0 -0.15888970839E+02 -0.73979507361E+01 -0.39704338306E+02  0.43400732133E+02  0.00000000000E+00 0.  1.
         11    1    3    3    0    0  0.33198409855E+00  0.85185047812E+01  0.20573704093E+02  0.22269989616E+02  0.51100000000E-03 0. -1.
        -11    1    3    3    0    0  0.39013664891E+01 -0.17173159504E+01  0.94026791563E+01  0.10323769182E+02  0.51100000000E-03 0.  1.
         12    1    3    3    0    0  0.11655620251E+02  0.59676190530E+00  0.97279550562E+01  0.15193509068E+02  0.00000000000E+00 0. -1.
</event>
<event>
 7    1  0.2294216E-010  0.4778728E+02  0.7816164E-02  0.1312668E+00
        -11   -1    0    0    0    0  0.00000000000E+00  0.00000000000E+00  0.45593999997E+02  0.45594000000E+02  0.51100000000E-03 0.  1.
         11   -1    0    0    0    0 -0.00000000000E+00 -0.00000000000E+00 -0.45593999997E+02  0.45594000000E+02  0.51100000000E-03 0. -1.
    9900012    2    1    2    0    0  0.38003414673E+02 -0.20584862865E+02 -0.39530127748E+01  0.47787280928E+02  0.20000045065E+02 0.  0.
        -12    1    1    2    0    0 -0.38003414673E+02  0.20584862865E+02  0.39530127748E+01  0.43400719072E+02  0.00000000000E+00 0.  1.
         11    1    3    3    0    0  0.21378047203E+02 -0.78686537707E+01  0.19802121444E+01  0.22866085253E+02  0.51100000000E-03 0. -1.
        -11    1    3    3    0    0  0.63704031592E+01 -0.19727588625E+01  0.32920397632E+01  0.74371594043E+01  0.51100000000E-03 0.  1.
        -12    1    3    3    0    0  0.10254964310E+02 -0.10743450231E+02 -0.92252646824E+01  0.17484036271E+02  0.00000000000E+00 0.  1.
</event>
<event>
 7    1  0.2294216E-010  0.4778727E+02  0.7816164E-02  0.1312668E+00
        -11   -1    0    0    0    0  0.00000000000E+00  0.00000000000E+00  0.45593999997E+02  0.45594000000E+02  0.51100000000E-03 0.  1.
         11   -1    0    0    0    0 -0.00000000000E+00 -0.00000000000E+00 -0.45593999997E+02  0.45594000000E+02  0.51100000000E-03 0. -1.
    9900012    2    1    2    0    0  0.41447539663E+02 -0.10485777677E+02 -0.74681767790E+01  0.47787265651E+02  0.19999975409E+02 0.  0.
        -12    1    1    2    0    0 -0.41447539663E+02  0.10485777677E+02  0.74681767790E+01  0.43400734349E+02  0.00000000000E+00 0.  1.
         11    1    3    3    0    0  0.17733417712E+02 -0.64649974299E+01 -0.26164375031E+01  0.19055603926E+02  0.51100000000E-03 0. -1.
        -11    1    3    3    0    0  0.13897546480E+02  0.22862977805E+01  0.33401949586E+01  0.14475008060E+02  0.51100000000E-03 0.  1.
        -12    1    3    3    0    0  0.98165754714E+01 -0.63070780272E+01 -0.81919342345E+01  0.14256653665E+02  0.00000000000E+00 0.  1.
</event>
<event>
 7    1  0.2294216E-010  0.4778726E+02  0.7816164E-02  0.1312668E+00
        -11   -1    0    0    0    0  0.00000000000E+00  0.00000000000E+00  0.45593999997E+02  0.45594000000E+02  0.51100000000E-03 0.  1.
         11   -1    0    0    0    0 -0.00000000000E+00 -0.00000000000E+00 -0.45593999997E+02  0.45594000000E+02  0.51100000000E-03 0. -1.
    9900012    2    1    2    0    0  0.12723191056E+02  0.25778947080E+02 -0.32514461147E+02  0.47787263982E+02  0.19999967799E+02 0.  0.
        -12    1    1    2    0    0 -0.12723191056E+02 -0.25778947080E+02  0.32514461147E+02  0.43400736018E+02  0.00000000000E+00 0.  1.
         11    1    3    3    0    0  0.30510762662E+01  0.31511479867E+01 -0.69862114396E+01  0.82489969425E+01  0.51100000000E-03 0. -1.
        -11    1    3    3    0    0  0.14219847876E+00  0.13710702227E+02 -0.22160790949E+02  0.26059628388E+02  0.51100000000E-03 0.  1.
         12    1    3    3    0    0  0.95299163108E+01  0.89170968660E+01 -0.33674587590E+01  0.13478638652E+02  0.00000000000E+00 0. -1.
</event>
<event>
 7    1  0.2294216E-010  0.4778727E+02  0.7816164E-02  0.1312668E+00
        -11   -1    0    0    0    0  0.00000000000E+00  0.00000000000E+00  0.45593999997E+02  0.45594000000E+02  0.51100000000E-03 0. -1.
         11   -1    0    0    0    0 -0.00000000000E+00 -0.00000000000E+00 -0.45593999997E+02  0.45594000000E+02  0.51100000000E-03 0.  1.
    9900012    2    1    2    0    0  0.27978518423E+02  0.25039587850E+00  0.33177755315E+02  0.47787266838E+02  0.19999980822E+02 0.  0.
        -12    1    1    2    0    0 -0.27978518423E+02 -0.25039587850E+00 -0.33177755315E+02  0.43400733162E+02  0.00000000000E+00 0.  1.
         11    1    3    3    0    0  0.15879979885E+02 -0.13063889540E+01  0.13930265538E+02  0.21164420887E+02  0.51100000000E-03 0. -1.
        -11    1    3    3    0    0  0.41761396465E+01 -0.58830584925E+01  0.53573848103E+01  0.89862167701E+01  0.51100000000E-03 0.  1.
        -12    1    3    3    0    0  0.79223988915E+01  0.74398433250E+01  0.13890104966E+02  0.17636629181E+02  0.00000000000E+00 0.  1.
</event>
<event>
 7    1  0.2294216E-010  0.4778727E+02  0.7816164E-02  0.1312668E+00
        -11   -1    0    0    0    0  0.00000000000E+00  0.00000000000E+00  0.45593999997E+02  0.45594000000E+02  0.51100000000E-03 0.  1.
         11   -1    0    0    0    0 -0.00000000000E+00 -0.00000000000E+00 -0.45593999997E+02  0.45594000000E+02  0.51100000000E-03 0. -1.
    9900012    2    1    2    0    0  0.17649657823E+02 -0.38331034207E+02 -0.10141232878E+02  0.47787271793E+02  0.20000003412E+02 0.  0.
        -12    1    1    2    0    0 -0.17649657823E+02  0.38331034207E+02  0.10141232878E+02  0.43400728207E+02  0.00000000000E+00 0.  1.
         11    1    3    3    0    0 -0.48777561970E+00 -0.13871437847E+02  0.15774391157E+00  0.13880907622E+02  0.51100000000E-03 0. -1.
        -11    1    3    3    0    0  0.35919477863E+01 -0.15303591086E+00  0.42028796051E+00  0.36196893680E+01  0.51100000000E-03 0.  1.
         12    1    3    3    0    0  0.14545485656E+02 -0.24306560449E+02 -0.10719264750E+02  0.30286674803E+02  0.00000000000E+00 0. -1.
</event>
<event>
 7    1  0.2294216E-010  0.4778727E+02  0.7816164E-02  0.1312668E+00
        -11   -1    0    0    0    0  0.00000000000E+00  0.00000000000E+00  0.45593999997E+02  0.45594000000E+02  0.51100000000E-03 0. -1.
         11   -1    0    0    0    0 -0.00000000000E+00 -0.00000000000E+00 -0.45593999997E+02  0.45594000000E+02  0.51100000000E-03 0.  1.
    9900012    2    1    2    0    0 -0.31212175674E+02 -0.30156617543E+02  0.45151119050E-01  0.47787268087E+02  0.19999986515E+02 0.  0.
        -12    1    1    2    0    0  0.31212175674E+02  0.30156617543E+02 -0.45151119050E-01  0.43400731913E+02  0.00000000000E+00 0.  1.
         11    1    3    3    0    0 -0.64449988273E+01 -0.22162333595E+01  0.11698806807E+01  0.69150792661E+01  0.51100000000E-03 0.  1.
        -11    1    3    3    0    0 -0.13222299306E+01 -0.10675004092E+02 -0.42980156669E+01  0.11583477167E+02  0.51100000000E-03 0. -1.
         12    1    3    3    0    0 -0.23444946916E+02 -0.17265380092E+02  0.31732861053E+01  0.29288711654E+02  0.00000000000E+00 0. -1.
</event>
<event>
 7    1  0.2294216E-010  0.4778727E+02  0.7816164E-02  0.1312668E+00
        -11   -1    0    0    0    0  0.00000000000E+00  0.00000000000E+00  0.45593999997E+02  0.45594000000E+02  0.51100000000E-03 0.  1.
         11   -1    0    0    0    0 -0.00000000000E+00 -0.00000000000E+00 -0.45593999997E+02  0.45594000000E+02  0.51100000000E-03 0. -1.
    9900012    2    1    2    0    0 -0.62298436700E+01 -0.30990092597E+02 -0.29739309539E+02  0.47787270477E+02  0.19999997411E+02 0.  0.
        -12    1    1    2    0    0  0.62298436700E+01  0.30990092597E+02  0.29739309539E+02  0.43400729523E+02  0.00000000000E+00 0.  1.
         11    1    3    3    0    0 -0.21113146115E+01 -0.15475529570E+02 -0.10141349837E+02  0.18622476786E+02  0.51100000000E-03 0. -1.
        -11    1    3    3    0    0  0.15788046981E+01 -0.11884032489E+02 -0.48298409724E+01  0.12924790774E+02  0.51100000000E-03 0.  1.
        -12    1    3    3    0    0 -0.56973337567E+01 -0.36305305379E+01 -0.14768118729E+02  0.16240002916E+02  0.00000000000E+00 0.  1.
</event>
<event>
 7    1  0.2294216E-010  0.4778727E+02  0.7816164E-02  0.1312668E+00
        -11   -1    0    0    0    0  0.00000000000E+00  0.00000000000E+00  0.45593999997E+02  0.45594000000E+02  0.51100000000E-03 0. -1.
         11   -1    0    0    0    0 -0.00000000000E+00 -0.00000000000E+00 -0.45593999997E+02  0.45594000000E+02  0.51100000000E-03 0.  1.
    9900012    2    1    2    0    0 -0.33472327497E+02  0.24399207179E+02  0.12957829500E+02  0.47787270002E+02  0.19999995247E+02 0.  0.
        -12    1    1    2    0    0  0.33472327497E+02 -0.24399207179E+02 -0.12957829500E+02  0.43400729998E+02  0.00000000000E+00 0.  1.
         11    1    3    3    0    0  0.55136728195E+00  0.37974480746E+01 -0.16069935535E+01  0.41601738306E+01  0.51100000000E-03 0. -1.
        -11    1    3    3    0    0 -0.13798917102E+02  0.13378900692E+02  0.37516808074E+01  0.19582650639E+02  0.51100000000E-03 0.  1.
        -12    1    3    3    0    0 -0.20224777677E+02  0.72228584128E+01  0.10813142246E+02  0.24044445532E+02  0.00000000000E+00 0.  1.
</event>
<event>
 7    1  0.2294216E-010  0.4778727E+02  0.7816164E-02  0.1312668E+00
        -11   -1    0    0    0    0  0.00000000000E+00  0.00000000000E+00  0.45593999997E+02  0.45594000000E+02  0.51100000000E-03 0.  1.
         11   -1    0    0    0    0 -0.00000000000E+00 -0.00000000000E+00 -0.45593999997E+02  0.45594000000E+02  0.51100000000E-03 0. -1.
    9900012    2    1    2    0    0 -0.39290576732E+02 -0.59134498420E+01 -0.17461526708E+02  0.47787271619E+02  0.20000002621E+02 0.  0.
        -12    1    1    2    0    0  0.39290576732E+02  0.59134498420E+01  0.17461526708E+02  0.43400728381E+02  0.00000000000E+00 0.  1.
         11    1    3    3    0    0 -0.16496069696E+01 -0.23439309739E+01 -0.48070944872E+01  0.55967287976E+01  0.51100000000E-03 0. -1.
        -11    1    3    3    0    0 -0.55368391018E+01  0.24348957392E+01 -0.66375980138E+01  0.89801454417E+01  0.51100000000E-03 0.  1.
         12    1    3    3    0    0 -0.32104130661E+02 -0.60044146074E+01 -0.60168342072E+01  0.33210397380E+02  0.00000000000E+00 0. -1.
</event>
<event>
 7    1  0.2294216E-010  0.4778727E+02  0.7816164E-02  0.1312668E+00
        -11   -1    0    0    0    0  0.00000000000E+00  0.00000000000E+00  0.45593999997E+02  0.45594000000E+02  0.51100000000E-03 0.  1.
         11   -1    0    0    0    0 -0.00000000000E+00 -0.00000000000E+00 -0.45593999997E+02  0.45594000000E+02  0.51100000000E-03 0. -1.
    9900012    2    1    2    0    0  0.32382123954E+01  0.33604877613E+02 -0.27273603976E+02  0.47787270827E+02  0.19999999009E+02 0.  0.
        -12    1    1    2    0    0 -0.32382123954E+01 -0.33604877613E+02  0.27273603976E+02  0.43400729173E+02  0.00000000000E+00 0.  1.
         11    1    3    3    0    0 -0.53107465265E+00 -0.85073976592E+00  0.75231512868E+00  0.12537052086E+01  0.51100000000E-03 0. -1.
        -11    1    3    3    0    0  0.27392227833E+01  0.89409195172E+01 -0.10850180628E+01  0.94138540315E+01  0.51100000000E-03 0.  1.
         12    1    3    3    0    0  0.10300642647E+01  0.25514697862E+02 -0.26940901042E+02  0.37119711587E+02  0.00000000000E+00 0. -1.
</event>
<event>
 7    1  0.2294216E-010  0.4778729E+02  0.7816164E-02  0.1312668E+00
        -11   -1    0    0    0    0  0.00000000000E+00  0.00000000000E+00  0.45593999997E+02  0.45594000000E+02  0.51100000000E-03 0. -1.
         11   -1    0    0    0    0 -0.00000000000E+00 -0.00000000000E+00 -0.45593999997E+02  0.45594000000E+02  0.51100000000E-03 0.  1.
    9900012    2    1    2    0    0 -0.15821494811E+02 -0.22210467393E+02  0.33763838030E+02  0.47787293573E+02  0.20000102714E+02 0.  0.
        -12    1    1    2    0    0  0.15821494811E+02  0.22210467393E+02 -0.33763838030E+02  0.43400706427E+02  0.00000000000E+00 0.  1.
         11    1    3    3    0    0 -0.73384268911E+01 -0.14682865611E+02  0.20029205853E+02  0.25896102779E+02  0.51100000000E-03 0. -1.
        -11    1    3    3    0    0  0.16251963814E+01 -0.64654852529E+01  0.37762695647E+01  0.76618519250E+01  0.51100000000E-03 0.  1.
         12    1    3    3    0    0 -0.10108264302E+02 -0.10621165290E+01  0.99583626124E+01  0.14229338868E+02  0.00000000000E+00 0. -1.
</event>
<event>
 7    1  0.2294216E-010  0.4778726E+02  0.7816164E-02  0.1312668E+00
        -11   -1    0    0    0    0  0.00000000000E+00  0.00000000000E+00  0.45593999997E+02  0.45594000000E+02  0.51100000000E-03 0.  1.
         11   -1    0    0    0    0 -0.00000000000E+00 -0.00000000000E+00 -0.45593999997E+02  0.45594000000E+02  0.51100000000E-03 0. -1.
    9900012    2    1    2    0    0  0.24359937509E+02  0.12557094048E+02 -0.33653181961E+02  0.47787264724E+02  0.19999971185E+02 0.  0.
        -12    1    1    2    0    0 -0.24359937509E+02 -0.12557094048E+02  0.33653181961E+02  0.43400735276E+02  0.00000000000E+00 0.  1.
         11    1    3    3    0    0  0.85641708441E+00  0.15114534234E+01 -0.58825145352E+01  0.61336709393E+01  0.51100000000E-03 0. -1.
        -11    1    3    3    0    0  0.23686220632E+01  0.94116985212E+01 -0.69191057713E+01  0.11919079850E+02  0.51100000000E-03 0.  1.
         12    1    3    3    0    0  0.21134898361E+02  0.16339421032E+01 -0.20851561655E+02  0.29734513935E+02  0.00000000000E+00 0. -1.
</event>
<event>
 7    1  0.2294216E-010  0.4778728E+02  0.7816164E-02  0.1312668E+00
        -11   -1    0    0    0    0  0.00000000000E+00  0.00000000000E+00  0.45593999997E+02  0.45594000000E+02  0.51100000000E-03 0.  1.
         11   -1    0    0    0    0 -0.00000000000E+00 -0.00000000000E+00 -0.45593999997E+02  0.45594000000E+02  0.51100000000E-03 0. -1.
    9900012    2    1    2    0    0  0.22545047546E+02 -0.30029645012E+02 -0.21761519623E+02  0.47787280136E+02  0.20000041454E+02 0.  0.
        -12    1    1    2    0    0 -0.22545047546E+02  0.30029645012E+02  0.21761519623E+02  0.43400719864E+02  0.00000000000E+00 0.  1.
         11    1    3    3    0    0  0.32681042120E+01 -0.10617812554E+02 -0.11572398837E+02  0.16041784928E+02  0.51100000000E-03 0. -1.
        -11    1    3    3    0    0  0.82941716716E+00  0.15882122429E+01 -0.18515270151E+01  0.25765293545E+01  0.51100000000E-03 0.  1.
         12    1    3    3    0    0  0.18447526166E+02 -0.21000044701E+02 -0.83375937709E+01  0.29168965854E+02  0.00000000000E+00 0. -1.
</event>
<event>
 7    1  0.2294216E-010  0.4778726E+02  0.7816164E-02  0.1312668E+00
        -11   -1    0    0    0    0  0.00000000000E+00  0.00000000000E+00  0.45593999997E+02  0.45594000000E+02  0.51100000000E-03 0. -1.
         11   -1    0    0    0    0 -0.00000000000E+00 -0.00000000000E+00 -0.45593999997E+02  0.45594000000E+02  0.51100000000E-03 0.  1.
    9900012    2    1    2    0    0 -0.50952016199E+01  0.42370090807E+02  0.79017990310E+01  0.47787261498E+02  0.19999956476E+02 0.  0.
        -12    1    1    2    0    0  0.50952016199E+01 -0.42370090807E+02 -0.79017990310E+01  0.43400738502E+02  0.00000000000E+00 0.  1.
         11    1    3    3    0    0  0.19666285866E+01  0.47123471613E+01  0.80895741959E+00  0.51699377302E+01  0.51100000000E-03 0. -1.
        -11    1    3    3    0    0 -0.73328082942E+01  0.28094455100E+02 -0.24065152411E+01  0.29135198656E+02  0.51100000000E-03 0.  1.
        -12    1    3    3    0    0  0.27097808765E+00  0.95632885456E+01  0.94993568525E+01  0.13482125112E+02  0.00000000000E+00 0.  1.
</event>
<event>
 7    1  0.2294216E-010  0.4778727E+02  0.7816164E-02  0.1312668E+00
        -11   -1    0    0    0    0  0.00000000000E+00  0.00000000000E+00  0.45593999997E+02  0.45594000000E+02  0.51100000000E-03 0. -1.
         11   -1    0    0    0    0 -0.00000000000E+00 -0.00000000000E+00 -0.45593999997E+02  0.45594000000E+02  0.51100000000E-03 0.  1.
    9900012    2    1    2    0    0  0.40673586959E+02  0.15141573716E+02 -0.12323244528E+00  0.47787272852E+02  0.20000008243E+02 0.  0.
        -12    1    1    2    0    0 -0.40673586959E+02 -0.15141573716E+02  0.12323244528E+00  0.43400727148E+02  0.00000000000E+00 0.  1.
         11    1    3    3    0    0  0.11870864092E+02  0.73202025192E+01  0.39511356086E+01  0.14495318281E+02  0.51100000000E-03 0. -1.
        -11    1    3    3    0    0  0.26365843910E+02  0.57877156498E+01  0.13279264561E+01  0.27026260682E+02  0.51100000000E-03 0.  1.
        -12    1    3    3    0    0  0.24368789564E+01  0.20336555472E+01 -0.54022945100E+01  0.62656938886E+01  0.00000000000E+00 0.  1.
</event>
<event>
 7    1  0.2294216E-010  0.4778727E+02  0.7816164E-02  0.1312668E+00
        -11   -1    0    0    0    0  0.00000000000E+00  0.00000000000E+00  0.45593999997E+02  0.45594000000E+02  0.51100000000E-03 0.  1.
         11   -1    0    0    0    0 -0.00000000000E+00 -0.00000000000E+00 -0.45593999997E+02  0.45594000000E+02  0.51100000000E-03 0. -1.
    9900012    2    1    2    0    0 -0.19094631280E+02 -0.17405834250E+01 -0.38935700393E+02  0.47787270288E+02  0.19999996553E+02 0.  0.
        -12    1    1    2    0    0  0.19094631280E+02  0.17405834250E+01  0.38935700393E+02  0.43400729712E+02  0.00000000000E+00 0.  1.
         11    1    3    3    0    0 -0.27773016979E+01 -0.52739373782E+01 -0.11403451332E+02  0.12867265550E+02  0.51100000000E-03 0. -1.
        -11    1    3    3    0    0  0.92890383609E-01  0.30439506439E+01 -0.22014307777E+00  0.30533141636E+01  0.51100000000E-03 0.  1.
         12    1    3    3    0    0 -0.16410219966E+02  0.48940330929E+00 -0.27312105983E+02  0.31866690574E+02  0.00000000000E+00 0. -1.
</event>
<event>
 7    1  0.2294216E-010  0.4778727E+02  0.7816164E-02  0.1312668E+00
        -11   -1    0    0    0    0  0.00000000000E+00  0.00000000000E+00  0.45593999997E+02  0.45594000000E+02  0.51100000000E-03 0.  1.
         11   -1    0    0    0    0 -0.00000000000E+00 -0.00000000000E+00 -0.45593999997E+02  0.45594000000E+02  0.51100000000E-03 0. -1.
    9900012    2    1    2    0    0 -0.36068882393E+02  0.12246102099E+02 -0.20801252608E+02  0.47787269548E+02  0.19999993178E+02 0.  0.
        -12    1    1    2    0    0  0.36068882393E+02 -0.12246102099E+02  0.20801252608E+02  0.43400730452E+02  0.00000000000E+00 0.  1.
         11    1    3    3    0    0 -0.12140401232E+02  0.30551362934E+01 -0.12191992072E+02  0.17474778133E+02  0.51100000000E-03 0. -1.
        -11    1    3    3    0    0 -0.36250368220E+01 -0.26746989441E+01 -0.46331333340E+01  0.64622620772E+01  0.51100000000E-03 0.  1.
        -12    1    3    3    0    0 -0.20303444339E+02  0.11865664750E+02 -0.39761272022E+01  0.23850229338E+02  0.00000000000E+00 0.  1.
</event>
<event>
 7    1  0.2294216E-010  0.4778727E+02  0.7816164E-02  0.1312668E+00
        -11   -1    0    0    0    0  0.00000000000E+00  0.00000000000E+00  0.45593999997E+02  0.45594000000E+02  0.51100000000E-03 0.  1.
         11   -1    0    0    0    0 -0.00000000000E+00 -0.00000000000E+00 -0.45593999997E+02  0.45594000000E+02  0.51100000000E-03 0. -1.
    9900012    2    1    2    0    0  0.28274046436E+01 -0.42463728447E+02 -0.85123921967E+01  0.47787271071E+02  0.20000000121E+02 0.  0.
        -12    1    1    2    0    0 -0.28274046436E+01  0.42463728447E+02  0.85123921967E+01  0.43400728929E+02  0.00000000000E+00 0.  1.
         11    1    3    3    0    0 -0.64381285369E+00 -0.11710563984E+02  0.53664282496E+01  0.12897688019E+02  0.51100000000E-03 0. -1.
        -11    1    3    3    0    0 -0.13257232272E+01 -0.14855018594E+01 -0.23233963734E+01  0.30598086245E+01  0.51100000000E-03 0.  1.
         12    1    3    3    0    0  0.47969407245E+01 -0.29267662604E+02 -0.11555424073E+02  0.31829774428E+02  0.00000000000E+00 0. -1.
</event>
<event>
 7    1  0.2294216E-010  0.4778727E+02  0.7816164E-02  0.1312668E+00
        -11   -1    0    0    0    0  0.00000000000E+00  0.00000000000E+00  0.45593999997E+02  0.45594000000E+02  0.51100000000E-03 0.  1.
         11   -1    0    0    0    0 -0.00000000000E+00 -0.00000000000E+00 -0.45593999997E+02  0.45594000000E+02  0.51100000000E-03 0. -1.
    9900012    2    1    2    0    0 -0.94070716586E+01 -0.66410522943E+01 -0.41845271241E+02  0.47787270767E+02  0.19999998733E+02 0.  0.
        -12    1    1    2    0    0  0.94070716586E+01  0.66410522943E+01  0.41845271241E+02  0.43400729233E+02  0.00000000000E+00 0.  1.
         11    1    3    3    0    0  0.29786483353E+01 -0.79786791226E+01 -0.16442227976E+02  0.18516979439E+02  0.51100000000E-03 0. -1.
        -11    1    3    3    0    0  0.83101099913E-01  0.18850486297E+01 -0.20155477586E+01  0.27609322986E+01  0.51100000000E-03 0.  1.
         12    1    3    3    0    0 -0.12468821094E+02 -0.54742180136E+00 -0.23387495506E+02  0.26509359029E+02  0.00000000000E+00 0. -1.
</event>
<event>
 7    1  0.2294216E-010  0.4778727E+02  0.7816164E-02  0.1312668E+00
        -11   -1    0    0    0    0  0.00000000000E+00  0.00000000000E+00  0.45593999997E+02  0.45594000000E+02  0.51100000000E-03 0. -1.
         11   -1    0    0    0    0 -0.00000000000E+00 -0.00000000000E+00 -0.45593999997E+02  0.45594000000E+02  0.51100000000E-03 0.  1.
    9900012    2    1    2    0    0  0.22870249220E+02 -0.36763526993E+02  0.30030385630E+01  0.47787268935E+02  0.19999990383E+02 0.  0.
        -12    1    1    2    0    0 -0.22870249220E+02  0.36763526993E+02 -0.30030385630E+01  0.43400731065E+02  0.00000000000E+00 0.  1.
         11    1    3    3    0    0  0.11805055909E+02 -0.87680652579E+01 -0.98549251090E-01  0.14705374038E+02  0.51100000000E-03 0. -1.
        -11    1    3    3    0    0  0.13370364757E+02 -0.17897148922E+02  0.26148586598E+00  0.22341507747E+02  0.51100000000E-03 0.  1.
        -12    1    3    3    0    0 -0.23051714462E+01 -0.10098312813E+02  0.28401019481E+01  0.10740387151E+02  0.00000000000E+00 0.  1.
</event>
<event>
 7    1  0.2294216E-010  0.4778727E+02  0.7816164E-02  0.1312668E+00
        -11   -1    0    0    0    0  0.00000000000E+00  0.00000000000E+00  0.45593999997E+02  0.45594000000E+02  0.51100000000E-03 0.  1.
         11   -1    0    0    0    0 -0.00000000000E+00 -0.00000000000E+00 -0.45593999997E+02  0.45594000000E+02  0.51100000000E-03 0. -1.
    9900012    2    1    2    0    0  0.27769790635E+01 -0.24043784893E+02 -0.36025103681E+02  0.47787270745E+02  0.19999998633E+02 0.  0.
        -12    1    1    2    0    0 -0.27769790635E+01  0.24043784893E+02  0.36025103681E+02  0.43400729255E+02  0.00000000000E+00 0.  1.
         11    1    3    3    0    0  0.14170509734E+01 -0.64930856440E+01 -0.38229550593E+01  0.76670189962E+01  0.51100000000E-03 0. -1.
        -11    1    3    3    0    0 -0.63284493659E+01 -0.14044074144E+02 -0.22292212176E+02  0.27096642115E+02  0.51100000000E-03 0.  1.
        -12    1    3    3    0    0  0.76883774559E+01 -0.35066251044E+01 -0.99099364456E+01  0.13023609633E+02  0.00000000000E+00 0.  1.
</event>
<event>
 7    1  0.2294216E-010  0.4778727E+02  0.7816164E-02  0.1312668E+00
        -11   -1    0    0    0    0  0.00000000000E+00  0.00000000000E+00  0.45593999997E+02  0.45594000000E+02  0.51100000000E-03 0.  1.
         11   -1    0    0    0    0 -0.00000000000E+00 -0.00000000000E+00 -0.45593999997E+02  0.45594000000E+02  0.51100000000E-03 0. -1.
    9900012    2    1    2    0    0 -0.39179107490E+02  0.10241524709E+02 -0.15611920186E+02  0.47787270237E+02  0.19999996317E+02 0.  0.
        -12    1    1    2    0    0  0.39179107490E+02 -0.10241524709E+02  0.15611920186E+02  0.43400729763E+02  0.00000000000E+00 0.  1.
         11    1    3    3    0    0 -0.13592591510E+02  0.36882808645E+01 -0.71071375767E+01  0.15775720728E+02  0.51100000000E-03 0. -1.
        -11    1    3    3    0    0 -0.51178807797E+01  0.46751663677E+01 -0.91108107813E+01  0.11448002341E+02  0.51100000000E-03 0.  1.
         12    1    3    3    0    0 -0.20468635200E+02  0.18780774771E+01  0.60602817172E+00  0.20563547168E+02  0.00000000000E+00 0. -1.
</event>
<event>
 7    1  0.2294216E-010  0.4778728E+02  0.7816164E-02  0.1312668E+00
        -11   -1    0    0    0    0  0.00000000000E+00  0.00000000000E+00  0.45593999997E+02  0.45594000000E+02  0.51100000000E-03 0.  1.
         11   -1    0    0    0    0 -0.00000000000E+00 -0.00000000000E+00 -0.45593999997E+02  0.45594000000E+02  0.51100000000E-03 0. -1.
    9900012    2    1    2    0    0 -0.79230669926E+01  0.14915442188E+02 -0.39979708352E+02  0.47787280120E+02  0.20000041378E+02 0.  0.
        -12    1    1    2    0    0  0.79230669926E+01 -0.14915442188E+02  0.39979708352E+02  0.43400719880E+02  0.00000000000E+00 0.  1.
         11    1    3    3    0    0 -0.82600025469E+00 -0.10551585079E+01  0.31975403492E+00  0.13776352207E+01  0.51100000000E-03 0.  1.
        -11    1    3    3    0    0 -0.75240794735E+01  0.83172805153E+01 -0.95856133689E+01  0.14753742271E+02  0.51100000000E-03 0. -1.
         12    1    3    3    0    0  0.42701273559E+00  0.76533201802E+01 -0.30713849018E+02  0.31655902627E+02  0.00000000000E+00 0. -1.
</event>
<event>
 7    1  0.2294216E-010  0.4778727E+02  0.7816164E-02  0.1312668E+00
        -11   -1    0    0    0    0  0.00000000000E+00  0.00000000000E+00  0.45593999997E+02  0.45594000000E+02  0.51100000000E-03 0.  1.
         11   -1    0    0    0    0 -0.00000000000E+00 -0.00000000000E+00 -0.45593999997E+02  0.45594000000E+02  0.51100000000E-03 0. -1.
    9900012    2    1    2    0    0 -0.35681818024E+01  0.33629742793E+02 -0.27201682612E+02  0.47787273524E+02  0.20000011306E+02 0.  0.
        -12    1    1    2    0    0  0.35681818024E+01 -0.33629742793E+02  0.27201682612E+02  0.43400726476E+02  0.00000000000E+00 0.  1.
         11    1    3    3    0    0  0.34032225019E+01  0.26190240782E+01 -0.40027782521E+01  0.58705574281E+01  0.51100000000E-03 0. -1.
        -11    1    3    3    0    0  0.42924406858E+01  0.51550783305E+01 -0.43458891955E+01  0.79929114093E+01  0.51100000000E-03 0.  1.
         12    1    3    3    0    0 -0.11263844990E+02  0.25855640385E+02 -0.18853015164E+02  0.33923804687E+02  0.00000000000E+00 0. -1.
</event>
<event>
 7    1  0.2294216E-010  0.4778727E+02  0.7816164E-02  0.1312668E+00
        -11   -1    0    0    0    0  0.00000000000E+00  0.00000000000E+00  0.45593999997E+02  0.45594000000E+02  0.51100000000E-03 0.  1.
         11   -1    0    0    0    0 -0.00000000000E+00 -0.00000000000E+00 -0.45593999997E+02  0.45594000000E+02  0.51100000000E-03 0. -1.
    9900012    2    1    2    0    0 -0.26505670973E+02  0.13769070831E+02 -0.31487858761E+02  0.47787272418E+02  0.20000006263E+02 0.  0.
        -12    1    1    2    0    0  0.26505670973E+02 -0.13769070831E+02  0.31487858761E+02  0.43400727582E+02  0.00000000000E+00 0.  1.
         11    1    3    3    0    0 -0.22630608027E+02  0.80071095541E+01 -0.20465254594E+02  0.31544965826E+02  0.51100000000E-03 0. -1.
        -11    1    3    3    0    0 -0.50272007813E+01  0.64464542754E+01 -0.12044668889E+02  0.14556907959E+02  0.51100000000E-03 0.  1.
        -12    1    3    3    0    0  0.11521378351E+01 -0.68449299851E+00  0.10220647222E+01  0.16853986331E+01  0.00000000000E+00 0.  1.
</event>
<event>
 7    1  0.2294216E-010  0.4778728E+02  0.7816164E-02  0.1312668E+00
        -11   -1    0    0    0    0  0.00000000000E+00  0.00000000000E+00  0.45593999997E+02  0.45594000000E+02  0.51100000000E-03 0. -1.
         11   -1    0    0    0    0 -0.00000000000E+00 -0.00000000000E+00 -0.45593999997E+02  0.45594000000E+02  0.51100000000E-03 0.  1.
    9900012    2    1    2    0    0 -0.10187221450E+02  0.39425409011E+02  0.15015984427E+02  0.47787284051E+02  0.20000059302E+02 0.  0.
        -12    1    1    2    0    0  0.10187221450E+02 -0.39425409011E+02 -0.15015984427E+02  0.43400715949E+02  0.00000000000E+00 0.  1.
         11    1    3    3    0    0 -0.48904666497E+01  0.10425716475E+01  0.23267337196E+01  0.55151890045E+01  0.51100000000E-03 0. -1.
        -11    1    3    3    0    0  0.68269588610E+00  0.89483489620E+00  0.28376815169E+01  0.30527429988E+01  0.51100000000E-03 0.  1.
         12    1    3    3    0    0 -0.59794506867E+01  0.37488002468E+02  0.98515691903E+01  0.39219352048E+02  0.00000000000E+00 0. -1.
</event>
<event>
 7    1  0.2294216E-010  0.4778731E+02  0.7816164E-02  0.1312668E+00
        -11   -1    0    0    0    0  0.00000000000E+00  0.00000000000E+00  0.45593999997E+02  0.45594000000E+02  0.51100000000E-03 0. -1.
         11   -1    0    0    0    0 -0.00000000000E+00 -0.00000000000E+00 -0.45593999997E+02  0.45594000000E+02  0.51100000000E-03 0.  1.
    9900012    2    1    2    0    0 -0.42632005102E+02  0.77610611102E+01 -0.24284846402E+01  0.47787314910E+02  0.20000200002E+02 0.  0.
        -12    1    1    2    0    0  0.42632005102E+02 -0.77610611102E+01  0.24284846402E+01  0.43400685090E+02  0.00000000000E+00 0.  1.
         11    1    3    3    0    0  0.79779441307E+00  0.14258583529E+01  0.11648375907E+01  0.20065878605E+01  0.51100000000E-03 0. -1.
        -11    1    3    3    0    0  0.21812908598E-01 -0.66016925009E+00  0.13400304443E+01  0.14939816246E+01  0.51100000000E-03 0.  1.
        -12    1    3    3    0    0 -0.43451612424E+02  0.69953720075E+01 -0.49333526752E+01  0.44286745425E+02  0.00000000000E+00 0.  1.
</event>
<event>
 7    1  0.2294216E-010  0.4778727E+02  0.7816164E-02  0.1312668E+00
        -11   -1    0    0    0    0  0.00000000000E+00  0.00000000000E+00  0.45593999997E+02  0.45594000000E+02  0.51100000000E-03 0.  1.
         11   -1    0    0    0    0 -0.00000000000E+00 -0.00000000000E+00 -0.45593999997E+02  0.45594000000E+02  0.51100000000E-03 0. -1.
    9900012    2    1    2    0    0 -0.22189833496E+02  0.27311064653E+02 -0.25403547615E+02  0.47787271959E+02  0.20000004170E+02 0.  0.
        -12    1    1    2    0    0  0.22189833496E+02 -0.27311064653E+02  0.25403547615E+02  0.43400728041E+02  0.00000000000E+00 0.  1.
         11    1    3    3    0    0 -0.59348717986E+01  0.21354174240E+02 -0.12205831018E+02  0.25302287878E+02  0.51100000000E-03 0. -1.
        -11    1    3    3    0    0 -0.97729867660E+00  0.17295431918E+01 -0.31273030831E+01  0.37049233717E+01  0.51100000000E-03 0.  1.
         12    1    3    3    0    0 -0.15277663021E+02  0.42273472209E+01 -0.10070413514E+02  0.18780060709E+02  0.00000000000E+00 0. -1.
</event>
<event>
 7    1  0.2294216E-010  0.4778727E+02  0.7816164E-02  0.1312668E+00
        -11   -1    0    0    0    0  0.00000000000E+00  0.00000000000E+00  0.45593999997E+02  0.45594000000E+02  0.51100000000E-03 0.  1.
         11   -1    0    0    0    0 -0.00000000000E+00 -0.00000000000E+00 -0.45593999997E+02  0.45594000000E+02  0.51100000000E-03 0. -1.
    9900012    2    1    2    0    0  0.16881280976E+02 -0.35524233925E+02 -0.18348691235E+02  0.47787270590E+02  0.19999997927E+02 0.  0.
        -12    1    1    2    0    0 -0.16881280976E+02  0.35524233925E+02  0.18348691235E+02  0.43400729410E+02  0.00000000000E+00 0.  1.
         11    1    3    3    0    0  0.12915718035E+02 -0.96468478258E+01 -0.40383046691E+01  0.16618825175E+02  0.51100000000E-03 0. -1.
        -11    1    3    3    0    0  0.17275123150E+01 -0.39550119091E+01 -0.64730930242E+01  0.77799326193E+01  0.51100000000E-03 0.  1.
        -12    1    3    3    0    0  0.22380506254E+01 -0.21922374190E+02 -0.78372935418E+01  0.23388512795E+02  0.00000000000E+00 0.  1.
</event>
<event>
 7    1  0.2294216E-010  0.4778728E+02  0.7816164E-02  0.1312668E+00
        -11   -1    0    0    0    0  0.00000000000E+00  0.00000000000E+00  0.45593999997E+02  0.45594000000E+02  0.51100000000E-03 0. -1.
         11   -1    0    0    0    0 -0.00000000000E+00 -0.00000000000E+00 -0.45593999997E+02  0.45594000000E+02  0.51100000000E-03 0.  1.
    9900012    2    1    2    0    0  0.66926182853E+01  0.70444544755E+01  0.42299022535E+02  0.47787276667E+02  0.20000025637E+02 0.  0.
        -12    1    1    2    0    0 -0.66926182853E+01 -0.70444544755E+01 -0.42299022535E+02  0.43400723333E+02  0.00000000000E+00 0.  1.
         11    1    3    3    0    0 -0.13398159266E+01  0.98271431011E+00  0.73186628384E+00  0.18156163282E+01  0.51100000000E-03 0. -1.
        -11    1    3    3    0    0  0.29806396405E+01 -0.17226681842E+01  0.63545585187E-01  0.34432305531E+01  0.51100000000E-03 0.  1.
         12    1    3    3    0    0  0.50517945715E+01  0.77844083496E+01  0.41503610666E+02  0.42528429786E+02  0.00000000000E+00 0. -1.
</event>
<event>
 7    1  0.2294216E-010  0.4778727E+02  0.7816164E-02  0.1312668E+00
        -11   -1    0    0    0    0  0.00000000000E+00  0.00000000000E+00  0.45593999997E+02  0.45594000000E+02  0.51100000000E-03 0. -1.
         11   -1    0    0    0    0 -0.00000000000E+00 -0.00000000000E+00 -0.45593999997E+02  0.45594000000E+02  0.51100000000E-03 0.  1.
    9900012    2    1    2    0    0 -0.19781867912E+02 -0.38629277474E+02  0.28266549271E+00  0.47787271019E+02  0.19999999884E+02 0.  0.
        -12    1    1    2    0    0  0.19781867912E+02  0.38629277474E+02 -0.28266549271E+00  0.43400728981E+02  0.00000000000E+00 0.  1.
         11    1    3    3    0    0 -0.27459088546E+01  0.49747417761E+00  0.13766043530E+01  0.31116773292E+01  0.51100000000E-03 0.  1.
        -11    1    3    3    0    0 -0.34330628173E+01 -0.23234524298E+01  0.31550238008E+01  0.52094651305E+01  0.51100000000E-03 0. -1.
         12    1    3    3    0    0 -0.13602896241E+02 -0.36803299222E+02 -0.42489626611E+01  0.39466128559E+02  0.00000000000E+00 0. -1.
</event>
<event>
 7    1  0.2294216E-010  0.4778727E+02  0.7816164E-02  0.1312668E+00
        -11   -1    0    0    0    0  0.00000000000E+00  0.00000000000E+00  0.45593999997E+02  0.45594000000E+02  0.51100000000E-03 0. -1.
         11   -1    0    0    0    0 -0.00000000000E+00 -0.00000000000E+00 -0.45593999997E+02  0.45594000000E+02  0.51100000000E-03 0.  1.
    9900012    2    1    2    0    0 -0.23402671763E+02 -0.30064726959E+02  0.20785820948E+02  0.47787271835E+02  0.20000003603E+02 0.  0.
        -12    1    1    2    0    0  0.23402671763E+02  0.30064726959E+02 -0.20785820948E+02  0.43400728165E+02  0.00000000000E+00 0.  1.
         11    1    3    3    0    0 -0.49929724883E+01 -0.86503464725E+01  0.10666830154E+02  0.14612991964E+02  0.51100000000E-03 0. -1.
        -11    1    3    3    0    0 -0.15500558750E+02 -0.18480571362E+02  0.13671298393E+02  0.27725498002E+02  0.51100000000E-03 0.  1.
        -12    1    3    3    0    0 -0.29091405250E+01 -0.29338091249E+01 -0.35523075989E+01  0.54487818687E+01  0.00000000000E+00 0.  1.
</event>
<event>
 7    1  0.2294216E-010  0.4778727E+02  0.7816164E-02  0.1312668E+00
        -11   -1    0    0    0    0  0.00000000000E+00  0.00000000000E+00  0.45593999997E+02  0.45594000000E+02  0.51100000000E-03 0. -1.
         11   -1    0    0    0    0 -0.00000000000E+00 -0.00000000000E+00 -0.45593999997E+02  0.45594000000E+02  0.51100000000E-03 0.  1.
    9900012    2    1    2    0    0  0.10181375007E+01 -0.37651142716E+02 -0.21563356107E+02  0.47787268688E+02  0.19999989258E+02 0.  0.
        -12    1    1    2    0    0 -0.10181375007E+01  0.37651142716E+02  0.21563356107E+02  0.43400731312E+02  0.00000000000E+00 0.  1.
         11    1    3    3    0    0  0.82811451773E+01 -0.31323936842E+02 -0.17301859320E+02  0.36730378720E+02  0.51100000000E-03 0. -1.
        -11    1    3    3    0    0 -0.12170061152E+00  0.33945684465E+00  0.74803678383E-01  0.36829042839E+00  0.51100000000E-03 0.  1.
         12    1    3    3    0    0 -0.71413070651E+01 -0.66666627180E+01 -0.43363004660E+01  0.10688599540E+02  0.00000000000E+00 0. -1.
</event>
<event>
 7    1  0.2294216E-010  0.4778727E+02  0.7816164E-02  0.1312668E+00
        -11   -1    0    0    0    0  0.00000000000E+00  0.00000000000E+00  0.45593999997E+02  0.45594000000E+02  0.51100000000E-03 0.  1.
         11   -1    0    0    0    0 -0.00000000000E+00 -0.00000000000E+00 -0.45593999997E+02  0.45594000000E+02  0.51100000000E-03 0. -1.
    9900012    2    1    2    0    0 -0.34500515374E+02  0.18684902149E+02 -0.18552953860E+02  0.47787271592E+02  0.20000002497E+02 0.  0.
        -12    1    1    2    0    0  0.34500515374E+02 -0.18684902149E+02  0.18552953860E+02  0.43400728408E+02  0.00000000000E+00 0.  1.
         11    1    3    3    0    0 -0.93266508525E+01  0.91722426272E+01 -0.45697983395E+01  0.13856388709E+02  0.51100000000E-03 0. -1.
        -11    1    3    3    0    0 -0.20927598150E+02  0.98327737993E+01 -0.17011047737E+02  0.28705810393E+02  0.51100000000E-03 0.  1.
        -12    1    3    3    0    0 -0.42462663719E+01 -0.32011427766E+00  0.30278922169E+01  0.52250724903E+01  0.00000000000E+00 0.  1.
</event>
<event>
 7    1  0.2294216E-010  0.4778727E+02  0.7816164E-02  0.1312668E+00
        -11   -1    0    0    0    0  0.00000000000E+00  0.00000000000E+00  0.45593999997E+02  0.45594000000E+02  0.51100000000E-03 0. -1.
         11   -1    0    0    0    0 -0.00000000000E+00 -0.00000000000E+00 -0.45593999997E+02  0.45594000000E+02  0.51100000000E-03 0.  1.
    9900012    2    1    2    0    0 -0.31601468092E+02  0.27837124917E+02  0.10491180346E+02  0.47787272192E+02  0.20000005231E+02 0.  0.
        -12    1    1    2    0    0  0.31601468092E+02 -0.27837124917E+02 -0.10491180346E+02  0.43400727808E+02  0.00000000000E+00 0.  1.
         11    1    3    3    0    0 -0.89680141817E+01  0.11202967994E+02  0.65573727489E+01  0.15777544418E+02  0.51100000000E-03 0. -1.
        -11    1    3    3    0    0 -0.62993518042E+01  0.65373196311E+01  0.83178549502E+01  0.12312801970E+02  0.51100000000E-03 0.  1.
        -12    1    3    3    0    0 -0.16334102106E+02  0.10096837293E+02 -0.43840473532E+01  0.19696925804E+02  0.00000000000E+00 0.  1.
</event>
<event>
 7    1  0.2294216E-010  0.4778726E+02  0.7816164E-02  0.1312668E+00
        -11   -1    0    0    0    0  0.00000000000E+00  0.00000000000E+00  0.45593999997E+02  0.45594000000E+02  0.51100000000E-03 0.  1.
         11   -1    0    0    0    0 -0.00000000000E+00 -0.00000000000E+00 -0.45593999997E+02  0.45594000000E+02  0.51100000000E-03 0. -1.
    9900012    2    1    2    0    0  0.19144069235E+02 -0.20308230351E+01 -0.38897354918E+02  0.47787264423E+02  0.19999969809E+02 0.  0.
        -12    1    1    2    0    0 -0.19144069235E+02  0.20308230351E+01  0.38897354918E+02  0.43400735577E+02  0.00000000000E+00 0.  1.
         11    1    3    3    0    0  0.13078046816E+02 -0.10497111526E+01 -0.19790716685E+02  0.23744676650E+02  0.51100000000E-03 0. -1.
        -11    1    3    3    0    0 -0.36024830790E+01  0.24235526129E+01 -0.58504689586E+01  0.72855664775E+01  0.51100000000E-03 0.  1.
        -12    1    3    3    0    0  0.96685054973E+01 -0.34046644954E+01 -0.13256169274E+02  0.16757021296E+02  0.00000000000E+00 0.  1.
</event>
<event>
 7    1  0.2294216E-010  0.4778726E+02  0.7816164E-02  0.1312668E+00
        -11   -1    0    0    0    0  0.00000000000E+00  0.00000000000E+00  0.45593999997E+02  0.45594000000E+02  0.51100000000E-03 0.  1.
         11   -1    0    0    0    0 -0.00000000000E+00 -0.00000000000E+00 -0.45593999997E+02  0.45594000000E+02  0.51100000000E-03 0. -1.
    9900012    2    1    2    0    0  0.42838755778E+02  0.92588346572E+00  0.68998475056E+01  0.47787260923E+02  0.19999953854E+02 0.  0.
        -12    1    1    2    0    0 -0.42838755778E+02 -0.92588346572E+00 -0.68998475056E+01  0.43400739077E+02  0.00000000000E+00 0.  1.
         11    1    3    3    0    0  0.31420432806E+01  0.35252503428E+00  0.33320650139E+01  0.45934047715E+01  0.51100000000E-03 0.  1.
        -11    1    3    3    0    0  0.87742573269E+01 -0.61860910847E+01  0.42179084174E+01  0.11534559646E+02  0.51100000000E-03 0. -1.
         12    1    3    3    0    0  0.30922455170E+02  0.67594495161E+01 -0.65012592563E+00  0.31659296506E+02  0.00000000000E+00 0. -1.
</event>
<event>
 7    1  0.2294216E-010  0.4778727E+02  0.7816164E-02  0.1312668E+00
        -11   -1    0    0    0    0  0.00000000000E+00  0.00000000000E+00  0.45593999997E+02  0.45594000000E+02  0.51100000000E-03 0.  1.
         11   -1    0    0    0    0 -0.00000000000E+00 -0.00000000000E+00 -0.45593999997E+02  0.45594000000E+02  0.51100000000E-03 0. -1.
    9900012    2    1    2    0    0  0.16767528905E+02 -0.52269969514E+01 -0.39688182193E+02  0.47787270415E+02  0.19999997132E+02 0.  0.
        -12    1    1    2    0    0 -0.16767528905E+02  0.52269969514E+01  0.39688182193E+02  0.43400729585E+02  0.00000000000E+00 0.  1.
         11    1    3    3    0    0  0.17369294841E+02  0.22181207653E+01 -0.30019990952E+02  0.34753594347E+02  0.51100000000E-03 0. -1.
        -11    1    3    3    0    0 -0.88922605781E+00  0.21430698721E-01 -0.26009439706E+01  0.27488346724E+01  0.51100000000E-03 0.  1.
         12    1    3    3    0    0  0.28746012126E+00 -0.74665484154E+01 -0.70672472705E+01  0.10284841396E+02  0.00000000000E+00 0. -1.
</event>
<event>
 7    1  0.2294216E-010  0.4778727E+02  0.7816164E-02  0.1312668E+00
        -11   -1    0    0    0    0  0.00000000000E+00  0.00000000000E+00  0.45593999997E+02  0.45594000000E+02  0.51100000000E-03 0. -1.
         11   -1    0    0    0    0 -0.00000000000E+00 -0.00000000000E+00 -0.45593999997E+02  0.45594000000E+02  0.51100000000E-03 0.  1.
    9900012    2    1    2    0    0  0.26690934449E+02 -0.31853704887E+02  0.12512339767E+02  0.47787272549E+02  0.20000006862E+02 0.  0.
        -12    1    1    2    0    0 -0.26690934449E+02  0.31853704887E+02 -0.12512339767E+02  0.43400727451E+02  0.00000000000E+00 0.  1.
         11    1    3    3    0    0  0.19049173901E+02 -0.18161501751E+02  0.72353723397E+01  0.27295819924E+02  0.51100000000E-03 0. -1.
        -11    1    3    3    0    0  0.98339808909E+01 -0.13298693285E+02  0.67034661853E+01  0.17846536986E+02  0.51100000000E-03 0.  1.
        -12    1    3    3    0    0 -0.21922203426E+01 -0.39350985159E+00 -0.14264987581E+01  0.26449156396E+01  0.00000000000E+00 0.  1.
</event>
<event>
 7    1  0.2294216E-010  0.4778727E+02  0.7816164E-02  0.1312668E+00
        -11   -1    0    0    0    0  0.00000000000E+00  0.00000000000E+00  0.45593999997E+02  0.45594000000E+02  0.51100000000E-03 0. -1.
         11   -1    0    0    0    0 -0.00000000000E+00 -0.00000000000E+00 -0.45593999997E+02  0.45594000000E+02  0.51100000000E-03 0.  1.
    9900012    2    1    2    0    0  0.19091505497E+02  0.38849182522E+02  0.31430394171E+01  0.47787271187E+02  0.20000000648E+02 0.  0.
        -12    1    1    2    0    0 -0.19091505497E+02 -0.38849182522E+02 -0.31430394171E+01  0.43400728813E+02  0.00000000000E+00 0.  1.
         11    1    3    3    0    0  0.20427007637E+00  0.81331244093E+01 -0.34168703837E+01  0.88240830912E+01  0.51100000000E-03 0. -1.
        -11    1    3    3    0    0  0.85553736766E+00 -0.11218479216E-01  0.30449447008E+01  0.31628718807E+01  0.51100000000E-03 0.  1.
         12    1    3    3    0    0  0.18031698053E+02  0.30727276592E+02  0.35149651000E+01  0.35800316215E+02  0.00000000000E+00 0. -1.
</event>
<event>
 7    1  0.2294216E-010  0.4778727E+02  0.7816164E-02  0.1312668E+00
        -11   -1    0    0    0    0  0.00000000000E+00  0.00000000000E+00  0.45593999997E+02  0.45594000000E+02  0.51100000000E-03 0.  1.
         11   -1    0    0    0    0 -0.00000000000E+00 -0.00000000000E+00 -0.45593999997E+02  0.45594000000E+02  0.51100000000E-03 0. -1.
    9900012    2    1    2    0    0  0.26491504626E+02 -0.22110618460E+02 -0.26323829169E+02  0.47787271341E+02  0.20000001352E+02 0.  0.
        -12    1    1    2    0    0 -0.26491504626E+02  0.22110618460E+02  0.26323829169E+02  0.43400728659E+02  0.00000000000E+00 0.  1.
         11    1    3    3    0    0  0.64862002938E+01 -0.76336592893E+01 -0.59882539497E+01  0.11670592702E+02  0.51100000000E-03 0. -1.
        -11    1    3    3    0    0  0.13848929774E+02 -0.46806843735E+01 -0.24610200666E+01  0.14824246426E+02  0.51100000000E-03 0.  1.
         12    1    3    3    0    0  0.61563745584E+01 -0.97962747969E+01 -0.17874555153E+02  0.21292432212E+02  0.00000000000E+00 0. -1.
</event>
<event>
 7    1  0.2294216E-010  0.4778728E+02  0.7816164E-02  0.1312668E+00
        -11   -1    0    0    0    0  0.00000000000E+00  0.00000000000E+00  0.45593999997E+02  0.45594000000E+02  0.51100000000E-03 0. -1.
         11   -1    0    0    0    0 -0.00000000000E+00 -0.00000000000E+00 -0.45593999997E+02  0.45594000000E+02  0.51100000000E-03 0.  1.
    9900012    2    1    2    0    0 -0.13819907725E+02 -0.10530260464E+02  0.39771177821E+02  0.47787276271E+02  0.20000023829E+02 0.  0.
        -12    1    1    2    0    0  0.13819907725E+02  0.10530260464E+02 -0.39771177821E+02  0.43400723729E+02  0.00000000000E+00 0.  1.
         11    1    3    3    0    0 -0.48929413072E+01 -0.46321380600E+01  0.85772517279E+01  0.10907191440E+02  0.51100000000E-03 0. -1.
        -11    1    3    3    0    0 -0.85154017511E+01 -0.81493877619E+01  0.97004231642E+01  0.15265084268E+02  0.51100000000E-03 0.  1.
        -12    1    3    3    0    0 -0.41156466635E+00  0.22512653583E+01  0.21493502929E+02  0.21615000563E+02  0.00000000000E+00 0.  1.
</event>
<event>
 7    1  0.2294216E-010  0.4778727E+02  0.7816164E-02  0.1312668E+00
        -11   -1    0    0    0    0  0.00000000000E+00  0.00000000000E+00  0.45593999997E+02  0.45594000000E+02  0.51100000000E-03 0.  1.
         11   -1    0    0    0    0 -0.00000000000E+00 -0.00000000000E+00 -0.45593999997E+02  0.45594000000E+02  0.51100000000E-03 0. -1.
    9900012    2    1    2    0    0  0.42721919708E+02 -0.61025385836E+01  0.46064665860E+01  0.47787274947E+02  0.20000017794E+02 0.  0.
        -12    1    1    2    0    0 -0.42721919708E+02  0.61025385836E+01 -0.46064665860E+01  0.43400725053E+02  0.00000000000E+00 0.  1.
         11    1    3    3    0    0  0.14770086456E+02 -0.71153248686E+01 -0.59679645779E+01  0.17447060020E+02  0.51100000000E-03 0.  1.
        -11    1    3    3    0    0  0.12551148018E+02 -0.29611356270E+00  0.21505930212E+01  0.12737505659E+02  0.51100000000E-03 0. -1.
        -12    1    3    3    0    0  0.15400685235E+02  0.13088998477E+01  0.84238381427E+01  0.17602709268E+02  0.00000000000E+00 0.  1.
</event>
<event>
 7    1  0.2294216E-010  0.4778729E+02  0.7816164E-02  0.1312668E+00
        -11   -1    0    0    0    0  0.00000000000E+00  0.00000000000E+00  0.45593999997E+02  0.45594000000E+02  0.51100000000E-03 0.  1.
         11   -1    0    0    0    0 -0.00000000000E+00 -0.00000000000E+00 -0.45593999997E+02  0.45594000000E+02  0.51100000000E-03 0. -1.
    9900012    2    1    2    0    0  0.33944263335E+02 -0.13816154571E+01 -0.27009256249E+02  0.47787288050E+02  0.20000077535E+02 0.  0.
        -12    1    1    2    0    0 -0.33944263335E+02  0.13816154571E+01  0.27009256249E+02  0.43400711950E+02  0.00000000000E+00 0.  1.
         11    1    3    3    0    0  0.21775933006E+02  0.32199977512E+00 -0.12937720417E+02  0.25331394592E+02  0.51100000000E-03 0. -1.
        -11    1    3    3    0    0  0.11829541670E+02 -0.37508736203E+01 -0.15559542344E+02  0.19902423653E+02  0.51100000000E-03 0.  1.
        -12    1    3    3    0    0  0.33878865870E+00  0.20472583881E+01  0.14880065121E+01  0.25534698046E+01  0.00000000000E+00 0.  1.
</event>
<event>
 7    1  0.2294216E-010  0.4778726E+02  0.7816164E-02  0.1312668E+00
        -11   -1    0    0    0    0  0.00000000000E+00  0.00000000000E+00  0.45593999997E+02  0.45594000000E+02  0.51100000000E-03 0. -1.
         11   -1    0    0    0    0 -0.00000000000E+00 -0.00000000000E+00 -0.45593999997E+02  0.45594000000E+02  0.51100000000E-03 0.  1.
    9900012    2    1    2    0    0 -0.20115369700E+02 -0.34333357691E+01  0.38304150235E+02  0.47787264777E+02  0.19999971423E+02 0.  0.
        -12    1    1    2    0    0  0.20115369700E+02  0.34333357691E+01 -0.38304150235E+02  0.43400735223E+02  0.00000000000E+00 0.  1.
         11    1    3    3    0    0  0.14602998366E+01 -0.47512643653E+01  0.10482821420E+02  0.11601574629E+02  0.51100000000E-03 0. -1.
        -11    1    3    3    0    0 -0.27863454504E+01  0.31581305375E+01  0.60059763538E+01  0.73354796492E+01  0.51100000000E-03 0.  1.
         12    1    3    3    0    0 -0.18789324086E+02 -0.18402019413E+01  0.21815352462E+02  0.28850210499E+02  0.00000000000E+00 0. -1.
</event>
<event>
 7    1  0.2294216E-010  0.4778727E+02  0.7816164E-02  0.1312668E+00
        -11   -1    0    0    0    0  0.00000000000E+00  0.00000000000E+00  0.45593999997E+02  0.45594000000E+02  0.51100000000E-03 0.  1.
         11   -1    0    0    0    0 -0.00000000000E+00 -0.00000000000E+00 -0.45593999997E+02  0.45594000000E+02  0.51100000000E-03 0. -1.
    9900012    2    1    2    0    0 -0.20594824350E+01  0.36229740555E+02 -0.23807300684E+02  0.47787272651E+02  0.20000007324E+02 0.  0.
        -12    1    1    2    0    0  0.20594824350E+01 -0.36229740555E+02  0.23807300684E+02  0.43400727349E+02  0.00000000000E+00 0.  1.
         11    1    3    3    0    0 -0.56784109041E+00 -0.41129308765E+00  0.54671256115E+00  0.88910089053E+00  0.51100000000E-03 0. -1.
        -11    1    3    3    0    0  0.31577923869E+01  0.40273700936E+01  0.11389164307E+01  0.52429470269E+01  0.51100000000E-03 0.  1.
         12    1    3    3    0    0 -0.46494337315E+01  0.32613663549E+02 -0.25492929676E+02  0.41655224733E+02  0.00000000000E+00 0. -1.
</event>
<event>
 7    1  0.2294216E-010  0.4778727E+02  0.7816164E-02  0.1312668E+00
        -11   -1    0    0    0    0  0.00000000000E+00  0.00000000000E+00  0.45593999997E+02  0.45594000000E+02  0.51100000000E-03 0.  1.
         11   -1    0    0    0    0 -0.00000000000E+00 -0.00000000000E+00 -0.45593999997E+02  0.45594000000E+02  0.51100000000E-03 0. -1.
    9900012    2    1    2    0    0  0.26252606408E+02  0.30812021301E+02 -0.15653872019E+02  0.47787266031E+02  0.19999977141E+02 0.  0.
        -12    1    1    2    0    0 -0.26252606408E+02 -0.30812021301E+02  0.15653872019E+02  0.43400733969E+02  0.00000000000E+00 0.  1.
         11    1    3    3    0    0  0.56976026955E+01  0.47502284480E+01 -0.18260537884E+01  0.76394907869E+01  0.51100000000E-03 0. -1.
        -11    1    3    3    0    0  0.67744276567E+01  0.54215316795E+01 -0.12601335939E+02  0.15299658282E+02  0.51100000000E-03 0.  1.
         12    1    3    3    0    0  0.13780576056E+02  0.20640261174E+02 -0.12264822912E+01  0.24848116962E+02  0.00000000000E+00 0. -1.
</event>
<event>
 7    1  0.2294216E-010  0.4778727E+02  0.7816164E-02  0.1312668E+00
        -11   -1    0    0    0    0  0.00000000000E+00  0.00000000000E+00  0.45593999997E+02  0.45594000000E+02  0.51100000000E-03 0.  1.
         11   -1    0    0    0    0 -0.00000000000E+00 -0.00000000000E+00 -0.45593999997E+02  0.45594000000E+02  0.51100000000E-03 0. -1.
    9900012    2    1    2    0    0 -0.35607025367E+02 -0.14674948970E+02 -0.20010220686E+02  0.47787270574E+02  0.19999997857E+02 0.  0.
        -12    1    1    2    0    0  0.35607025367E+02  0.14674948970E+02  0.20010220686E+02  0.43400729426E+02  0.00000000000E+00 0.  1.
         11    1    3    3    0    0 -0.13274563520E+02 -0.74613433184E+01 -0.72757157736E+01  0.16876662023E+02  0.51100000000E-03 0. -1.
        -11    1    3    3    0    0 -0.20194056175E+02 -0.11584602496E+02 -0.10103155395E+02  0.25378665627E+02  0.51100000000E-03 0.  1.
        -12    1    3    3    0    0 -0.21384056721E+01  0.43709968449E+01 -0.26313495175E+01  0.55319429245E+01  0.00000000000E+00 0.  1.
</event>
<event>
 7    1  0.2294216E-010  0.4778727E+02  0.7816164E-02  0.1312668E+00
        -11   -1    0    0    0    0  0.00000000000E+00  0.00000000000E+00  0.45593999997E+02  0.45594000000E+02  0.51100000000E-03 0.  1.
         11   -1    0    0    0    0 -0.00000000000E+00 -0.00000000000E+00 -0.45593999997E+02  0.45594000000E+02  0.51100000000E-03 0. -1.
    9900012    2    1    2    0    0 -0.33212674015E+02  0.27608127603E+02 -0.42816975716E+01  0.47787270063E+02  0.19999995525E+02 0.  0.
        -12    1    1    2    0    0  0.33212674015E+02 -0.27608127603E+02  0.42816975716E+01  0.43400729937E+02  0.00000000000E+00 0.  1.
         11    1    3    3    0    0 -0.11120187008E+01  0.17316415262E+01 -0.26089848711E+01  0.33229460250E+01  0.51100000000E-03 0. -1.
        -11    1    3    3    0    0 -0.38487659789E+01  0.86928098618E+01  0.49834781323E+01  0.10733731756E+02  0.51100000000E-03 0.  1.
         12    1    3    3    0    0 -0.28251889335E+02  0.17183676215E+02 -0.66561908328E+01  0.33730592282E+02  0.00000000000E+00 0. -1.
</event>
<event>
 7    1  0.2294216E-010  0.4778727E+02  0.7816164E-02  0.1312668E+00
        -11   -1    0    0    0    0  0.00000000000E+00  0.00000000000E+00  0.45593999997E+02  0.45594000000E+02  0.51100000000E-03 0.  1.
         11   -1    0    0    0    0 -0.00000000000E+00 -0.00000000000E+00 -0.45593999997E+02  0.45594000000E+02  0.51100000000E-03 0. -1.
    9900012    2    1    2    0    0 -0.16295935135E+02 -0.36263701307E+02 -0.17407166419E+02  0.47787274463E+02  0.20000015585E+02 0.  0.
        -12    1    1    2    0    0  0.16295935135E+02  0.36263701307E+02  0.17407166419E+02  0.43400725537E+02  0.00000000000E+00 0.  1.
         11    1    3    3    0    0 -0.11856199963E+02 -0.23386811885E+02 -0.14079399675E+02  0.29761417022E+02  0.51100000000E-03 0. -1.
        -11    1    3    3    0    0 -0.48582134526E-01 -0.13302795600E+02 -0.24015609648E+01  0.13517922411E+02  0.51100000000E-03 0.  1.
         12    1    3    3    0    0 -0.43911530384E+01  0.42590617817E+00 -0.92620577995E+00  0.45079350291E+01  0.00000000000E+00 0. -1.
</event>
<event>
 7    1  0.2294216E-010  0.4778727E+02  0.7816164E-02  0.1312668E+00
        -11   -1    0    0    0    0  0.00000000000E+00  0.00000000000E+00  0.45593999997E+02  0.45594000000E+02  0.51100000000E-03 0.  1.
         11   -1    0    0    0    0 -0.00000000000E+00 -0.00000000000E+00 -0.45593999997E+02  0.45594000000E+02  0.51100000000E-03 0. -1.
    9900012    2    1    2    0    0  0.40131889944E+01  0.25592789775E+02  0.34821357761E+02  0.47787268086E+02  0.19999986512E+02 0.  0.
        -12    1    1    2    0    0 -0.40131889944E+01 -0.25592789775E+02 -0.34821357761E+02  0.43400731914E+02  0.00000000000E+00 0.  1.
         11    1    3    3    0    0  0.16658472470E+01  0.13358112636E+02  0.10547163249E+02  0.17101370504E+02  0.51100000000E-03 0. -1.
        -11    1    3    3    0    0  0.18932632889E+01  0.53709492469E+01  0.25439657280E+00  0.57005490588E+01  0.51100000000E-03 0.  1.
        -12    1    3    3    0    0  0.45407845849E+00  0.68637278921E+01  0.24019797938E+02  0.24985348523E+02  0.00000000000E+00 0.  1.
</event>
<event>
 7    1  0.2294216E-010  0.4778727E+02  0.7816164E-02  0.1312668E+00
        -11   -1    0    0    0    0  0.00000000000E+00  0.00000000000E+00  0.45593999997E+02  0.45594000000E+02  0.51100000000E-03 0.  1.
         11   -1    0    0    0    0 -0.00000000000E+00 -0.00000000000E+00 -0.45593999997E+02  0.45594000000E+02  0.51100000000E-03 0. -1.
    9900012    2    1    2    0    0 -0.15637403476E+02  0.10315693069E+02 -0.39149477355E+02  0.47787268576E+02  0.19999988746E+02 0.  0.
        -12    1    1    2    0    0  0.15637403476E+02 -0.10315693069E+02  0.39149477355E+02  0.43400731424E+02  0.00000000000E+00 0.  1.
         11    1    3    3    0    0 -0.96654152555E+01  0.93926934968E+01 -0.73516678378E+01  0.15352197349E+02  0.51100000000E-03 0. -1.
        -11    1    3    3    0    0  0.11566183615E+00 -0.16044992236E-01 -0.13418241581E+00  0.17787715972E+00  0.51100000000E-03 0.  1.
         12    1    3    3    0    0 -0.60876500564E+01  0.93904456487E+00 -0.31663627101E+02  0.32257194067E+02  0.00000000000E+00 0. -1.
</event>
<event>
 7    1  0.2294216E-010  0.4778727E+02  0.7816164E-02  0.1312668E+00
        -11   -1    0    0    0    0  0.00000000000E+00  0.00000000000E+00  0.45593999997E+02  0.45594000000E+02  0.51100000000E-03 0.  1.
         11   -1    0    0    0    0 -0.00000000000E+00 -0.00000000000E+00 -0.45593999997E+02  0.45594000000E+02  0.51100000000E-03 0. -1.
    9900012    2    1    2    0    0 -0.30511587577E+02  0.24139756442E+02 -0.19233779356E+02  0.47787273210E+02  0.20000009874E+02 0.  0.
        -12    1    1    2    0    0  0.30511587577E+02 -0.24139756442E+02  0.19233779356E+02  0.43400726790E+02  0.00000000000E+00 0.  1.
         11    1    3    3    0    0 -0.24206339336E+01  0.25297389000E+01 -0.54518127698E+00  0.35434828105E+01  0.51100000000E-03 0. -1.
        -11    1    3    3    0    0  0.25665022961E+01  0.23053351341E+01 -0.36355439023E+01  0.50118543318E+01  0.51100000000E-03 0.  1.
        -12    1    3    3    0    0 -0.30657455940E+02  0.19304682408E+02 -0.15053054177E+02  0.39231936068E+02  0.00000000000E+00 0.  1.
</event>
<event>
 7    1  0.2294216E-010  0.4778727E+02  0.7816164E-02  0.1312668E+00
        -11   -1    0    0    0    0  0.00000000000E+00  0.00000000000E+00  0.45593999997E+02  0.45594000000E+02  0.51100000000E-03 0.  1.
         11   -1    0    0    0    0 -0.00000000000E+00 -0.00000000000E+00 -0.45593999997E+02  0.45594000000E+02  0.51100000000E-03 0. -1.
    9900012    2    1    2    0    0 -0.36171210392E+02  0.16262674235E+02 -0.17629306558E+02  0.47787268621E+02  0.19999988951E+02 0.  0.
        -12    1    1    2    0    0  0.36171210392E+02 -0.16262674235E+02  0.17629306558E+02  0.43400731379E+02  0.00000000000E+00 0.  1.
         11    1    3    3    0    0 -0.16280212001E+01 -0.20703683453E+01  0.53384740385E+00  0.26873539821E+01  0.51100000000E-03 0. -1.
        -11    1    3    3    0    0 -0.26077870566E+01 -0.20782886368E+01 -0.20611341442E+01  0.39202182607E+01  0.51100000000E-03 0.  1.
         12    1    3    3    0    0 -0.31935402135E+02  0.20411331217E+02 -0.16102019817E+02  0.41179696378E+02  0.00000000000E+00 0. -1.
</event>
<event>
 7    1  0.2294216E-010  0.4778729E+02  0.7816164E-02  0.1312668E+00
        -11   -1    0    0    0    0  0.00000000000E+00  0.00000000000E+00  0.45593999997E+02  0.45594000000E+02  0.51100000000E-03 0.  1.
         11   -1    0    0    0    0 -0.00000000000E+00 -0.00000000000E+00 -0.45593999997E+02  0.45594000000E+02  0.51100000000E-03 0. -1.
    9900012    2    1    2    0    0 -0.12934265366E+02  0.27481323333E+02 -0.31001661118E+02  0.47787293269E+02  0.20000101330E+02 0.  0.
        -12    1    1    2    0    0  0.12934265366E+02 -0.27481323333E+02  0.31001661118E+02  0.43400706731E+02  0.00000000000E+00 0.  1.
         11    1    3    3    0    0 -0.84924416585E+00  0.10569594510E+02 -0.43428000792E+01  0.11458510224E+02  0.51100000000E-03 0. -1.
        -11    1    3    3    0    0 -0.66443663151E+01  0.14002046041E+02 -0.97031233436E+01  0.18285390341E+02  0.51100000000E-03 0.  1.
        -12    1    3    3    0    0 -0.54406548851E+01  0.29096827821E+01 -0.16955737695E+02  0.18043392703E+02  0.00000000000E+00 0.  1.
</event>
<event>
 7    1  0.2294216E-010  0.4778727E+02  0.7816164E-02  0.1312668E+00
        -11   -1    0    0    0    0  0.00000000000E+00  0.00000000000E+00  0.45593999997E+02  0.45594000000E+02  0.51100000000E-03 0.  1.
         11   -1    0    0    0    0 -0.00000000000E+00 -0.00000000000E+00 -0.45593999997E+02  0.45594000000E+02  0.51100000000E-03 0. -1.
    9900012    2    1    2    0    0  0.39482061945E+02  0.18020885928E+02  0.19446129463E+00  0.47787270049E+02  0.19999995463E+02 0.  0.
        -12    1    1    2    0    0 -0.39482061945E+02 -0.18020885928E+02 -0.19446129463E+00  0.43400729951E+02  0.00000000000E+00 0.  1.
         11    1    3    3    0    0  0.28689115065E+02  0.11759844034E+02  0.24957109311E+01  0.31106073815E+02  0.51100000000E-03 0. -1.
        -11    1    3    3    0    0  0.12294347369E+02  0.75312268260E+01 -0.13050376885E+01  0.14476652872E+02  0.51100000000E-03 0.  1.
        -12    1    3    3    0    0 -0.15014004888E+01 -0.12701849323E+01 -0.99621194796E+00  0.22045433621E+01  0.00000000000E+00 0.  1.
</event>
<event>
 7    1  0.2294216E-010  0.4778728E+02  0.7816164E-02  0.1312668E+00
        -11   -1    0    0    0    0  0.00000000000E+00  0.00000000000E+00  0.45593999997E+02  0.45594000000E+02  0.51100000000E-03 0.  1.
         11   -1    0    0    0    0 -0.00000000000E+00 -0.00000000000E+00 -0.45593999997E+02  0.45594000000E+02  0.51100000000E-03 0. -1.
    9900012    2    1    2    0    0 -0.47614970230E+01  0.23151833158E+02 -0.36399775745E+02  0.47787275274E+02  0.20000019284E+02 0.  0.
        -12    1    1    2    0    0  0.47614970230E+01 -0.23151833158E+02  0.36399775745E+02  0.43400724726E+02  0.00000000000E+00 0.  1.
         11    1    3    3    0    0 -0.69801665893E+01  0.69090452294E+01 -0.10673596579E+02  0.14504595678E+02  0.51100000000E-03 0.  1.
        -11    1    3    3    0    0 -0.53836311523E-01  0.15316032136E+02 -0.12326973835E+02  0.19660570260E+02  0.51100000000E-03 0. -1.
        -12    1    3    3    0    0  0.22725058778E+01  0.92675579192E+00 -0.13399205331E+02  0.13622109336E+02  0.00000000000E+00 0.  1.
</event>
<event>
 7    1  0.2294216E-010  0.4778726E+02  0.7816164E-02  0.1312668E+00
        -11   -1    0    0    0    0  0.00000000000E+00  0.00000000000E+00  0.45593999997E+02  0.45594000000E+02  0.51100000000E-03 0.  1.
         11   -1    0    0    0    0 -0.00000000000E+00 -0.00000000000E+00 -0.45593999997E+02  0.45594000000E+02  0.51100000000E-03 0. -1.
    9900012    2    1    2    0    0 -0.32203002625E+02 -0.77078051418E+01 -0.28056746190E+02  0.47787255249E+02  0.19999927983E+02 0.  0.
        -12    1    1    2    0    0  0.32203002625E+02  0.77078051418E+01  0.28056746190E+02  0.43400744751E+02  0.00000000000E+00 0.  1.
         11    1    3    3    0    0  0.69517058754E-01 -0.17211776441E+01 -0.16616377571E+01  0.23933920282E+01  0.51100000000E-03 0. -1.
        -11    1    3    3    0    0 -0.25545482758E+02  0.22048634110E+01 -0.22462760924E+02  0.34088249304E+02  0.51100000000E-03 0.  1.
        -12    1    3    3    0    0 -0.67270369257E+01 -0.81914909087E+01 -0.39323475080E+01  0.11305613917E+02  0.00000000000E+00 0.  1.
</event>
<event>
 7    1  0.2294216E-010  0.4778727E+02  0.7816164E-02  0.1312668E+00
        -11   -1    0    0    0    0  0.00000000000E+00  0.00000000000E+00  0.45593999997E+02  0.45594000000E+02  0.51100000000E-03 0. -1.
         11   -1    0    0    0    0 -0.00000000000E+00 -0.00000000000E+00 -0.45593999997E+02  0.45594000000E+02  0.51100000000E-03 0.  1.
    9900012    2    1    2    0    0 -0.14076846060E+02 -0.39799054317E+02  0.10074773116E+02  0.47787269904E+02  0.19999994800E+02 0.  0.
        -12    1    1    2    0    0  0.14076846060E+02  0.39799054317E+02 -0.10074773116E+02  0.43400730096E+02  0.00000000000E+00 0.  1.
         11    1    3    3    0    0 -0.13387697589E+02 -0.31995895846E+02  0.69834640356E+01  0.35379889315E+02  0.51100000000E-03 0. -1.
        -11    1    3    3    0    0 -0.36455106727E+00 -0.69898255986E+01  0.60934512699E+01  0.92801243537E+01  0.51100000000E-03 0.  1.
        -12    1    3    3    0    0 -0.32459740360E+00 -0.81333287212E+00 -0.30021421893E+01  0.31272562351E+01  0.00000000000E+00 0.  1.
</event>
<event>
 7    1  0.2294216E-010  0.4778727E+02  0.7816164E-02  0.1312668E+00
        -11   -1    0    0    0    0  0.00000000000E+00  0.00000000000E+00  0.45593999997E+02  0.45594000000E+02  0.51100000000E-03 0.  1.
         11   -1    0    0    0    0 -0.00000000000E+00 -0.00000000000E+00 -0.45593999997E+02  0.45594000000E+02  0.51100000000E-03 0. -1.
    9900012    2    1    2    0    0 -0.23799731054E+02 -0.32777203597E+02  0.15583686040E+02  0.47787267927E+02  0.19999985786E+02 0.  0.
        -12    1    1    2    0    0  0.23799731054E+02  0.32777203597E+02 -0.15583686040E+02  0.43400732073E+02  0.00000000000E+00 0.  1.
         11    1    3    3    0    0 -0.13150056085E+02 -0.19662106493E+02  0.67644894751E+01  0.24602453636E+02  0.51100000000E-03 0. -1.
        -11    1    3    3    0    0 -0.12456568266E+02 -0.84542124965E+01  0.99681858037E+01  0.18055595542E+02  0.51100000000E-03 0.  1.
        -12    1    3    3    0    0  0.18068932964E+01 -0.46608846076E+01 -0.11489892387E+01  0.51292187495E+01  0.00000000000E+00 0.  1.
</event>
<event>
 7    1  0.2294216E-010  0.4778730E+02  0.7816164E-02  0.1312668E+00
        -11   -1    0    0    0    0  0.00000000000E+00  0.00000000000E+00  0.45593999997E+02  0.45594000000E+02  0.51100000000E-03 0.  1.
         11   -1    0    0    0    0 -0.00000000000E+00 -0.00000000000E+00 -0.45593999997E+02  0.45594000000E+02  0.51100000000E-03 0. -1.
    9900012    2    1    2    0    0  0.89837968988E+00 -0.17886739937E+02 -0.39533252934E+02  0.47787301397E+02  0.20000138390E+02 0.  0.
        -12    1    1    2    0    0 -0.89837968988E+00  0.17886739937E+02  0.39533252934E+02  0.43400698603E+02  0.00000000000E+00 0.  1.
         11    1    3    3    0    0 -0.32001419029E+01 -0.15050117703E+02 -0.15071180899E+02  0.21538046453E+02  0.51100000000E-03 0. -1.
        -11    1    3    3    0    0  0.70062798630E+00 -0.52818689738E+01 -0.14143637305E+02  0.15113950374E+02  0.51100000000E-03 0.  1.
        -12    1    3    3    0    0  0.33978936065E+01  0.24452467399E+01 -0.10318434730E+02  0.11135304570E+02  0.00000000000E+00 0.  1.
</event>
<event>
 7    1  0.2294216E-010  0.4778727E+02  0.7816164E-02  0.1312668E+00
        -11   -1    0    0    0    0  0.00000000000E+00  0.00000000000E+00  0.45593999997E+02  0.45594000000E+02  0.51100000000E-03 0.  1.
         11   -1    0    0    0    0 -0.00000000000E+00 -0.00000000000E+00 -0.45593999997E+02  0.45594000000E+02  0.51100000000E-03 0. -1.
    9900012    2    1    2    0    0 -0.37638235590E+01  0.12331895736E+02 -0.41441297020E+02  0.47787272829E+02  0.20000008138E+02 0.  0.
        -12    1    1    2    0    0  0.37638235590E+01 -0.12331895736E+02  0.41441297020E+02  0.43400727171E+02  0.00000000000E+00 0.  1.
         11    1    3    3    0    0  0.16120474184E+01  0.37611104379E+01 -0.17336011479E+02  0.17812409799E+02  0.51100000000E-03 0. -1.
        -11    1    3    3    0    0 -0.59666722833E+01  0.96586359410E+01 -0.25617559832E+02  0.28020524591E+02  0.51100000000E-03 0.  1.
        -12    1    3    3    0    0  0.59080130583E+00 -0.10878506434E+01  0.15122742901E+01  0.19543384389E+01  0.00000000000E+00 0.  1.
</event>
<event>
 7    1  0.2294216E-010  0.4778727E+02  0.7816164E-02  0.1312668E+00
        -11   -1    0    0    0    0  0.00000000000E+00  0.00000000000E+00  0.45593999997E+02  0.45594000000E+02  0.51100000000E-03 0. -1.
         11   -1    0    0    0    0 -0.00000000000E+00 -0.00000000000E+00 -0.45593999997E+02  0.45594000000E+02  0.51100000000E-03 0.  1.
    9900012    2    1    2    0    0  0.41918621168E+01  0.43177175292E+02 -0.13352726726E+01  0.47787272733E+02  0.20000007698E+02 0.  0.
        -12    1    1    2    0    0 -0.41918621168E+01 -0.43177175292E+02  0.13352726726E+01  0.43400727267E+02  0.00000000000E+00 0.  1.
         11    1    3    3    0    0  0.15277313978E+01  0.14318337052E+01  0.37375697992E+01  0.42841030856E+01  0.51100000000E-03 0.  1.
        -11    1    3    3    0    0  0.10756760060E+01 -0.18973537820E+00 -0.73030648637E+00  0.13139353899E+01  0.51100000000E-03 0. -1.
         12    1    3    3    0    0  0.15884547130E+01  0.41935076965E+02 -0.43425359854E+01  0.42189234257E+02  0.00000000000E+00 0. -1.
</event>
<event>
 7    1  0.2294216E-010  0.4778727E+02  0.7816164E-02  0.1312668E+00
        -11   -1    0    0    0    0  0.00000000000E+00  0.00000000000E+00  0.45593999997E+02  0.45594000000E+02  0.51100000000E-03 0. -1.
         11   -1    0    0    0    0 -0.00000000000E+00 -0.00000000000E+00 -0.45593999997E+02  0.45594000000E+02  0.51100000000E-03 0.  1.
    9900012    2    1    2    0    0  0.28549117305E+01  0.41037133966E+02 -0.13835694573E+02  0.47787270404E+02  0.19999997079E+02 0.  0.
        -12    1    1    2    0    0 -0.28549117305E+01 -0.41037133966E+02  0.13835694573E+02  0.43400729596E+02  0.00000000000E+00 0.  1.
         11    1    3    3    0    0 -0.16990503090E-01  0.35682967034E+02 -0.10769489890E+02  0.37272729143E+02  0.51100000000E-03 0. -1.
        -11    1    3    3    0    0  0.83865185416E+00  0.71681402060E+01 -0.14986133046E+01  0.73709845369E+01  0.51100000000E-03 0.  1.
        -12    1    3    3    0    0  0.20332503794E+01 -0.18139732738E+01 -0.15675913788E+01  0.31435567236E+01  0.00000000000E+00 0.  1.
</event>
<event>
 7    1  0.2294216E-010  0.4778726E+02  0.7816164E-02  0.1312668E+00
        -11   -1    0    0    0    0  0.00000000000E+00  0.00000000000E+00  0.45593999997E+02  0.45594000000E+02  0.51100000000E-03 0.  1.
         11   -1    0    0    0    0 -0.00000000000E+00 -0.00000000000E+00 -0.45593999997E+02  0.45594000000E+02  0.51100000000E-03 0. -1.
    9900012    2    1    2    0    0  0.11035627711E+02  0.90075407578E+01 -0.40996378251E+02  0.47787263840E+02  0.19999967153E+02 0.  0.
        -12    1    1    2    0    0 -0.11035627711E+02 -0.90075407578E+01  0.40996378251E+02  0.43400736160E+02  0.00000000000E+00 0.  1.
         11    1    3    3    0    0 -0.20983542687E-02 -0.23210400611E+01 -0.60700348596E+01  0.64986579250E+01  0.51100000000E-03 0. -1.
        -11    1    3    3    0    0  0.71504786098E+01 -0.25610031478E+01 -0.12305107579E+02  0.14460420266E+02  0.51100000000E-03 0.  1.
        -12    1    3    3    0    0  0.38872474553E+01  0.13889583967E+02 -0.22621235813E+02  0.26828185650E+02  0.00000000000E+00 0.  1.
</event>
<event>
 7    1  0.2294216E-010  0.4778727E+02  0.7816164E-02  0.1312668E+00
        -11   -1    0    0    0    0  0.00000000000E+00  0.00000000000E+00  0.45593999997E+02  0.45594000000E+02  0.51100000000E-03 0.  1.
         11   -1    0    0    0    0 -0.00000000000E+00 -0.00000000000E+00 -0.45593999997E+02  0.45594000000E+02  0.51100000000E-03 0. -1.
    9900012    2    1    2    0    0  0.31147839405E+02 -0.10060050178E+02 -0.28499661443E+02  0.47787271762E+02  0.20000003273E+02 0.  0.
        -12    1    1    2    0    0 -0.31147839405E+02  0.10060050178E+02  0.28499661443E+02  0.43400728238E+02  0.00000000000E+00 0.  1.
         11    1    3    3    0    0  0.78689517738E+01 -0.66255874415E+01 -0.15596434167E+02  0.18683350073E+02  0.51100000000E-03 0. -1.
        -11    1    3    3    0    0  0.69614847102E+01 -0.46017724531E+00 -0.10110816400E+02  0.12284243608E+02  0.51100000000E-03 0.  1.
        -12    1    3    3    0    0  0.16317402921E+02 -0.29742854916E+01 -0.27924108758E+01  0.16819678082E+02  0.00000000000E+00 0.  1.
</event>
<event>
 7    1  0.2294216E-010  0.4778727E+02  0.7816164E-02  0.1312668E+00
        -11   -1    0    0    0    0  0.00000000000E+00  0.00000000000E+00  0.45593999997E+02  0.45594000000E+02  0.51100000000E-03 0. -1.
         11   -1    0    0    0    0 -0.00000000000E+00 -0.00000000000E+00 -0.45593999997E+02  0.45594000000E+02  0.51100000000E-03 0.  1.
    9900012    2    1    2    0    0  0.39536902192E+02  0.17859048777E+02  0.12291061331E+01  0.47787274660E+02  0.20000016486E+02 0.  0.
        -12    1    1    2    0    0 -0.39536902192E+02 -0.17859048777E+02 -0.12291061331E+01  0.43400725340E+02  0.00000000000E+00 0.  1.
         11    1    3    3    0    0  0.14101822484E+02  0.99429853329E+01 -0.47108036596E+01  0.17886196524E+02  0.51100000000E-03 0. -1.
        -11    1    3    3    0    0  0.20170250919E+01 -0.12500724032E+01 -0.24302894395E+01  0.33966716438E+01  0.51100000000E-03 0.  1.
         12    1    3    3    0    0  0.23418054615E+02  0.91661358477E+01  0.83701992322E+01  0.26504406493E+02  0.00000000000E+00 0. -1.
</event>
<event>
 7    1  0.2294216E-010  0.4778727E+02  0.7816164E-02  0.1312668E+00
        -11   -1    0    0    0    0  0.00000000000E+00  0.00000000000E+00  0.45593999997E+02  0.45594000000E+02  0.51100000000E-03 0. -1.
         11   -1    0    0    0    0 -0.00000000000E+00 -0.00000000000E+00 -0.45593999997E+02  0.45594000000E+02  0.51100000000E-03 0.  1.
    9900012    2    1    2    0    0  0.39825497990E+02 -0.12093370319E+02 -0.12300545555E+02  0.47787270550E+02  0.19999997746E+02 0.  0.
        -12    1    1    2    0    0 -0.39825497990E+02  0.12093370319E+02  0.12300545555E+02  0.43400729450E+02  0.00000000000E+00 0.  1.
         11    1    3    3    0    0  0.20073730308E+02 -0.10537016680E+02 -0.18566556461E+01  0.22747099583E+02  0.51100000000E-03 0. -1.
        -11    1    3    3    0    0  0.16499350192E+02 -0.57181650800E+01 -0.76424691500E+01  0.19061303828E+02  0.51100000000E-03 0.  1.
        -12    1    3    3    0    0  0.32524174900E+01  0.41618114412E+01 -0.28014207586E+01  0.59788671392E+01  0.00000000000E+00 0.  1.
</event>
<event>
 7    1  0.2294216E-010  0.4778727E+02  0.7816164E-02  0.1312668E+00
        -11   -1    0    0    0    0  0.00000000000E+00  0.00000000000E+00  0.45593999997E+02  0.45594000000E+02  0.51100000000E-03 0.  1.
         11   -1    0    0    0    0 -0.00000000000E+00 -0.00000000000E+00 -0.45593999997E+02  0.45594000000E+02  0.51100000000E-03 0. -1.
    9900012    2    1    2    0    0  0.27055510035E+02  0.23865973019E+02 -0.24125459818E+02  0.47787273015E+02  0.20000008985E+02 0.  0.
        -12    1    1    2    0    0 -0.27055510035E+02 -0.23865973019E+02  0.24125459818E+02  0.43400726985E+02  0.00000000000E+00 0.  1.
         11    1    3    3    0    0  0.12986518426E+02  0.84283948557E+01 -0.13570843449E+02  0.20587746182E+02  0.51100000000E-03 0. -1.
        -11    1    3    3    0    0  0.16776759517E+02  0.12416190660E+02 -0.77348589890E+01  0.22258694801E+02  0.51100000000E-03 0.  1.
        -12    1    3    3    0    0 -0.27077679083E+01  0.30213875033E+01 -0.28197573791E+01  0.49408320319E+01  0.00000000000E+00 0.  1.
</event>
<event>
 7    1  0.2294216E-010  0.4778727E+02  0.7816164E-02  0.1312668E+00
        -11   -1    0    0    0    0  0.00000000000E+00  0.00000000000E+00  0.45593999997E+02  0.45594000000E+02  0.51100000000E-03 0.  1.
         11   -1    0    0    0    0 -0.00000000000E+00 -0.00000000000E+00 -0.45593999997E+02  0.45594000000E+02  0.51100000000E-03 0. -1.
    9900012    2    1    2    0    0 -0.14126258774E+02  0.31288489986E+02 -0.26553764925E+02  0.47787271617E+02  0.20000002609E+02 0.  0.
        -12    1    1    2    0    0  0.14126258774E+02 -0.31288489986E+02  0.26553764925E+02  0.43400728383E+02  0.00000000000E+00 0.  1.
         11    1    3    3    0    0 -0.62490259983E+01  0.10305008687E+02 -0.17331064852E+02  0.21109460891E+02  0.51100000000E-03 0. -1.
        -11    1    3    3    0    0 -0.32080176437E+01  0.25754766990E+00 -0.33284899272E+01  0.46299625766E+01  0.51100000000E-03 0.  1.
         12    1    3    3    0    0 -0.46692151316E+01  0.20725933629E+02 -0.58942101457E+01  0.22047848149E+02  0.00000000000E+00 0. -1.
</event>
<event>
 7    1  0.2294216E-010  0.4778727E+02  0.7816164E-02  0.1312668E+00
        -11   -1    0    0    0    0  0.00000000000E+00  0.00000000000E+00  0.45593999997E+02  0.45594000000E+02  0.51100000000E-03 0.  1.
         11   -1    0    0    0    0 -0.00000000000E+00 -0.00000000000E+00 -0.45593999997E+02  0.45594000000E+02  0.51100000000E-03 0. -1.
    9900012    2    1    2    0    0 -0.16583903030E+02  0.18025795691E+02 -0.35828313452E+02  0.47787271956E+02  0.20000004154E+02 0.  0.
        -12    1    1    2    0    0  0.16583903030E+02 -0.18025795691E+02  0.35828313452E+02  0.43400728044E+02  0.00000000000E+00 0.  1.
         11    1    3    3    0    0 -0.10521448852E+02  0.11741531609E+02 -0.30512521729E+02  0.34344991382E+02  0.51100000000E-03 0. -1.
        -11    1    3    3    0    0  0.28148470646E+00  0.26602833562E+00 -0.46570119251E+01  0.46730894542E+01  0.51100000000E-03 0.  1.
        -12    1    3    3    0    0 -0.63439388849E+01  0.60182357463E+01 -0.65877979714E+00  0.87691911197E+01  0.00000000000E+00 0.  1.
</event>
<event>
 7    1  0.2294216E-010  0.4778726E+02  0.7816164E-02  0.1312668E+00
        -11   -1    0    0    0    0  0.00000000000E+00  0.00000000000E+00  0.45593999997E+02  0.45594000000E+02  0.51100000000E-03 0. -1.
         11   -1    0    0    0    0 -0.00000000000E+00 -0.00000000000E+00 -0.45593999997E+02  0.45594000000E+02  0.51100000000E-03 0.  1.
    9900012    2    1    2    0    0  0.15645630784E+02  0.27080376636E+02  0.30091384595E+02  0.47787262815E+02  0.19999962479E+02 0.  0.
        -12    1    1    2    0    0 -0.15645630784E+02 -0.27080376636E+02 -0.30091384595E+02  0.43400737185E+02  0.00000000000E+00 0.  1.
         11    1    3    3    0    0  0.45056617164E+00  0.61940017878E+01  0.54312998199E-01  0.62106052994E+01  0.51100000000E-03 0. -1.
        -11    1    3    3    0    0 -0.60988027299E+00 -0.82786169494E+00 -0.28861898162E+00  0.10679934976E+01  0.51100000000E-03 0.  1.
         12    1    3    3    0    0  0.15804944885E+02  0.21714236543E+02  0.30325690579E+02  0.40508664018E+02  0.00000000000E+00 0. -1.
</event>
<event>
 7    1  0.2294216E-010  0.4778727E+02  0.7816164E-02  0.1312668E+00
        -11   -1    0    0    0    0  0.00000000000E+00  0.00000000000E+00  0.45593999997E+02  0.45594000000E+02  0.51100000000E-03 0.  1.
         11   -1    0    0    0    0 -0.00000000000E+00 -0.00000000000E+00 -0.45593999997E+02  0.45594000000E+02  0.51100000000E-03 0. -1.
    9900012    2    1    2    0    0 -0.30813682754E+02  0.30194178533E+02 -0.47383397337E+01  0.47787270449E+02  0.19999997283E+02 0.  0.
        -12    1    1    2    0    0  0.30813682754E+02 -0.30194178533E+02  0.47383397337E+01  0.43400729551E+02  0.00000000000E+00 0.  1.
         11    1    3    3    0    0 -0.19176071559E+02  0.17886820423E+02 -0.17385954995E+01  0.26280844352E+02  0.51100000000E-03 0. -1.
        -11    1    3    3    0    0 -0.88465630254E+01  0.61656247034E+01 -0.77295757145E+01  0.13267363956E+02  0.51100000000E-03 0.  1.
        -12    1    3    3    0    0 -0.27910481689E+01  0.61417334074E+01  0.47298314802E+01  0.82390621408E+01  0.00000000000E+00 0.  1.
</event>
<event>
 7    1  0.2294216E-010  0.4778728E+02  0.7816164E-02  0.1312668E+00
        -11   -1    0    0    0    0  0.00000000000E+00  0.00000000000E+00  0.45593999997E+02  0.45594000000E+02  0.51100000000E-03 0.  1.
         11   -1    0    0    0    0 -0.00000000000E+00 -0.00000000000E+00 -0.45593999997E+02  0.45594000000E+02  0.51100000000E-03 0. -1.
    9900012    2    1    2    0    0  0.19098695118E+01  0.23862555435E+02 -0.36201569297E+02  0.47787276815E+02  0.20000026310E+02 0.  0.
        -12    1    1    2    0    0 -0.19098695118E+01 -0.23862555435E+02  0.36201569297E+02  0.43400723185E+02  0.00000000000E+00 0.  1.
         11    1    3    3    0    0 -0.30149970519E+00 -0.39819083073E+00 -0.88257633942E+01  0.88398844880E+01  0.51100000000E-03 0. -1.
        -11    1    3    3    0    0  0.46254852943E+01  0.29934350671E+01 -0.22775225290E+01  0.59617847026E+01  0.51100000000E-03 0.  1.
         12    1    3    3    0    0 -0.24141160773E+01  0.21267311199E+02 -0.25098283373E+02  0.32985607624E+02  0.00000000000E+00 0. -1.
</event>
<event>
 7    1  0.2294216E-010  0.4778721E+02  0.7816164E-02  0.1312668E+00
        -11   -1    0    0    0    0  0.00000000000E+00  0.00000000000E+00  0.45593999997E+02  0.45594000000E+02  0.51100000000E-03 0.  1.
         11   -1    0    0    0    0 -0.00000000000E+00 -0.00000000000E+00 -0.45593999997E+02  0.45594000000E+02  0.51100000000E-03 0. -1.
    9900012    2    1    2    0    0  0.24230599476E+02 -0.88240031835E+01 -0.34909074982E+02  0.47787210845E+02  0.19999725527E+02 0.  0.
        -12    1    1    2    0    0 -0.24230599476E+02  0.88240031835E+01  0.34909074982E+02  0.43400789155E+02  0.00000000000E+00 0.  1.
         11    1    3    3    0    0  0.17960972283E+02 -0.62104495084E+01 -0.20692989268E+02  0.28095658269E+02  0.51100000000E-03 0. -1.
        -11    1    3    3    0    0  0.93820866273E+01 -0.40234898748E+01 -0.10587904728E+02  0.14707676467E+02  0.51100000000E-03 0.  1.
        -12    1    3    3    0    0 -0.31124594340E+01  0.14099361997E+01 -0.36281809858E+01  0.49838761102E+01  0.00000000000E+00 0.  1.
</event>
<event>
 7    1  0.2294216E-010  0.4778727E+02  0.7816164E-02  0.1312668E+00
        -11   -1    0    0    0    0  0.00000000000E+00  0.00000000000E+00  0.45593999997E+02  0.45594000000E+02  0.51100000000E-03 0.  1.
         11   -1    0    0    0    0 -0.00000000000E+00 -0.00000000000E+00 -0.45593999997E+02  0.45594000000E+02  0.51100000000E-03 0. -1.
    9900012    2    1    2    0    0  0.12859704149E+02 -0.40809048652E+02 -0.72713505218E+01  0.47787274417E+02  0.20000015377E+02 0.  0.
        -12    1    1    2    0    0 -0.12859704149E+02  0.40809048652E+02  0.72713505218E+01  0.43400725583E+02  0.00000000000E+00 0.  1.
         11    1    3    3    0    0  0.10242333521E+02 -0.22386968179E+02 -0.30733021723E+01  0.24809815129E+02  0.51100000000E-03 0. -1.
        -11    1    3    3    0    0  0.49960207531E+01 -0.18608101306E+02 -0.14256899152E+01  0.19319789066E+02  0.51100000000E-03 0.  1.
        -12    1    3    3    0    0 -0.23786501250E+01  0.18602083245E+00 -0.27723584343E+01  0.36576702224E+01  0.00000000000E+00 0.  1.
</event>
<event>
 7    1  0.2294216E-010  0.4778727E+02  0.7816164E-02  0.1312668E+00
        -11   -1    0    0    0    0  0.00000000000E+00  0.00000000000E+00  0.45593999997E+02  0.45594000000E+02  0.51100000000E-03 0.  1.
         11   -1    0    0    0    0 -0.00000000000E+00 -0.00000000000E+00 -0.45593999997E+02  0.45594000000E+02  0.51100000000E-03 0. -1.
    9900012    2    1    2    0    0  0.32919820221E+02 -0.17656870271E+02 -0.22093974818E+02  0.47787270117E+02  0.19999995770E+02 0.  0.
        -12    1    1    2    0    0 -0.32919820221E+02  0.17656870271E+02  0.22093974818E+02  0.43400729883E+02  0.00000000000E+00 0.  1.
         11    1    3    3    0    0  0.37247171740E+01  0.29100640070E+00 -0.43790441498E+01  0.57562340709E+01  0.51100000000E-03 0. -1.
        -11    1    3    3    0    0  0.16637929460E+02 -0.15263285867E+02 -0.18465986209E+02  0.29168154537E+02  0.51100000000E-03 0.  1.
         12    1    3    3    0    0  0.12557173587E+02 -0.26845908048E+01  0.75105554076E+00  0.12862881509E+02  0.00000000000E+00 0. -1.
</event>
<event>
 7    1  0.2294216E-010  0.4778727E+02  0.7816164E-02  0.1312668E+00
        -11   -1    0    0    0    0  0.00000000000E+00  0.00000000000E+00  0.45593999997E+02  0.45594000000E+02  0.51100000000E-03 0. -1.
         11   -1    0    0    0    0 -0.00000000000E+00 -0.00000000000E+00 -0.45593999997E+02  0.45594000000E+02  0.51100000000E-03 0.  1.
    9900012    2    1    2    0    0 -0.31636547050E+02 -0.22052136051E+02  0.19911186626E+02  0.47787272281E+02  0.20000005639E+02 0.  0.
        -12    1    1    2    0    0  0.31636547050E+02  0.22052136051E+02 -0.19911186626E+02  0.43400727719E+02  0.00000000000E+00 0.  1.
         11    1    3    3    0    0 -0.58574338175E+01 -0.28464586034E+01  0.10525992964E+02  0.12377737501E+02  0.51100000000E-03 0. -1.
        -11    1    3    3    0    0 -0.16247455337E+01 -0.54041656715E+01  0.43801251401E+01  0.71435496190E+01  0.51100000000E-03 0.  1.
        -12    1    3    3    0    0 -0.24154367699E+02 -0.13801511776E+02  0.50050685227E+01  0.28265985161E+02  0.00000000000E+00 0.  1.
</event>
<event>
 7    1  0.2294216E-010  0.4778727E+02  0.7816164E-02  0.1312668E+00
        -11   -1    0    0    0    0  0.00000000000E+00  0.00000000000E+00  0.45593999997E+02  0.45594000000E+02  0.51100000000E-03 0.  1.
         11   -1    0    0    0    0 -0.00000000000E+00 -0.00000000000E+00 -0.45593999997E+02  0.45594000000E+02  0.51100000000E-03 0. -1.
    9900012    2    1    2    0    0 -0.20009042479E+02  0.59658026145E+01 -0.38048264658E+02  0.47787273909E+02  0.20000013059E+02 0.  0.
        -12    1    1    2    0    0  0.20009042479E+02 -0.59658026145E+01  0.38048264658E+02  0.43400726091E+02  0.00000000000E+00 0.  1.
         11    1    3    3    0    0 -0.70677069437E+01  0.34912910836E+01 -0.23319170356E+02  0.24615549988E+02  0.51100000000E-03 0. -1.
        -11    1    3    3    0    0  0.18699675760E+01  0.23412638747E+01 -0.17011643672E+01  0.34456139847E+01  0.51100000000E-03 0.  1.
        -12    1    3    3    0    0 -0.14811303112E+02  0.13324765630E+00 -0.13027929935E+02  0.19726109935E+02  0.00000000000E+00 0.  1.
</event>
<event>
 7    1  0.2294216E-010  0.4778727E+02  0.7816164E-02  0.1312668E+00
        -11   -1    0    0    0    0  0.00000000000E+00  0.00000000000E+00  0.45593999997E+02  0.45594000000E+02  0.51100000000E-03 0. -1.
         11   -1    0    0    0    0 -0.00000000000E+00 -0.00000000000E+00 -0.45593999997E+02  0.45594000000E+02  0.51100000000E-03 0.  1.
    9900012    2    1    2    0    0 -0.34532646667E+02  0.87154490362E+01  0.24802434467E+02  0.47787268517E+02  0.19999988478E+02 0.  0.
        -12    1    1    2    0    0  0.34532646667E+02 -0.87154490362E+01 -0.24802434467E+02  0.43400731483E+02  0.00000000000E+00 0.  1.
         11    1    3    3    0    0 -0.26213264923E+01 -0.33353189063E+01  0.18821902805E+01  0.46409422857E+01  0.51100000000E-03 0. -1.
        -11    1    3    3    0    0 -0.14175142336E+02 -0.12224700350E+01  0.11041812862E+02  0.18009739719E+02  0.51100000000E-03 0.  1.
        -12    1    3    3    0    0 -0.17736177840E+02  0.13273237977E+02  0.11878431324E+02  0.25136586512E+02  0.00000000000E+00 0.  1.
</event>
<event>
 7    1  0.2294216E-010  0.4778727E+02  0.7816164E-02  0.1312668E+00
        -11   -1    0    0    0    0  0.00000000000E+00  0.00000000000E+00  0.45593999997E+02  0.45594000000E+02  0.51100000000E-03 0. -1.
         11   -1    0    0    0    0 -0.00000000000E+00 -0.00000000000E+00 -0.45593999997E+02  0.45594000000E+02  0.51100000000E-03 0.  1.
    9900012    2    1    2    0    0  0.75792467643E+01  0.36138412970E+02  0.22807751518E+02  0.47787269559E+02  0.19999993225E+02 0.  0.
        -12    1    1    2    0    0 -0.75792467643E+01 -0.36138412970E+02 -0.22807751518E+02  0.43400730441E+02  0.00000000000E+00 0.  1.
         11    1    3    3    0    0  0.47073048357E+01  0.18855433715E+02  0.33821244990E+01  0.19726248143E+02  0.51100000000E-03 0. -1.
        -11    1    3    3    0    0 -0.86133736809E+00  0.13172495342E+02  0.82082535031E+01  0.15544515477E+02  0.51100000000E-03 0.  1.
         12    1    3    3    0    0  0.37332792968E+01  0.41104839134E+01  0.11217373516E+02  0.12516505939E+02  0.00000000000E+00 0. -1.
</event>
<event>
 7    1  0.2294216E-010  0.4778727E+02  0.7816164E-02  0.1312668E+00
        -11   -1    0    0    0    0  0.00000000000E+00  0.00000000000E+00  0.45593999997E+02  0.45594000000E+02  0.51100000000E-03 0.  1.
         11   -1    0    0    0    0 -0.00000000000E+00 -0.00000000000E+00 -0.45593999997E+02  0.45594000000E+02  0.51100000000E-03 0. -1.
    9900012    2    1    2    0    0 -0.31268613546E+02 -0.13724866902E+02 -0.26786654842E+02  0.47787273714E+02  0.20000012170E+02 0.  0.
        -12    1    1    2    0    0  0.31268613546E+02  0.13724866902E+02  0.26786654842E+02  0.43400726286E+02  0.00000000000E+00 0.  1.
         11    1    3    3    0    0 -0.79885681120E+01  0.66068144531E-01 -0.12078145157E+02  0.14481131730E+02  0.51100000000E-03 0. -1.
        -11    1    3    3    0    0  0.62781826499E+00 -0.39963482616E+01 -0.19163769392E+01  0.44763217083E+01  0.51100000000E-03 0.  1.
         12    1    3    3    0    0 -0.23907863699E+02 -0.97945867854E+01 -0.12792132745E+02  0.28829820275E+02  0.00000000000E+00 0. -1.
</event>
<event>
 7    1  0.2294216E-010  0.4778726E+02  0.7816164E-02  0.1312668E+00
        -11   -1    0    0    0    0  0.00000000000E+00  0.00000000000E+00  0.45593999997E+02  0.45594000000E+02  0.51100000000E-03 0.  1.
         11   -1    0    0    0    0 -0.00000000000E+00 -0.00000000000E+00 -0.45593999997E+02  0.45594000000E+02  0.51100000000E-03 0. -1.
    9900012    2    1    2    0    0  0.15322403460E+01 -0.42720223950E+02  0.75006224877E+01  0.47787255392E+02  0.19999928636E+02 0.  0.
        -12    1    1    2    0    0 -0.15322403460E+01  0.42720223950E+02 -0.75006224877E+01  0.43400744608E+02  0.00000000000E+00 0.  1.
         11    1    3    3    0    0  0.15235373960E+01 -0.17981701853E+02 -0.58899097907E+00  0.18055738101E+02  0.51100000000E-03 0. -1.
        -11    1    3    3    0    0  0.21601086909E+00 -0.57337403455E+01 -0.41890943010E+01  0.71042909828E+01  0.51100000000E-03 0.  1.
        -12    1    3    3    0    0 -0.20730791914E+00 -0.19004781751E+02  0.12278707768E+02  0.22627226309E+02  0.00000000000E+00 0.  1.
</event>
<event>
 7    1  0.2294216E-010  0.4778727E+02  0.7816164E-02  0.1312668E+00
        -11   -1    0    0    0    0  0.00000000000E+00  0.00000000000E+00  0.45593999997E+02  0.45594000000E+02  0.51100000000E-03 0.  1.
         11   -1    0    0    0    0 -0.00000000000E+00 -0.00000000000E+00 -0.45593999997E+02  0.45594000000E+02  0.51100000000E-03 0. -1.
    9900012    2    1    2    0    0 -0.36078202459E+02  0.21403272954E+02 -0.11130424545E+02  0.47787272628E+02  0.20000007222E+02 0.  0.
        -12    1    1    2    0    0  0.36078202459E+02 -0.21403272954E+02  0.11130424545E+02  0.43400727372E+02  0.00000000000E+00 0.  1.
         11    1    3    3    0    0 -0.30800220708E+01  0.25371144908E+00 -0.30576838017E+01  0.43474516615E+01  0.51100000000E-03 0. -1.
        -11    1    3    3    0    0  0.39270579789E+00 -0.19671474243E+01  0.12060544620E+00  0.20095852228E+01  0.51100000000E-03 0.  1.
         12    1    3    3    0    0 -0.33390886186E+02  0.23116708930E+02 -0.81933461895E+01  0.41430235744E+02  0.00000000000E+00 0. -1.
</event>
<event>
 7    1  0.2294216E-010  0.4778727E+02  0.7816164E-02  0.1312668E+00
        -11   -1    0    0    0    0  0.00000000000E+00  0.00000000000E+00  0.45593999997E+02  0.45594000000E+02  0.51100000000E-03 0.  1.
         11   -1    0    0    0    0 -0.00000000000E+00 -0.00000000000E+00 -0.45593999997E+02  0.45594000000E+02  0.51100000000E-03 0. -1.
    9900012    2    1    2    0    0  0.29686773139E+02 -0.14569426012E+02 -0.28107844996E+02  0.47787267011E+02  0.19999981609E+02 0.  0.
        -12    1    1    2    0    0 -0.29686773139E+02  0.14569426012E+02  0.28107844996E+02  0.43400732989E+02  0.00000000000E+00 0.  1.
         11    1    3    3    0    0  0.10350740749E+02 -0.58855764799E+01 -0.75722770364E+01  0.14110890274E+02  0.51100000000E-03 0. -1.
        -11    1    3    3    0    0  0.97546338239E+01  0.40657263130E+01 -0.10092028890E+02  0.14612736187E+02  0.51100000000E-03 0.  1.
        -12    1    3    3    0    0  0.95813985655E+01 -0.12749575845E+02 -0.10443539070E+02  0.19063640550E+02  0.00000000000E+00 0.  1.
</event>
<event>
 7    1  0.2294216E-010  0.4778727E+02  0.7816164E-02  0.1312668E+00
        -11   -1    0    0    0    0  0.00000000000E+00  0.00000000000E+00  0.45593999997E+02  0.45594000000E+02  0.51100000000E-03 0.  1.
         11   -1    0    0    0    0 -0.00000000000E+00 -0.00000000000E+00 -0.45593999997E+02  0.45594000000E+02  0.51100000000E-03 0. -1.
    9900012    2    1    2    0    0  0.34135483830E+02  0.77407751720E+01 -0.25660719470E+02  0.47787269819E+02  0.19999994411E+02 0.  0.
        -12    1    1    2    0    0 -0.34135483830E+02 -0.77407751720E+01  0.25660719470E+02  0.43400730181E+02  0.00000000000E+00 0.  1.
         11    1    3    3    0    0  0.14804431729E+02  0.21439784480E+01 -0.56778504076E+01  0.16000182122E+02  0.51100000000E-03 0. -1.
        -11    1    3    3    0    0  0.73952428732E+01 -0.20456019014E+01 -0.49288250524E+00  0.76887604799E+01  0.51100000000E-03 0.  1.
        -12    1    3    3    0    0  0.11935809227E+02  0.76423986254E+01 -0.19489986557E+02  0.24098327217E+02  0.00000000000E+00 0.  1.
</event>
<event>
 7    1  0.2294216E-010  0.4778727E+02  0.7816164E-02  0.1312668E+00
        -11   -1    0    0    0    0  0.00000000000E+00  0.00000000000E+00  0.45593999997E+02  0.45594000000E+02  0.51100000000E-03 0.  1.
         11   -1    0    0    0    0 -0.00000000000E+00 -0.00000000000E+00 -0.45593999997E+02  0.45594000000E+02  0.51100000000E-03 0. -1.
    9900012    2    1    2    0    0 -0.43128330367E+02  0.52457910335E+00 -0.48264937384E+01  0.47787272987E+02  0.20000008857E+02 0.  0.
        -12    1    1    2    0    0  0.43128330367E+02 -0.52457910335E+00  0.48264937384E+01  0.43400727013E+02  0.00000000000E+00 0.  1.
         11    1    3    3    0    0 -0.42205461917E+01  0.26171342647E+01 -0.33168304144E+01  0.59719147829E+01  0.51100000000E-03 0. -1.
        -11    1    3    3    0    0 -0.18847275540E+01  0.22794122484E+01 -0.33760239794E+01  0.44883690046E+01  0.51100000000E-03 0.  1.
         12    1    3    3    0    0 -0.37023056621E+02 -0.43719674097E+01  0.18663606554E+01  0.37326989199E+02  0.00000000000E+00 0. -1.
</event>
<event>
 7    1  0.2294216E-010  0.4778727E+02  0.7816164E-02  0.1312668E+00
        -11   -1    0    0    0    0  0.00000000000E+00  0.00000000000E+00  0.45593999997E+02  0.45594000000E+02  0.51100000000E-03 0.  1.
         11   -1    0    0    0    0 -0.00000000000E+00 -0.00000000000E+00 -0.45593999997E+02  0.45594000000E+02  0.51100000000E-03 0. -1.
    9900012    2    1    2    0    0 -0.63182657662E+01  0.22609087074E+02 -0.36503862248E+02  0.47787271209E+02  0.20000000748E+02 0.  0.
        -12    1    1    2    0    0  0.63182657662E+01 -0.22609087074E+02  0.36503862248E+02  0.43400728791E+02  0.00000000000E+00 0.  1.
         11    1    3    3    0    0 -0.31934340992E+01  0.81623589167E+00 -0.76376476633E+01  0.83185289845E+01  0.51100000000E-03 0. -1.
        -11    1    3    3    0    0 -0.81608083340E+01  0.14604607812E+02 -0.12452001146E+02  0.20855351707E+02  0.51100000000E-03 0.  1.
         12    1    3    3    0    0  0.50359766670E+01  0.71882433697E+01 -0.16414213439E+02  0.18613390517E+02  0.00000000000E+00 0. -1.
</event>
<event>
 7    1  0.2294216E-010  0.4778727E+02  0.7816164E-02  0.1312668E+00
        -11   -1    0    0    0    0  0.00000000000E+00  0.00000000000E+00  0.45593999997E+02  0.45594000000E+02  0.51100000000E-03 0.  1.
         11   -1    0    0    0    0 -0.00000000000E+00 -0.00000000000E+00 -0.45593999997E+02  0.45594000000E+02  0.51100000000E-03 0. -1.
    9900012    2    1    2    0    0  0.22213465390E+02  0.35293413517E+02 -0.12023306141E+02  0.47787274512E+02  0.20000015811E+02 0.  0.
        -12    1    1    2    0    0 -0.22213465390E+02 -0.35293413517E+02  0.12023306141E+02  0.43400725488E+02  0.00000000000E+00 0.  1.
         11    1    3    3    0    0  0.86701409585E+01  0.20965808980E+01 -0.19510697287E+01  0.91309183026E+01  0.51100000000E-03 0. -1.
        -11    1    3    3    0    0  0.14343086526E+01  0.57240693875E+01  0.20945428781E+01  0.62617347271E+01  0.51100000000E-03 0.  1.
         12    1    3    3    0    0  0.12109015779E+02  0.27472763231E+02 -0.12166779290E+02  0.32394621483E+02  0.00000000000E+00 0. -1.
</event>
<event>
 7    1  0.2294216E-010  0.4778728E+02  0.7816164E-02  0.1312668E+00
        -11   -1    0    0    0    0  0.00000000000E+00  0.00000000000E+00  0.45593999997E+02  0.45594000000E+02  0.51100000000E-03 0. -1.
         11   -1    0    0    0    0 -0.00000000000E+00 -0.00000000000E+00 -0.45593999997E+02  0.45594000000E+02  0.51100000000E-03 0.  1.
    9900012    2    1    2    0    0  0.31433467122E+02  0.29325535709E+02 -0.59643088962E+01  0.47787275576E+02  0.20000020662E+02 0.  0.
        -12    1    1    2    0    0 -0.31433467122E+02 -0.29325535709E+02  0.59643088962E+01  0.43400724424E+02  0.00000000000E+00 0.  1.
         11    1    3    3    0    0  0.58049707743E+01  0.59212340973E+01  0.10684518381E+00  0.82927748721E+01  0.51100000000E-03 0. -1.
        -11    1    3    3    0    0  0.10370632873E+02 -0.57367625925E+00 -0.34878448027E+01  0.10956468057E+02  0.51100000000E-03 0.  1.
        -12    1    3    3    0    0  0.15257863474E+02  0.23977977871E+02 -0.25833092772E+01  0.28538032647E+02  0.00000000000E+00 0.  1.
</event>
<event>
 7    1  0.2294216E-010  0.4778727E+02  0.7816164E-02  0.1312668E+00
        -11   -1    0    0    0    0  0.00000000000E+00  0.00000000000E+00  0.45593999997E+02  0.45594000000E+02  0.51100000000E-03 0.  1.
         11   -1    0    0    0    0 -0.00000000000E+00 -0.00000000000E+00 -0.45593999997E+02  0.45594000000E+02  0.51100000000E-03 0. -1.
    9900012    2    1    2    0    0  0.35001120863E+02 -0.12574122409E+02  0.22370425018E+02  0.47787274988E+02  0.20000017982E+02 0.  0.
        -12    1    1    2    0    0 -0.35001120863E+02  0.12574122409E+02 -0.22370425018E+02  0.43400725012E+02  0.00000000000E+00 0.  1.
         11    1    3    3    0    0  0.15420407227E+02 -0.81961516059E+00  0.64742191868E+01  0.16744439148E+02  0.51100000000E-03 0. -1.
        -11    1    3    3    0    0  0.14218805715E+02 -0.76069618071E+00  0.66825015669E+01  0.15729237810E+02  0.51100000000E-03 0.  1.
        -12    1    3    3    0    0  0.53619079214E+01 -0.10993811067E+02  0.92137042643E+01  0.15313598030E+02  0.00000000000E+00 0.  1.
</event>
<event>
 7    1  0.2294216E-010  0.4778727E+02  0.7816164E-02  0.1312668E+00
        -11   -1    0    0    0    0  0.00000000000E+00  0.00000000000E+00  0.45593999997E+02  0.45594000000E+02  0.51100000000E-03 0.  1.
         11   -1    0    0    0    0 -0.00000000000E+00 -0.00000000000E+00 -0.45593999997E+02  0.45594000000E+02  0.51100000000E-03 0. -1.
    9900012    2    1    2    0    0 -0.49254306686E+01  0.22575588282E+02 -0.36738348302E+02  0.47787270865E+02  0.19999999180E+02 0.  0.
        -12    1    1    2    0    0  0.49254306686E+01 -0.22575588282E+02  0.36738348302E+02  0.43400729135E+02  0.00000000000E+00 0.  1.
         11    1    3    3    0    0 -0.64835565186E+01  0.14823198803E+02 -0.26223406276E+02  0.30812834418E+02  0.51100000000E-03 0. -1.
        -11    1    3    3    0    0  0.14144437651E+00  0.19029349228E+00 -0.91591729130E+01  0.91622413653E+01  0.51100000000E-03 0.  1.
        -12    1    3    3    0    0  0.14166814735E+01  0.75620959862E+01 -0.13557691131E+01  0.78121950814E+01  0.00000000000E+00 0.  1.
</event>
<event>
 7    1  0.2294216E-010  0.4778727E+02  0.7816164E-02  0.1312668E+00
        -11   -1    0    0    0    0  0.00000000000E+00  0.00000000000E+00  0.45593999997E+02  0.45594000000E+02  0.51100000000E-03 0.  1.
         11   -1    0    0    0    0 -0.00000000000E+00 -0.00000000000E+00 -0.45593999997E+02  0.45594000000E+02  0.51100000000E-03 0. -1.
    9900012    2    1    2    0    0  0.27200964515E+02  0.25503192725E+02 -0.22210764323E+02  0.47787270034E+02  0.19999995393E+02 0.  0.
        -12    1    1    2    0    0 -0.27200964515E+02 -0.25503192725E+02  0.22210764323E+02  0.43400729966E+02  0.00000000000E+00 0.  1.
         11    1    3    3    0    0  0.69647077418E+01  0.51747398261E-01 -0.22532623102E+01  0.73203157733E+01  0.51100000000E-03 0. -1.
        -11    1    3    3    0    0  0.13749055231E+02  0.13312514599E+02 -0.42906368000E+01  0.19612983687E+02  0.51100000000E-03 0.  1.
         12    1    3    3    0    0  0.64872015421E+01  0.12138930728E+02 -0.15666865213E+02  0.20853970573E+02  0.00000000000E+00 0. -1.
</event>
<event>
 7    1  0.2294216E-010  0.4778726E+02  0.7816164E-02  0.1312668E+00
        -11   -1    0    0    0    0  0.00000000000E+00  0.00000000000E+00  0.45593999997E+02  0.45594000000E+02  0.51100000000E-03 0. -1.
         11   -1    0    0    0    0 -0.00000000000E+00 -0.00000000000E+00 -0.45593999997E+02  0.45594000000E+02  0.51100000000E-03 0.  1.
    9900012    2    1    2    0    0  0.56700485019E+01 -0.15644206536E+02  0.40084076310E+02  0.47787264732E+02  0.19999971221E+02 0.  0.
        -12    1    1    2    0    0 -0.56700485019E+01  0.15644206536E+02 -0.40084076310E+02  0.43400735268E+02  0.00000000000E+00 0.  1.
         11    1    3    3    0    0 -0.28408886312E+01 -0.16563786865E+01  0.15629180890E+02  0.15971397376E+02  0.51100000000E-03 0. -1.
        -11    1    3    3    0    0  0.22823519692E+01  0.14850665467E+01  0.73819883657E+00  0.28212569793E+01  0.51100000000E-03 0.  1.
        -12    1    3    3    0    0  0.62285851639E+01 -0.15472894397E+02  0.23716696583E+02  0.28994610378E+02  0.00000000000E+00 0.  1.
</event>
<event>
 7    1  0.2294216E-010  0.4778727E+02  0.7816164E-02  0.1312668E+00
        -11   -1    0    0    0    0  0.00000000000E+00  0.00000000000E+00  0.45593999997E+02  0.45594000000E+02  0.51100000000E-03 0. -1.
         11   -1    0    0    0    0 -0.00000000000E+00 -0.00000000000E+00 -0.45593999997E+02  0.45594000000E+02  0.51100000000E-03 0.  1.
    9900012    2    1    2    0    0  0.48175765372E+00  0.33994909405E+02  0.26976613352E+02  0.47787267013E+02  0.19999981619E+02 0.  0.
        -12    1    1    2    0    0 -0.48175765372E+00 -0.33994909405E+02 -0.26976613352E+02  0.43400732987E+02  0.00000000000E+00 0.  1.
         11    1    3    3    0    0 -0.44052298165E+00  0.16307563628E+02  0.43739056035E+01  0.16889693380E+02  0.51100000000E-03 0. -1.
        -11    1    3    3    0    0 -0.48877735291E+01  0.10536925427E+02  0.10278140061E+02  0.15509909442E+02  0.51100000000E-03 0.  1.
        -12    1    3    3    0    0  0.58100541645E+01  0.71504203489E+01  0.12324567687E+02  0.15387664190E+02  0.00000000000E+00 0.  1.
</event>
<event>
 7    1  0.2294216E-010  0.4778727E+02  0.7816164E-02  0.1312668E+00
        -11   -1    0    0    0    0  0.00000000000E+00  0.00000000000E+00  0.45593999997E+02  0.45594000000E+02  0.51100000000E-03 0.  1.
         11   -1    0    0    0    0 -0.00000000000E+00 -0.00000000000E+00 -0.45593999997E+02  0.45594000000E+02  0.51100000000E-03 0. -1.
    9900012    2    1    2    0    0 -0.10300349884E+02 -0.33896833352E+02 -0.25070519737E+02  0.47787268682E+02  0.19999989228E+02 0.  0.
        -12    1    1    2    0    0  0.10300349884E+02  0.33896833352E+02  0.25070519737E+02  0.43400731318E+02  0.00000000000E+00 0.  1.
         11    1    3    3    0    0 -0.14145663023E+01  0.34907360023E+00 -0.17885742439E+01  0.23069131516E+01  0.51100000000E-03 0. -1.
        -11    1    3    3    0    0 -0.40139181893E+01 -0.21518157982E+02 -0.46193816778E+01  0.22371440488E+02  0.51100000000E-03 0.  1.
        -12    1    3    3    0    0 -0.48718653921E+01 -0.12727748971E+02 -0.18662563816E+02  0.23108915042E+02  0.00000000000E+00 0.  1.
</event>
<event>
 7    1  0.2294216E-010  0.4778727E+02  0.7816164E-02  0.1312668E+00
        -11   -1    0    0    0    0  0.00000000000E+00  0.00000000000E+00  0.45593999997E+02  0.45594000000E+02  0.51100000000E-03 0.  1.
         11   -1    0    0    0    0 -0.00000000000E+00 -0.00000000000E+00 -0.45593999997E+02  0.45594000000E+02  0.51100000000E-03 0. -1.
    9900012    2    1    2    0    0 -0.59843831895E+01  0.23527681869E+01 -0.42921733403E+02  0.47787267764E+02  0.19999985042E+02 0.  0.
        -12    1    1    2    0    0  0.59843831895E+01 -0.23527681869E+01  0.42921733403E+02  0.43400732236E+02  0.00000000000E+00 0.  1.
         11    1    3    3    0    0 -0.76804978869E+01 -0.30121902788E+01 -0.14763237093E+02  0.16912022582E+02  0.51100000000E-03 0. -1.
        -11    1    3    3    0    0 -0.32788767236E+01  0.10512766645E+01 -0.20447231843E+02  0.20735127333E+02  0.51100000000E-03 0.  1.
        -12    1    3    3    0    0  0.49749914210E+01  0.43136818011E+01 -0.77112644669E+01  0.10140117849E+02  0.00000000000E+00 0.  1.
</event>
<event>
 7    1  0.2294216E-010  0.4778727E+02  0.7816164E-02  0.1312668E+00
        -11   -1    0    0    0    0  0.00000000000E+00  0.00000000000E+00  0.45593999997E+02  0.45594000000E+02  0.51100000000E-03 0.  1.
         11   -1    0    0    0    0 -0.00000000000E+00 -0.00000000000E+00 -0.45593999997E+02  0.45594000000E+02  0.51100000000E-03 0. -1.
    9900012    2    1    2    0    0  0.11451956932E+02  0.90238010163E+01 -0.40878442206E+02  0.47787270288E+02  0.19999996550E+02 0.  0.
        -12    1    1    2    0    0 -0.11451956932E+02 -0.90238010163E+01  0.40878442206E+02  0.43400729712E+02  0.00000000000E+00 0.  1.
         11    1    3    3    0    0  0.14610959250E+01 -0.31941078093E+00 -0.22595077341E+02  0.22644521299E+02  0.51100000000E-03 0. -1.
        -11    1    3    3    0    0 -0.15807053113E+01 -0.46358862151E+00 -0.40403604250E+00  0.16961099835E+01  0.51100000000E-03 0.  1.
         12    1    3    3    0    0  0.11571566318E+02  0.98068004188E+01 -0.17879328823E+02  0.23446639006E+02  0.00000000000E+00 0. -1.
</event>
<event>
 7    1  0.2294216E-010  0.4778727E+02  0.7816164E-02  0.1312668E+00
        -11   -1    0    0    0    0  0.00000000000E+00  0.00000000000E+00  0.45593999997E+02  0.45594000000E+02  0.51100000000E-03 0.  1.
         11   -1    0    0    0    0 -0.00000000000E+00 -0.00000000000E+00 -0.45593999997E+02  0.45594000000E+02  0.51100000000E-03 0. -1.
    9900012    2    1    2    0    0  0.84844727732E+01 -0.39657134434E+02 -0.15457962561E+02  0.47787271938E+02  0.20000004074E+02 0.  0.
        -12    1    1    2    0    0 -0.84844727732E+01  0.39657134434E+02  0.15457962561E+02  0.43400728062E+02  0.00000000000E+00 0.  1.
         11    1    3    3    0    0  0.29647218859E+01 -0.23249025799E+02 -0.10312697073E+02  0.25605829368E+02  0.51100000000E-03 0. -1.
        -11    1    3    3    0    0  0.18145133759E+00 -0.36184071076E+01 -0.73059807229E+01  0.81549463008E+01  0.51100000000E-03 0.  1.
        -12    1    3    3    0    0  0.53382995497E+01 -0.12789701528E+02  0.21607152352E+01  0.14026496269E+02  0.00000000000E+00 0.  1.
</event>
<event>
 7    1  0.2294216E-010  0.4778727E+02  0.7816164E-02  0.1312668E+00
        -11   -1    0    0    0    0  0.00000000000E+00  0.00000000000E+00  0.45593999997E+02  0.45594000000E+02  0.51100000000E-03 0.  1.
         11   -1    0    0    0    0 -0.00000000000E+00 -0.00000000000E+00 -0.45593999997E+02  0.45594000000E+02  0.51100000000E-03 0. -1.
    9900012    2    1    2    0    0  0.33250399529E+02 -0.18127739653E+02 -0.21199522035E+02  0.47787265579E+02  0.19999975082E+02 0.  0.
        -12    1    1    2    0    0 -0.33250399529E+02  0.18127739653E+02  0.21199522035E+02  0.43400734421E+02  0.00000000000E+00 0.  1.
         11    1    3    3    0    0  0.15274738650E+02 -0.15662331642E+02 -0.93712169787E+01  0.23800125655E+02  0.51100000000E-03 0. -1.
        -11    1    3    3    0    0  0.37169421064E+01 -0.12742163517E+01  0.17134724385E+01  0.42866390088E+01  0.51100000000E-03 0.  1.
        -12    1    3    3    0    0  0.14258718773E+02 -0.11911916598E+01 -0.13541777494E+02  0.19700500916E+02  0.00000000000E+00 0.  1.
</event>
<event>
 7    1  0.2294216E-010  0.4778725E+02  0.7816164E-02  0.1312668E+00
        -11   -1    0    0    0    0  0.00000000000E+00  0.00000000000E+00  0.45593999997E+02  0.45594000000E+02  0.51100000000E-03 0.  1.
         11   -1    0    0    0    0 -0.00000000000E+00 -0.00000000000E+00 -0.45593999997E+02  0.45594000000E+02  0.51100000000E-03 0. -1.
    9900012    2    1    2    0    0  0.37478118950E+02 -0.21881119197E+02  0.48242768364E+00  0.47787245239E+02  0.19999882341E+02 0.  0.
        -12    1    1    2    0    0 -0.37478118950E+02  0.21881119197E+02 -0.48242768364E+00  0.43400754761E+02  0.00000000000E+00 0.  1.
         11    1    3    3    0    0 -0.10722330670E+01 -0.64354158048E+00 -0.55838971099E+00  0.13695359967E+01  0.51100000000E-03 0. -1.
        -11    1    3    3    0    0  0.13569847443E+02 -0.11980249395E+01 -0.35184370706E+01  0.14069663218E+02  0.51100000000E-03 0.  1.
         12    1    3    3    0    0  0.24980504574E+02 -0.20039552677E+02  0.45592544652E+01  0.32348046024E+02  0.00000000000E+00 0. -1.
</event>
<event>
 7    1  0.2294216E-010  0.4778727E+02  0.7816164E-02  0.1312668E+00
        -11   -1    0    0    0    0  0.00000000000E+00  0.00000000000E+00  0.45593999997E+02  0.45594000000E+02  0.51100000000E-03 0. -1.
         11   -1    0    0    0    0 -0.00000000000E+00 -0.00000000000E+00 -0.45593999997E+02  0.45594000000E+02  0.51100000000E-03 0.  1.
    9900012    2    1    2    0    0 -0.12473002433E+02  0.21633089902E+02  0.35497279599E+02  0.47787271580E+02  0.20000002444E+02 0.  0.
        -12    1    1    2    0    0  0.12473002433E+02 -0.21633089902E+02 -0.35497279599E+02  0.43400728420E+02  0.00000000000E+00 0.  1.
         11    1    3    3    0    0 -0.12468829062E+02  0.10034389070E+02  0.18420879350E+02  0.24402652694E+02  0.51100000000E-03 0. -1.
        -11    1    3    3    0    0 -0.14317554723E+01 -0.18072253312E+01  0.39164967022E+01  0.45447699402E+01  0.51100000000E-03 0.  1.
         12    1    3    3    0    0  0.14275821018E+01  0.13405926164E+02  0.13159903547E+02  0.18839848947E+02  0.00000000000E+00 0. -1.
</event>
<event>
 7    1  0.2294216E-010  0.4778730E+02  0.7816164E-02  0.1312668E+00
        -11   -1    0    0    0    0  0.00000000000E+00  0.00000000000E+00  0.45593999997E+02  0.45594000000E+02  0.51100000000E-03 0.  1.
         11   -1    0    0    0    0 -0.00000000000E+00 -0.00000000000E+00 -0.45593999997E+02  0.45594000000E+02  0.51100000000E-03 0. -1.
    9900012    2    1    2    0    0 -0.37080701764E+01  0.37879088147E+02 -0.20857749290E+02  0.47787299444E+02  0.20000129485E+02 0.  0.
        -12    1    1    2    0    0  0.37080701764E+01 -0.37879088147E+02  0.20857749290E+02  0.43400700556E+02  0.00000000000E+00 0.  1.
         11    1    3    3    0    0 -0.79002071214E+00  0.37311577398E+01  0.29691308869E+00  0.38254187284E+01  0.51100000000E-03 0. -1.
        -11    1    3    3    0    0 -0.53751814279E+01  0.70825284079E+01 -0.12694946031E+02  0.15498917350E+02  0.51100000000E-03 0.  1.
         12    1    3    3    0    0  0.24571319637E+01  0.27065401999E+02 -0.84597163481E+01  0.28462963366E+02  0.00000000000E+00 0. -1.
</event>
<event>
 7    1  0.2294216E-010  0.4778727E+02  0.7816164E-02  0.1312668E+00
        -11   -1    0    0    0    0  0.00000000000E+00  0.00000000000E+00  0.45593999997E+02  0.45594000000E+02  0.51100000000E-03 0.  1.
         11   -1    0    0    0    0 -0.00000000000E+00 -0.00000000000E+00 -0.45593999997E+02  0.45594000000E+02  0.51100000000E-03 0. -1.
    9900012    2    1    2    0    0 -0.10058664061E+02  0.42162545424E+02  0.21831454356E+01  0.47787273239E+02  0.20000010007E+02 0.  0.
        -12    1    1    2    0    0  0.10058664061E+02 -0.42162545424E+02 -0.21831454356E+01  0.43400726761E+02  0.00000000000E+00 0.  1.
         11    1    3    3    0    0 -0.88204163774E+01  0.87475496014E+01  0.29092446992E+01  0.12758647032E+02  0.51100000000E-03 0. -1.
        -11    1    3    3    0    0 -0.42873647940E+01  0.81592217765E+01 -0.24313832212E+01  0.95323670462E+01  0.51100000000E-03 0.  1.
        -12    1    3    3    0    0  0.30491171101E+01  0.25255774047E+02  0.17052839576E+01  0.25496259161E+02  0.00000000000E+00 0.  1.
</event>
<event>
 7    1  0.2294216E-010  0.4778728E+02  0.7816164E-02  0.1312668E+00
        -11   -1    0    0    0    0  0.00000000000E+00  0.00000000000E+00  0.45593999997E+02  0.45594000000E+02  0.51100000000E-03 0.  1.
         11   -1    0    0    0    0 -0.00000000000E+00 -0.00000000000E+00 -0.45593999997E+02  0.45594000000E+02  0.51100000000E-03 0. -1.
    9900012    2    1    2    0    0 -0.19076218508E+02  0.15339463444E+02 -0.35838826199E+02  0.47787277488E+02  0.20000029377E+02 0.  0.
        -12    1    1    2    0    0  0.19076218508E+02 -0.15339463444E+02  0.35838826199E+02  0.43400722512E+02  0.00000000000E+00 0.  1.
         11    1    3    3    0    0 -0.66663410094E+01  0.11863200708E+02 -0.18813916758E+02  0.23219369017E+02  0.51100000000E-03 0. -1.
        -11    1    3    3    0    0  0.23172881328E+01 -0.50026644218E+00 -0.31870157702E+01  0.39720474046E+01  0.51100000000E-03 0.  1.
        -12    1    3    3    0    0 -0.14727165631E+02  0.39765291778E+01 -0.13837893671E+02  0.20595861066E+02  0.00000000000E+00 0.  1.
</event>
<event>
 7    1  0.2294216E-010  0.4778727E+02  0.7816164E-02  0.1312668E+00
        -11   -1    0    0    0    0  0.00000000000E+00  0.00000000000E+00  0.45593999997E+02  0.45594000000E+02  0.51100000000E-03 0.  1.
         11   -1    0    0    0    0 -0.00000000000E+00 -0.00000000000E+00 -0.45593999997E+02  0.45594000000E+02  0.51100000000E-03 0. -1.
    9900012    2    1    2    0    0  0.30655164011E+01  0.42163231374E+02  0.98228185603E+01  0.47787271491E+02  0.20000002035E+02 0.  0.
        -12    1    1    2    0    0 -0.30655164011E+01 -0.42163231374E+02 -0.98228185603E+01  0.43400728509E+02  0.00000000000E+00 0.  1.
         11    1    3    3    0    0  0.69932335566E+01  0.23881996678E+02  0.12859651131E+01  0.24918041405E+02  0.51100000000E-03 0. -1.
        -11    1    3    3    0    0  0.13270891759E+01 -0.48059807302E+00 -0.35031449458E+00  0.14542560623E+01  0.51100000000E-03 0.  1.
        -12    1    3    3    0    0 -0.52548063314E+01  0.18761832768E+02  0.88871679418E+01  0.21414974024E+02  0.00000000000E+00 0.  1.
</event>
<event>
 7    1  0.2294216E-010  0.4778728E+02  0.7816164E-02  0.1312668E+00
        -11   -1    0    0    0    0  0.00000000000E+00  0.00000000000E+00  0.45593999997E+02  0.45594000000E+02  0.51100000000E-03 0. -1.
         11   -1    0    0    0    0 -0.00000000000E+00 -0.00000000000E+00 -0.45593999997E+02  0.45594000000E+02  0.51100000000E-03 0.  1.
    9900012    2    1    2    0    0  0.32900878624E+02  0.23217774211E+02 -0.16189181444E+02  0.47787280543E+02  0.20000043307E+02 0.  0.
        -12    1    1    2    0    0 -0.32900878624E+02 -0.23217774211E+02  0.16189181444E+02  0.43400719457E+02  0.00000000000E+00 0.  1.
         11    1    3    3    0    0  0.93440095911E+01  0.49486230603E+01  0.28215615213E+01  0.10943518406E+02  0.51100000000E-03 0. -1.
        -11    1    3    3    0    0  0.15127993986E+02  0.59068752875E+01 -0.71225464102E+01  0.17733528846E+02  0.51100000000E-03 0.  1.
        -12    1    3    3    0    0  0.84288750470E+01  0.12362275863E+02 -0.11888196556E+02  0.19110233291E+02  0.00000000000E+00 0.  1.
</event>
<event>
 7    1  0.2294216E-010  0.4778726E+02  0.7816164E-02  0.1312668E+00
        -11   -1    0    0    0    0  0.00000000000E+00  0.00000000000E+00  0.45593999997E+02  0.45594000000E+02  0.51100000000E-03 0.  1.
         11   -1    0    0    0    0 -0.00000000000E+00 -0.00000000000E+00 -0.45593999997E+02  0.45594000000E+02  0.51100000000E-03 0. -1.
    9900012    2    1    2    0    0  0.14446300414E+02  0.17851613452E+02 -0.36827275708E+02  0.47787263433E+02  0.19999965298E+02 0.  0.
        -12    1    1    2    0    0 -0.14446300414E+02 -0.17851613452E+02  0.36827275708E+02  0.43400736567E+02  0.00000000000E+00 0.  1.
         11    1    3    3    0    0  0.20138327978E+01  0.23144786215E+01  0.34838256242E+00  0.30876697521E+01  0.51100000000E-03 0. -1.
        -11    1    3    3    0    0  0.21985731827E+00  0.89078498075E+01 -0.65190026394E+01  0.11040630467E+02  0.51100000000E-03 0.  1.
         12    1    3    3    0    0  0.12212610298E+02  0.66292850231E+01 -0.30656655631E+02  0.33658963214E+02  0.00000000000E+00 0. -1.
</event>
<event>
 7    1  0.2294216E-010  0.4778727E+02  0.7816164E-02  0.1312668E+00
        -11   -1    0    0    0    0  0.00000000000E+00  0.00000000000E+00  0.45593999997E+02  0.45594000000E+02  0.51100000000E-03 0.  1.
         11   -1    0    0    0    0 -0.00000000000E+00 -0.00000000000E+00 -0.45593999997E+02  0.45594000000E+02  0.51100000000E-03 0. -1.
    9900012    2    1    2    0    0 -0.10602057358E+02  0.15160609937E+02 -0.39260354635E+02  0.47787272357E+02  0.20000005984E+02 0.  0.
        -12    1    1    2    0    0  0.10602057358E+02 -0.15160609937E+02  0.39260354635E+02  0.43400727643E+02  0.00000000000E+00 0.  1.
         11    1    3    3    0    0  0.31350700186E+01  0.40917220867E+00 -0.36178842758E+01  0.48047031971E+01  0.51100000000E-03 0. -1.
        -11    1    3    3    0    0 -0.48193237366E+01  0.16343796352E+01 -0.14518854768E+01  0.52919797589E+01  0.51100000000E-03 0.  1.
         12    1    3    3    0    0 -0.89178036406E+01  0.13117058094E+02 -0.34190584882E+02  0.37690589401E+02  0.00000000000E+00 0. -1.
</event>
<event>
 7    1  0.2294216E-010  0.4778727E+02  0.7816164E-02  0.1312668E+00
        -11   -1    0    0    0    0  0.00000000000E+00  0.00000000000E+00  0.45593999997E+02  0.45594000000E+02  0.51100000000E-03 0.  1.
         11   -1    0    0    0    0 -0.00000000000E+00 -0.00000000000E+00 -0.45593999997E+02  0.45594000000E+02  0.51100000000E-03 0. -1.
    9900012    2    1    2    0    0  0.39155927032E+02  0.11183100340E+02  0.15012482365E+02  0.47787274410E+02  0.20000015344E+02 0.  0.
        -12    1    1    2    0    0 -0.39155927032E+02 -0.11183100340E+02 -0.15012482365E+02  0.43400725590E+02  0.00000000000E+00 0.  1.
         11    1    3    3    0    0  0.89677183417E+01  0.40530689412E+01  0.15030158363E+01  0.99552195839E+01  0.51100000000E-03 0. -1.
        -11    1    3    3    0    0  0.13245737554E+02 -0.53599232977E+01  0.54448660911E+01  0.15291334412E+02  0.51100000000E-03 0.  1.
        -12    1    3    3    0    0  0.16942471137E+02  0.12489954696E+02  0.80646004380E+01  0.22540720414E+02  0.00000000000E+00 0.  1.
</event>
<event>
 7    1  0.2294216E-010  0.4778727E+02  0.7816164E-02  0.1312668E+00
        -11   -1    0    0    0    0  0.00000000000E+00  0.00000000000E+00  0.45593999997E+02  0.45594000000E+02  0.51100000000E-03 0.  1.
         11   -1    0    0    0    0 -0.00000000000E+00 -0.00000000000E+00 -0.45593999997E+02  0.45594000000E+02  0.51100000000E-03 0. -1.
    9900012    2    1    2    0    0  0.26583473564E+02 -0.33157688184E+02 -0.88039701274E+01  0.47787271407E+02  0.20000001652E+02 0.  0.
        -12    1    1    2    0    0 -0.26583473564E+02  0.33157688184E+02  0.88039701274E+01  0.43400728593E+02  0.00000000000E+00 0.  1.
         11    1    3    3    0    0  0.23668236771E+01 -0.92925235230E+01  0.28515814643E+00  0.95934437598E+01  0.51100000000E-03 0. -1.
        -11    1    3    3    0    0  0.67023170056E+01 -0.25645976043E+01  0.33762570483E+01  0.79307834439E+01  0.51100000000E-03 0.  1.
         12    1    3    3    0    0  0.17514332881E+02 -0.21300567057E+02 -0.12465385322E+02  0.30263044203E+02  0.00000000000E+00 0. -1.
</event>
<event>
 7    1  0.2294216E-010  0.4778723E+02  0.7816164E-02  0.1312668E+00
        -11   -1    0    0    0    0  0.00000000000E+00  0.00000000000E+00  0.45593999997E+02  0.45594000000E+02  0.51100000000E-03 0. -1.
         11   -1    0    0    0    0 -0.00000000000E+00 -0.00000000000E+00 -0.45593999997E+02  0.45594000000E+02  0.51100000000E-03 0.  1.
    9900012    2    1    2    0    0  0.41208440586E+02  0.82060533019E+01  0.10869762787E+02  0.47787232387E+02  0.19999823745E+02 0.  0.
        -12    1    1    2    0    0 -0.41208440586E+02 -0.82060533019E+01 -0.10869762787E+02  0.43400767613E+02  0.00000000000E+00 0.  1.
         11    1    3    3    0    0  0.21196988026E+02  0.53162743091E+01  0.98665245035E+01  0.23977559925E+02  0.51100000000E-03 0. -1.
        -11    1    3    3    0    0  0.11615757380E+02  0.28578707022E+01  0.66550782526E+01  0.13688802405E+02  0.51100000000E-03 0.  1.
        -12    1    3    3    0    0  0.83956951798E+01  0.31908290665E-01 -0.56518399686E+01  0.10120870058E+02  0.00000000000E+00 0.  1.
</event>
<event>
 7    1  0.2294216E-010  0.4778727E+02  0.7816164E-02  0.1312668E+00
        -11   -1    0    0    0    0  0.00000000000E+00  0.00000000000E+00  0.45593999997E+02  0.45594000000E+02  0.51100000000E-03 0.  1.
         11   -1    0    0    0    0 -0.00000000000E+00 -0.00000000000E+00 -0.45593999997E+02  0.45594000000E+02  0.51100000000E-03 0. -1.
    9900012    2    1    2    0    0  0.35099652439E+02  0.19997674026E+02 -0.15866026195E+02  0.47787270110E+02  0.19999995738E+02 0.  0.
        -12    1    1    2    0    0 -0.35099652439E+02 -0.19997674026E+02  0.15866026195E+02  0.43400729890E+02  0.00000000000E+00 0.  1.
         11    1    3    3    0    0  0.73216657462E+01  0.84925803673E+01 -0.10639035799E+02  0.15457030555E+02  0.51100000000E-03 0. -1.
        -11    1    3    3    0    0  0.19282581179E+00 -0.56677827963E+00 -0.19519246963E+01  0.20416732581E+01  0.51100000000E-03 0.  1.
        -12    1    3    3    0    0  0.27585160881E+02  0.12071871939E+02 -0.32750656996E+01  0.30288566296E+02  0.00000000000E+00 0.  1.
</event>
<event>
 7    1  0.2294216E-010  0.4778727E+02  0.7816164E-02  0.1312668E+00
        -11   -1    0    0    0    0  0.00000000000E+00  0.00000000000E+00  0.45593999997E+02  0.45594000000E+02  0.51100000000E-03 0. -1.
         11   -1    0    0    0    0 -0.00000000000E+00 -0.00000000000E+00 -0.45593999997E+02  0.45594000000E+02  0.51100000000E-03 0.  1.
    9900012    2    1    2    0    0  0.16058799278E+02  0.21097839044E+02  0.34360139880E+02  0.47787273519E+02  0.20000011280E+02 0.  0.
        -12    1    1    2    0    0 -0.16058799278E+02 -0.21097839044E+02 -0.34360139880E+02  0.43400726481E+02  0.00000000000E+00 0.  1.
         11    1    3    3    0    0 -0.20890221697E+01  0.23307619442E+01  0.25777925632E+00  0.31405278652E+01  0.51100000000E-03 0. -1.
        -11    1    3    3    0    0  0.25083697526E+01  0.97271099068E+00  0.11825469693E+02  0.12127646894E+02  0.51100000000E-03 0.  1.
         12    1    3    3    0    0  0.15639451695E+02  0.17794366109E+02  0.22276890931E+02  0.32519098759E+02  0.00000000000E+00 0. -1.
</event>
<event>
 7    1  0.2294216E-010  0.4778727E+02  0.7816164E-02  0.1312668E+00
        -11   -1    0    0    0    0  0.00000000000E+00  0.00000000000E+00  0.45593999997E+02  0.45594000000E+02  0.51100000000E-03 0. -1.
         11   -1    0    0    0    0 -0.00000000000E+00 -0.00000000000E+00 -0.45593999997E+02  0.45594000000E+02  0.51100000000E-03 0.  1.
    9900012    2    1    2    0    0 -0.10355409179E+02  0.37683693634E+02  0.18876660078E+02  0.47787267738E+02  0.19999984926E+02 0.  0.
        -12    1    1    2    0    0  0.10355409179E+02 -0.37683693634E+02 -0.18876660078E+02  0.43400732262E+02  0.00000000000E+00 0.  1.
         11    1    3    3    0    0  0.64793604995E+00  0.40498272321E+01  0.52008744421E+01  0.66234444935E+01  0.51100000000E-03 0.  1.
        -11    1    3    3    0    0 -0.32126804497E+00  0.13125739301E+01 -0.29760594787E+01  0.32684849335E+01  0.51100000000E-03 0. -1.
         12    1    3    3    0    0 -0.10682077184E+02  0.32321292472E+02  0.16651845115E+02  0.37895338311E+02  0.00000000000E+00 0. -1.
</event>
<event>
 7    1  0.2294216E-010  0.4778727E+02  0.7816164E-02  0.1312668E+00
        -11   -1    0    0    0    0  0.00000000000E+00  0.00000000000E+00  0.45593999997E+02  0.45594000000E+02  0.51100000000E-03 0. -1.
         11   -1    0    0    0    0 -0.00000000000E+00 -0.00000000000E+00 -0.45593999997E+02  0.45594000000E+02  0.51100000000E-03 0.  1.
    9900012    2    1    2    0    0 -0.24527676177E+02 -0.35409044414E+02  0.53118739728E+01  0.47787270397E+02  0.19999997048E+02 0.  0.
        -12    1    1    2    0    0  0.24527676177E+02  0.35409044414E+02 -0.53118739728E+01  0.43400729603E+02  0.00000000000E+00 0.  1.
         11    1    3    3    0    0 -0.13642772568E+02 -0.26472263090E+02  0.67366460698E+01  0.30533397403E+02  0.51100000000E-03 0. -1.
        -11    1    3    3    0    0 -0.10247312525E+02 -0.10999487295E+02 -0.13484776466E+01  0.15093525995E+02  0.51100000000E-03 0.  1.
        -12    1    3    3    0    0 -0.63759108438E+00  0.20627059707E+01 -0.76294450401E-01  0.21603469989E+01  0.00000000000E+00 0.  1.
</event>
<event>
 7    1  0.2294216E-010  0.4778727E+02  0.7816164E-02  0.1312668E+00
        -11   -1    0    0    0    0  0.00000000000E+00  0.00000000000E+00  0.45593999997E+02  0.45594000000E+02  0.51100000000E-03 0.  1.
         11   -1    0    0    0    0 -0.00000000000E+00 -0.00000000000E+00 -0.45593999997E+02  0.45594000000E+02  0.51100000000E-03 0. -1.
    9900012    2    1    2    0    0 -0.32245305053E+02 -0.20750199481E+02 -0.20329613054E+02  0.47787266788E+02  0.19999980591E+02 0.  0.
        -12    1    1    2    0    0  0.32245305053E+02  0.20750199481E+02  0.20329613054E+02  0.43400733212E+02  0.00000000000E+00 0.  1.
         11    1    3    3    0    0 -0.82737185394E+00  0.11882329940E+01 -0.61167172678E+00  0.15718092744E+01  0.51100000000E-03 0.  1.
        -11    1    3    3    0    0 -0.85852317847E+01  0.18656220186E+01 -0.34646792873E+01  0.94440856169E+01  0.51100000000E-03 0. -1.
         12    1    3    3    0    0 -0.22832701415E+02 -0.23804054493E+02 -0.16253262039E+02  0.36771371896E+02  0.00000000000E+00 0. -1.
</event>
<event>
 7    1  0.2294216E-010  0.4778728E+02  0.7816164E-02  0.1312668E+00
        -11   -1    0    0    0    0  0.00000000000E+00  0.00000000000E+00  0.45593999997E+02  0.45594000000E+02  0.51100000000E-03 0. -1.
         11   -1    0    0    0    0 -0.00000000000E+00 -0.00000000000E+00 -0.45593999997E+02  0.45594000000E+02  0.51100000000E-03 0.  1.
    9900012    2    1    2    0    0 -0.31516251482E+02  0.10380465508E+02  0.27974885126E+02  0.47787281464E+02  0.20000047505E+02 0.  0.
        -12    1    1    2    0    0  0.31516251482E+02 -0.10380465508E+02 -0.27974885126E+02  0.43400718536E+02  0.00000000000E+00 0.  1.
         11    1    3    3    0    0 -0.11685718539E+01 -0.23100854989E+01  0.29504924849E+01  0.39252339235E+01  0.51100000000E-03 0. -1.
        -11    1    3    3    0    0 -0.93324816305E+01 -0.28265055854E+01  0.50753564688E+01  0.10992888190E+02  0.51100000000E-03 0.  1.
         12    1    3    3    0    0 -0.21015197998E+02  0.15517056592E+02  0.19949036173E+02  0.32869159350E+02  0.00000000000E+00 0. -1.
</event>
<event>
 7    1  0.2294216E-010  0.4778731E+02  0.7816164E-02  0.1312668E+00
        -11   -1    0    0    0    0  0.00000000000E+00  0.00000000000E+00  0.45593999997E+02  0.45594000000E+02  0.51100000000E-03 0.  1.
         11   -1    0    0    0    0 -0.00000000000E+00 -0.00000000000E+00 -0.45593999997E+02  0.45594000000E+02  0.51100000000E-03 0. -1.
    9900012    2    1    2    0    0  0.25686461408E+02  0.62798905531E+01 -0.34414941641E+02  0.47787314139E+02  0.20000196486E+02 0.  0.
        -12    1    1    2    0    0 -0.25686461408E+02 -0.62798905531E+01  0.34414941641E+02  0.43400685861E+02  0.00000000000E+00 0.  1.
         11    1    3    3    0    0  0.27504294073E+01  0.18338111482E+01 -0.57823825111E+01  0.66606060549E+01  0.51100000000E-03 0. -1.
        -11    1    3    3    0    0  0.25808475032E+02  0.42940622650E+01 -0.23147290253E+02  0.34932984421E+02  0.51100000000E-03 0.  1.
         12    1    3    3    0    0 -0.28724430310E+01  0.15201713983E+00 -0.54852688763E+01  0.61937236637E+01  0.00000000000E+00 0. -1.
</event>
<event>
 7    1  0.2294216E-010  0.4778726E+02  0.7816164E-02  0.1312668E+00
        -11   -1    0    0    0    0  0.00000000000E+00  0.00000000000E+00  0.45593999997E+02  0.45594000000E+02  0.51100000000E-03 0.  1.
         11   -1    0    0    0    0 -0.00000000000E+00 -0.00000000000E+00 -0.45593999997E+02  0.45594000000E+02  0.51100000000E-03 0. -1.
    9900012    2    1    2    0    0 -0.41916708564E+02  0.17237925563E+01 -0.11119452385E+02  0.47787261079E+02  0.19999954562E+02 0.  0.
        -12    1    1    2    0    0  0.41916708564E+02 -0.17237925563E+01  0.11119452385E+02  0.43400738921E+02  0.00000000000E+00 0.  1.
         11    1    3    3    0    0 -0.96729485071E+01 -0.71240215880E+00 -0.95648859829E+01  0.13622059088E+02  0.51100000000E-03 0. -1.
        -11    1    3    3    0    0  0.86799286077E+00  0.11670126260E+00  0.28599588660E+00  0.92131682895E+00  0.51100000000E-03 0.  1.
        -12    1    3    3    0    0 -0.33111752917E+02  0.23194934525E+01 -0.18405622888E+01  0.33243885162E+02  0.00000000000E+00 0.  1.
</event>
<event>
 7    1  0.2294216E-010  0.4778727E+02  0.7816164E-02  0.1312668E+00
        -11   -1    0    0    0    0  0.00000000000E+00  0.00000000000E+00  0.45593999997E+02  0.45594000000E+02  0.51100000000E-03 0.  1.
         11   -1    0    0    0    0 -0.00000000000E+00 -0.00000000000E+00 -0.45593999997E+02  0.45594000000E+02  0.51100000000E-03 0. -1.
    9900012    2    1    2    0    0  0.36539216229E+02  0.12645920804E+02 -0.19712678397E+02  0.47787270453E+02  0.19999997305E+02 0.  0.
        -12    1    1    2    0    0 -0.36539216229E+02 -0.12645920804E+02  0.19712678397E+02  0.43400729547E+02  0.00000000000E+00 0.  1.
         11    1    3    3    0    0  0.13405335397E+02  0.46848900931E+01 -0.68862387853E+01  0.15781999149E+02  0.51100000000E-03 0. -1.
        -11    1    3    3    0    0  0.56861127212E+01  0.29140728458E+01  0.37556022274E+01  0.74113593072E+01  0.51100000000E-03 0.  1.
         12    1    3    3    0    0  0.17447768111E+02  0.50469578652E+01 -0.16582041839E+02  0.24593911997E+02  0.00000000000E+00 0. -1.
</event>
<event>
 7    1  0.2294216E-010  0.4778727E+02  0.7816164E-02  0.1312668E+00
        -11   -1    0    0    0    0  0.00000000000E+00  0.00000000000E+00  0.45593999997E+02  0.45594000000E+02  0.51100000000E-03 0.  1.
         11   -1    0    0    0    0 -0.00000000000E+00 -0.00000000000E+00 -0.45593999997E+02  0.45594000000E+02  0.51100000000E-03 0. -1.
    9900012    2    1    2    0    0 -0.30630098323E+02 -0.50490108831E+01 -0.30330308556E+02  0.47787273609E+02  0.20000011691E+02 0.  0.
        -12    1    1    2    0    0  0.30630098323E+02  0.50490108831E+01  0.30330308556E+02  0.43400726391E+02  0.00000000000E+00 0.  1.
         11    1    3    3    0    0 -0.17491244512E+02 -0.42148534858E+01 -0.22564960449E+02  0.28859765502E+02  0.51100000000E-03 0. -1.
        -11    1    3    3    0    0 -0.13478404703E+02 -0.35268771088E+01 -0.82189384736E+01  0.16175821629E+02  0.51100000000E-03 0.  1.
        -12    1    3    3    0    0  0.33955089224E+00  0.26927197115E+01  0.45359036598E+00  0.27516864780E+01  0.00000000000E+00 0.  1.
</event>
<event>
 7    1  0.2294216E-010  0.4778727E+02  0.7816164E-02  0.1312668E+00
        -11   -1    0    0    0    0  0.00000000000E+00  0.00000000000E+00  0.45593999997E+02  0.45594000000E+02  0.51100000000E-03 0. -1.
         11   -1    0    0    0    0 -0.00000000000E+00 -0.00000000000E+00 -0.45593999997E+02  0.45594000000E+02  0.51100000000E-03 0.  1.
    9900012    2    1    2    0    0  0.36776375314E+02 -0.16117324838E+02  0.16472799503E+02  0.47787273454E+02  0.20000010988E+02 0.  0.
        -12    1    1    2    0    0 -0.36776375314E+02  0.16117324838E+02 -0.16472799503E+02  0.43400726546E+02  0.00000000000E+00 0.  1.
         11    1    3    3    0    0  0.20166244908E+02 -0.89578088028E+00  0.78549298058E+01  0.21660558155E+02  0.51100000000E-03 0. -1.
        -11    1    3    3    0    0  0.12471943653E+02 -0.57305987372E+01  0.20819432598E+01  0.13882493593E+02  0.51100000000E-03 0.  1.
        -12    1    3    3    0    0  0.41381867539E+01 -0.94909452209E+01  0.65359264376E+01  0.12244221706E+02  0.00000000000E+00 0.  1.
</event>
<event>
 7    1  0.2294216E-010  0.4778727E+02  0.7816164E-02  0.1312668E+00
        -11   -1    0    0    0    0  0.00000000000E+00  0.00000000000E+00  0.45593999997E+02  0.45594000000E+02  0.51100000000E-03 0.  1.
         11   -1    0    0    0    0 -0.00000000000E+00 -0.00000000000E+00 -0.45593999997E+02  0.45594000000E+02  0.51100000000E-03 0. -1.
    9900012    2    1    2    0    0  0.12872262354E+02  0.31823233951E+02 -0.26555787560E+02  0.47787271779E+02  0.20000003348E+02 0.  0.
        -12    1    1    2    0    0 -0.12872262354E+02 -0.31823233951E+02  0.26555787560E+02  0.43400728221E+02  0.00000000000E+00 0.  1.
         11    1    3    3    0    0  0.33490295541E+01  0.87031496284E+01 -0.88235891897E+01  0.12838089377E+02  0.51100000000E-03 0. -1.
        -11    1    3    3    0    0  0.27290078077E+01  0.20406414825E+02 -0.65849611060E+01  0.21615525963E+02  0.51100000000E-03 0.  1.
         12    1    3    3    0    0  0.67942249922E+01  0.27136694973E+01 -0.11147237264E+02  0.13333656438E+02  0.00000000000E+00 0. -1.
</event>
<event>
 7    1  0.2294216E-010  0.4778727E+02  0.7816164E-02  0.1312668E+00
        -11   -1    0    0    0    0  0.00000000000E+00  0.00000000000E+00  0.45593999997E+02  0.45594000000E+02  0.51100000000E-03 0.  1.
         11   -1    0    0    0    0 -0.00000000000E+00 -0.00000000000E+00 -0.45593999997E+02  0.45594000000E+02  0.51100000000E-03 0. -1.
    9900012    2    1    2    0    0  0.14983597950E+02 -0.21610949655E+02 -0.34526543061E+02  0.47787268114E+02  0.19999986640E+02 0.  0.
        -12    1    1    2    0    0 -0.14983597950E+02  0.21610949655E+02  0.34526543061E+02  0.43400731886E+02  0.00000000000E+00 0.  1.
         11    1    3    3    0    0  0.10755523037E+01  0.25997742554E+01 -0.18103655524E+01  0.33456034780E+01  0.51100000000E-03 0. -1.
        -11    1    3    3    0    0  0.64754423875E+01 -0.86213081692E+01 -0.52393849074E+01  0.11987888185E+02  0.51100000000E-03 0.  1.
         12    1    3    3    0    0  0.74326032591E+01 -0.15589415741E+02 -0.27476792601E+02  0.32453776452E+02  0.00000000000E+00 0. -1.
</event>
<event>
 7    1  0.2294216E-010  0.4778727E+02  0.7816164E-02  0.1312668E+00
        -11   -1    0    0    0    0  0.00000000000E+00  0.00000000000E+00  0.45593999997E+02  0.45594000000E+02  0.51100000000E-03 0.  1.
         11   -1    0    0    0    0 -0.00000000000E+00 -0.00000000000E+00 -0.45593999997E+02  0.45594000000E+02  0.51100000000E-03 0. -1.
    9900012    2    1    2    0    0  0.58520688311E+01  0.30446185219E+01 -0.42896472738E+02  0.47787265158E+02  0.19999973159E+02 0.  0.
        -12    1    1    2    0    0 -0.58520688311E+01 -0.30446185219E+01  0.42896472738E+02  0.43400734842E+02  0.00000000000E+00 0.  1.
         11    1    3    3    0    0 -0.17149718708E+01  0.41879869839E+01 -0.33875808874E+01  0.56529698411E+01  0.51100000000E-03 0.  1.
        -11    1    3    3    0    0 -0.17710828881E+01  0.22923640580E+01 -0.20257305589E+02  0.20463384313E+02  0.51100000000E-03 0. -1.
         12    1    3    3    0    0  0.93381235900E+01 -0.34357325200E+01 -0.19251586261E+02  0.21670911003E+02  0.00000000000E+00 0. -1.
</event>
<event>
 7    1  0.2294216E-010  0.4778727E+02  0.7816164E-02  0.1312668E+00
        -11   -1    0    0    0    0  0.00000000000E+00  0.00000000000E+00  0.45593999997E+02  0.45594000000E+02  0.51100000000E-03 0.  1.
         11   -1    0    0    0    0 -0.00000000000E+00 -0.00000000000E+00 -0.45593999997E+02  0.45594000000E+02  0.51100000000E-03 0. -1.
    9900012    2    1    2    0    0 -0.16194435984E+02 -0.56498629654E+01 -0.39867813462E+02  0.47787271221E+02  0.20000000803E+02 0.  0.
        -12    1    1    2    0    0  0.16194435984E+02  0.56498629654E+01  0.39867813462E+02  0.43400728779E+02  0.00000000000E+00 0.  1.
         11    1    3    3    0    0 -0.43166400696E+01  0.17036870204E+01 -0.12486479410E+02  0.13320964653E+02  0.51100000000E-03 0. -1.
        -11    1    3    3    0    0 -0.68488164717E+01  0.43706986543E+01 -0.94951516817E+01  0.12496687541E+02  0.51100000000E-03 0.  1.
        -12    1    3    3    0    0 -0.50289794430E+01 -0.11724248640E+02 -0.17886182369E+02  0.21969619026E+02  0.00000000000E+00 0.  1.
</event>
<event>
 7    1  0.2294216E-010  0.4778727E+02  0.7816164E-02  0.1312668E+00
        -11   -1    0    0    0    0  0.00000000000E+00  0.00000000000E+00  0.45593999997E+02  0.45594000000E+02  0.51100000000E-03 0.  1.
         11   -1    0    0    0    0 -0.00000000000E+00 -0.00000000000E+00 -0.45593999997E+02  0.45594000000E+02  0.51100000000E-03 0. -1.
    9900012    2    1    2    0    0 -0.22415795809E+02  0.55951143810E+00 -0.37159689444E+02  0.47787268735E+02  0.19999989469E+02 0.  0.
        -12    1    1    2    0    0  0.22415795809E+02 -0.55951143810E+00  0.37159689444E+02  0.43400731265E+02  0.00000000000E+00 0.  1.
         11    1    3    3    0    0 -0.12794932150E+01 -0.46863922432E+00 -0.13166972457E+02  0.13237291625E+02  0.51100000000E-03 0. -1.
        -11    1    3    3    0    0 -0.19245823279E+02  0.48639547045E+01 -0.22536330365E+02  0.30032415081E+02  0.51100000000E-03 0.  1.
         12    1    3    3    0    0 -0.18904793151E+01 -0.38358040421E+01 -0.14563866219E+01  0.45175620286E+01  0.00000000000E+00 0. -1.
</event>
<event>
 7    1  0.2294216E-010  0.4778727E+02  0.7816164E-02  0.1312668E+00
        -11   -1    0    0    0    0  0.00000000000E+00  0.00000000000E+00  0.45593999997E+02  0.45594000000E+02  0.51100000000E-03 0. -1.
         11   -1    0    0    0    0 -0.00000000000E+00 -0.00000000000E+00 -0.45593999997E+02  0.45594000000E+02  0.51100000000E-03 0.  1.
    9900012    2    1    2    0    0  0.25579476641E+02 -0.28798784415E+02  0.19998583733E+02  0.47787274656E+02  0.20000016469E+02 0.  0.
        -12    1    1    2    0    0 -0.25579476641E+02  0.28798784415E+02 -0.19998583733E+02  0.43400725344E+02  0.00000000000E+00 0.  1.
         11    1    3    3    0    0  0.12915113531E+01 -0.22469739793E+01  0.44698819295E+01  0.51668886541E+01  0.51100000000E-03 0. -1.
        -11    1    3    3    0    0  0.97594143391E+01 -0.18064301962E+02  0.12802679804E+01  0.20571928932E+02  0.51100000000E-03 0.  1.
         12    1    3    3    0    0  0.14528550949E+02 -0.84875084736E+01  0.14248433823E+02  0.22048457070E+02  0.00000000000E+00 0. -1.
</event>
<event>
 7    1  0.2294216E-010  0.4778727E+02  0.7816164E-02  0.1312668E+00
        -11   -1    0    0    0    0  0.00000000000E+00  0.00000000000E+00  0.45593999997E+02  0.45594000000E+02  0.51100000000E-03 0. -1.
         11   -1    0    0    0    0 -0.00000000000E+00 -0.00000000000E+00 -0.45593999997E+02  0.45594000000E+02  0.51100000000E-03 0.  1.
    9900012    2    1    2    0    0 -0.36467721599E+02 -0.19776123953E+02  0.12752792048E+02  0.47787268413E+02  0.19999988003E+02 0.  0.
        -12    1    1    2    0    0  0.36467721599E+02  0.19776123953E+02 -0.12752792048E+02  0.43400731587E+02  0.00000000000E+00 0.  1.
         11    1    3    3    0    0 -0.22652055152E+02 -0.12843449611E+02  0.35265835503E+01  0.26277492124E+02  0.51100000000E-03 0. -1.
        -11    1    3    3    0    0 -0.91885978286E+01  0.54337163139E+00  0.64998928694E+00  0.92275711388E+01  0.51100000000E-03 0.  1.
         12    1    3    3    0    0 -0.46270686182E+01 -0.74760459740E+01  0.85762192112E+01  0.12282205151E+02  0.00000000000E+00 0. -1.
</event>
<event>
 7    1  0.2294216E-010  0.4778729E+02  0.7816164E-02  0.1312668E+00
        -11   -1    0    0    0    0  0.00000000000E+00  0.00000000000E+00  0.45593999997E+02  0.45594000000E+02  0.51100000000E-03 0. -1.
         11   -1    0    0    0    0 -0.00000000000E+00 -0.00000000000E+00 -0.45593999997E+02  0.45594000000E+02  0.51100000000E-03 0.  1.
    9900012    2    1    2    0    0  0.19493294413E+02  0.29189967811E+02  0.25526042384E+02  0.47787290470E+02  0.20000088570E+02 0.  0.
        -12    1    1    2    0    0 -0.19493294413E+02 -0.29189967811E+02 -0.25526042384E+02  0.43400709530E+02  0.00000000000E+00 0.  1.
         11    1    3    3    0    0  0.91190666797E+01  0.80001784700E+01  0.80343749375E+01  0.14550306305E+02  0.51100000000E-03 0. -1.
        -11    1    3    3    0    0  0.93707117407E+01  0.11056193472E+02  0.17917021818E+02  0.23044941391E+02  0.51100000000E-03 0.  1.
        -12    1    3    3    0    0  0.10035159926E+01  0.10133595869E+02 -0.42535437126E+00  0.10192042775E+02  0.00000000000E+00 0.  1.
</event>
<event>
 7    1  0.2294216E-010  0.4778727E+02  0.7816164E-02  0.1312668E+00
        -11   -1    0    0    0    0  0.00000000000E+00  0.00000000000E+00  0.45593999997E+02  0.45594000000E+02  0.51100000000E-03 0.  1.
         11   -1    0    0    0    0 -0.00000000000E+00 -0.00000000000E+00 -0.45593999997E+02  0.45594000000E+02  0.51100000000E-03 0. -1.
    9900012    2    1    2    0    0  0.29096750968E+02 -0.25470460712E+02 -0.19704262273E+02  0.47787271464E+02  0.20000001912E+02 0.  0.
        -12    1    1    2    0    0 -0.29096750968E+02  0.25470460712E+02  0.19704262273E+02  0.43400728536E+02  0.00000000000E+00 0.  1.
         11    1    3    3    0    0  0.15275806030E+02 -0.13588390727E+02 -0.19723374859E+01  0.20539832712E+02  0.51100000000E-03 0. -1.
        -11    1    3    3    0    0  0.12174748209E+02 -0.13607084465E+02 -0.15077296980E+02  0.23679149607E+02  0.51100000000E-03 0.  1.
        -12    1    3    3    0    0  0.16461967281E+01  0.17250144807E+01 -0.26546278072E+01  0.35682891448E+01  0.00000000000E+00 0.  1.
</event>
<event>
 7    1  0.2294216E-010  0.4778727E+02  0.7816164E-02  0.1312668E+00
        -11   -1    0    0    0    0  0.00000000000E+00  0.00000000000E+00  0.45593999997E+02  0.45594000000E+02  0.51100000000E-03 0.  1.
         11   -1    0    0    0    0 -0.00000000000E+00 -0.00000000000E+00 -0.45593999997E+02  0.45594000000E+02  0.51100000000E-03 0. -1.
    9900012    2    1    2    0    0  0.24820828980E+02  0.33789410474E+02 -0.11217188582E+02  0.47787272689E+02  0.20000007499E+02 0.  0.
        -12    1    1    2    0    0 -0.24820828980E+02 -0.33789410474E+02  0.11217188582E+02  0.43400727311E+02  0.00000000000E+00 0.  1.
         11    1    3    3    0    0  0.53370162390E+01  0.15981284981E+02 -0.25169728799E+01  0.17035855268E+02  0.51100000000E-03 0. -1.
        -11    1    3    3    0    0 -0.73798573208E+00  0.48237242948E+01  0.73326193011E+00  0.49346339613E+01  0.51100000000E-03 0.  1.
        -12    1    3    3    0    0  0.20221798473E+02  0.12984401198E+02 -0.94334776325E+01  0.25816783460E+02  0.00000000000E+00 0.  1.
</event>
<event>
 7    1  0.2294216E-010  0.4778727E+02  0.7816164E-02  0.1312668E+00
        -11   -1    0    0    0    0  0.00000000000E+00  0.00000000000E+00  0.45593999997E+02  0.45594000000E+02  0.51100000000E-03 0.  1.
         11   -1    0    0    0    0 -0.00000000000E+00 -0.00000000000E+00 -0.45593999997E+02  0.45594000000E+02  0.51100000000E-03 0. -1.
    9900012    2    1    2    0    0 -0.13842870060E+02  0.36926026984E+02 -0.18123655617E+02  0.47787269439E+02  0.19999992681E+02 0.  0.
        -12    1    1    2    0    0  0.13842870060E+02 -0.36926026984E+02  0.18123655617E+02  0.43400730561E+02  0.00000000000E+00 0.  1.
         11    1    3    3    0    0  0.25971947634E+00  0.16127500537E+02 -0.14326265728E+01  0.16193089481E+02  0.51100000000E-03 0. -1.
        -11    1    3    3    0    0 -0.66439748115E-01 -0.16214060779E+00 -0.27819971276E+01  0.27875100172E+01  0.51100000000E-03 0.  1.
         12    1    3    3    0    0 -0.14036149788E+02  0.20960667055E+02 -0.13909031916E+02  0.28806669941E+02  0.00000000000E+00 0. -1.
</event>
<event>
 7    1  0.2294216E-010  0.4778728E+02  0.7816164E-02  0.1312668E+00
        -11   -1    0    0    0    0  0.00000000000E+00  0.00000000000E+00  0.45593999997E+02  0.45594000000E+02  0.51100000000E-03 0.  1.
         11   -1    0    0    0    0 -0.00000000000E+00 -0.00000000000E+00 -0.45593999997E+02  0.45594000000E+02  0.51100000000E-03 0. -1.
    9900012    2    1    2    0    0  0.24543437349E+02 -0.30444641576E+02 -0.18824603817E+02  0.47787283111E+02  0.20000055015E+02 0.  0.
        -12    1    1    2    0    0 -0.24543437349E+02  0.30444641576E+02  0.18824603817E+02  0.43400716889E+02  0.00000000000E+00 0.  1.
         11    1    3    3    0    0  0.38174078063E+01 -0.66677012293E+01 -0.37750197232E+01  0.85604682240E+01  0.51100000000E-03 0. -1.
        -11    1    3    3    0    0  0.18222733992E+02 -0.76322290436E+01 -0.65739038602E+01  0.20821507307E+02  0.51100000000E-03 0.  1.
        -12    1    3    3    0    0  0.25032955515E+01 -0.16144711304E+02 -0.84756802334E+01  0.18405307580E+02  0.00000000000E+00 0.  1.
</event>
<event>
 7    1  0.2294216E-010  0.4778727E+02  0.7816164E-02  0.1312668E+00
        -11   -1    0    0    0    0  0.00000000000E+00  0.00000000000E+00  0.45593999997E+02  0.45594000000E+02  0.51100000000E-03 0. -1.
         11   -1    0    0    0    0 -0.00000000000E+00 -0.00000000000E+00 -0.45593999997E+02  0.45594000000E+02  0.51100000000E-03 0.  1.
    9900012    2    1    2    0    0  0.15532618085E+02 -0.21785023471E+02  0.34172707321E+02  0.47787269616E+02  0.19999993488E+02 0.  0.
        -12    1    1    2    0    0 -0.15532618085E+02  0.21785023471E+02 -0.34172707321E+02  0.43400730384E+02  0.00000000000E+00 0.  1.
         11    1    3    3    0    0  0.54844176309E+01 -0.43731629841E+01  0.17189214318E+02  0.18565356996E+02  0.51100000000E-03 0.  1.
        -11    1    3    3    0    0 -0.23171726591E+01 -0.21026406698E+01  0.57914342051E+01  0.65826360474E+01  0.51100000000E-03 0. -1.
         12    1    3    3    0    0  0.12365373113E+02 -0.15309219817E+02  0.11192058798E+02  0.22639276573E+02  0.00000000000E+00 0. -1.
</event>
<event>
 7    1  0.2294216E-010  0.4778727E+02  0.7816164E-02  0.1312668E+00
        -11   -1    0    0    0    0  0.00000000000E+00  0.00000000000E+00  0.45593999997E+02  0.45594000000E+02  0.51100000000E-03 0.  1.
         11   -1    0    0    0    0 -0.00000000000E+00 -0.00000000000E+00 -0.45593999997E+02  0.45594000000E+02  0.51100000000E-03 0. -1.
    9900012    2    1    2    0    0  0.11244967335E+02  0.12004410493E+02 -0.40163024913E+02  0.47787265768E+02  0.19999975943E+02 0.  0.
        -12    1    1    2    0    0 -0.11244967335E+02 -0.12004410493E+02  0.40163024913E+02  0.43400734232E+02  0.00000000000E+00 0.  1.
         11    1    3    3    0    0  0.24525720524E+01  0.67915025294E+01 -0.87285433108E+01  0.11328154522E+02  0.51100000000E-03 0. -1.
        -11    1    3    3    0    0  0.10810325867E+02  0.78723397233E+00 -0.10958565981E+02  0.15413404923E+02  0.51100000000E-03 0.  1.
         12    1    3    3    0    0 -0.20179305847E+01  0.44256739916E+01 -0.20475915622E+02  0.21045706324E+02  0.00000000000E+00 0. -1.
</event>
<event>
 7    1  0.2294216E-010  0.4778727E+02  0.7816164E-02  0.1312668E+00
        -11   -1    0    0    0    0  0.00000000000E+00  0.00000000000E+00  0.45593999997E+02  0.45594000000E+02  0.51100000000E-03 0.  1.
         11   -1    0    0    0    0 -0.00000000000E+00 -0.00000000000E+00 -0.45593999997E+02  0.45594000000E+02  0.51100000000E-03 0. -1.
    9900012    2    1    2    0    0 -0.29872652382E+02 -0.11680423945E+02 -0.29237226985E+02  0.47787272983E+02  0.20000008837E+02 0.  0.
        -12    1    1    2    0    0  0.29872652382E+02  0.11680423945E+02  0.29237226985E+02  0.43400727017E+02  0.00000000000E+00 0.  1.
         11    1    3    3    0    0 -0.91366949884E+01 -0.78553379195E+01 -0.13924842717E+02  0.18414308950E+02  0.51100000000E-03 0. -1.
        -11    1    3    3    0    0 -0.94385760378E+00 -0.51054213218E+01 -0.38690434391E+01  0.64750051308E+01  0.51100000000E-03 0.  1.
         12    1    3    3    0    0 -0.19792099789E+02  0.12803352960E+01 -0.11443340829E+02  0.22897958902E+02  0.00000000000E+00 0. -1.
</event>
<event>
 7    1  0.2294216E-010  0.4778727E+02  0.7816164E-02  0.1312668E+00
        -11   -1    0    0    0    0  0.00000000000E+00  0.00000000000E+00  0.45593999997E+02  0.45594000000E+02  0.51100000000E-03 0. -1.
         11   -1    0    0    0    0 -0.00000000000E+00 -0.00000000000E+00 -0.45593999997E+02  0.45594000000E+02  0.51100000000E-03 0.  1.
    9900012    2    1    2    0    0 -0.49620171272E+01  0.40361973866E+02  0.15162871020E+02  0.47787271827E+02  0.20000003569E+02 0.  0.
        -12    1    1    2    0    0  0.49620171272E+01 -0.40361973866E+02 -0.15162871020E+02  0.43400728173E+02  0.00000000000E+00 0.  1.
         11    1    3    3    0    0  0.25803610052E+01  0.17115704011E+01  0.36845365015E+01  0.48128521323E+01  0.51100000000E-03 0. -1.
        -11    1    3    3    0    0 -0.41106823503E+01  0.19528758100E+01  0.14613537629E+01  0.47798523404E+01  0.51100000000E-03 0.  1.
         12    1    3    3    0    0 -0.34316957822E+01  0.36697527655E+02  0.10016980756E+02  0.38194567355E+02  0.00000000000E+00 0. -1.
</event>
<event>
 7    1  0.2294216E-010  0.4778727E+02  0.7816164E-02  0.1312668E+00
        -11   -1    0    0    0    0  0.00000000000E+00  0.00000000000E+00  0.45593999997E+02  0.45594000000E+02  0.51100000000E-03 0.  1.
         11   -1    0    0    0    0 -0.00000000000E+00 -0.00000000000E+00 -0.45593999997E+02  0.45594000000E+02  0.51100000000E-03 0. -1.
    9900012    2    1    2    0    0 -0.27264444689E+02  0.30774070190E+02 -0.13900735531E+02  0.47787265115E+02  0.19999972965E+02 0.  0.
        -12    1    1    2    0    0  0.27264444689E+02 -0.30774070190E+02  0.13900735531E+02  0.43400734885E+02  0.00000000000E+00 0.  1.
         11    1    3    3    0    0 -0.85779782897E+01  0.13565602026E+02  0.75395080712E+00  0.16067847147E+02  0.51100000000E-03 0. -1.
        -11    1    3    3    0    0  0.89756546037E+00  0.39526303016E+01 -0.42818606676E+01  0.58960360493E+01  0.51100000000E-03 0.  1.
         12    1    3    3    0    0 -0.19584031859E+02  0.13255837862E+02 -0.10372825671E+02  0.25823381918E+02  0.00000000000E+00 0. -1.
</event>
<event>
 7    1  0.2294216E-010  0.4778727E+02  0.7816164E-02  0.1312668E+00
        -11   -1    0    0    0    0  0.00000000000E+00  0.00000000000E+00  0.45593999997E+02  0.45594000000E+02  0.51100000000E-03 0. -1.
         11   -1    0    0    0    0 -0.00000000000E+00 -0.00000000000E+00 -0.45593999997E+02  0.45594000000E+02  0.51100000000E-03 0.  1.
    9900012    2    1    2    0    0 -0.20483260600E+02 -0.33810989817E+02 -0.17913026219E+02  0.47787268376E+02  0.19999987832E+02 0.  0.
        -12    1    1    2    0    0  0.20483260600E+02  0.33810989817E+02  0.17913026219E+02  0.43400731624E+02  0.00000000000E+00 0.  1.
         11    1    3    3    0    0 -0.55140044180E+01 -0.23255727818E+02 -0.15727064213E+02  0.28610726487E+02  0.51100000000E-03 0. -1.
        -11    1    3    3    0    0 -0.13850761325E+01 -0.31506778759E+01  0.48755172387E+00  0.34760486065E+01  0.51100000000E-03 0.  1.
         12    1    3    3    0    0 -0.13584180050E+02 -0.74045841223E+01 -0.26735137302E+01  0.15700493282E+02  0.00000000000E+00 0. -1.
</event>
<event>
 7    1  0.2294216E-010  0.4778727E+02  0.7816164E-02  0.1312668E+00
        -11   -1    0    0    0    0  0.00000000000E+00  0.00000000000E+00  0.45593999997E+02  0.45594000000E+02  0.51100000000E-03 0.  1.
         11   -1    0    0    0    0 -0.00000000000E+00 -0.00000000000E+00 -0.45593999997E+02  0.45594000000E+02  0.51100000000E-03 0. -1.
    9900012    2    1    2    0    0  0.34570361889E+02  0.17785171482E+02 -0.19292511721E+02  0.47787271270E+02  0.20000001028E+02 0.  0.
        -12    1    1    2    0    0 -0.34570361889E+02 -0.17785171482E+02  0.19292511721E+02  0.43400728730E+02  0.00000000000E+00 0.  1.
         11    1    3    3    0    0  0.20575266440E+02  0.93468549080E+01 -0.16142545874E+02  0.27772055619E+02  0.51100000000E-03 0. -1.
        -11    1    3    3    0    0  0.15553467594E+02  0.56078887336E+01 -0.27148446579E+01  0.16754973949E+02  0.51100000000E-03 0.  1.
         12    1    3    3    0    0 -0.15583721454E+01  0.28304278405E+01 -0.43512118888E+00  0.32602417016E+01  0.00000000000E+00 0. -1.
</event>
<event>
 7    1  0.2294216E-010  0.4778727E+02  0.7816164E-02  0.1312668E+00
        -11   -1    0    0    0    0  0.00000000000E+00  0.00000000000E+00  0.45593999997E+02  0.45594000000E+02  0.51100000000E-03 0.  1.
         11   -1    0    0    0    0 -0.00000000000E+00 -0.00000000000E+00 -0.45593999997E+02  0.45594000000E+02  0.51100000000E-03 0. -1.
    9900012    2    1    2    0    0 -0.42534001721E+02  0.86270635042E+01  0.23568360342E+00  0.47787273349E+02  0.20000010507E+02 0.  0.
        -12    1    1    2    0    0  0.42534001721E+02 -0.86270635042E+01 -0.23568360342E+00  0.43400726651E+02  0.00000000000E+00 0.  1.
         11    1    3    3    0    0 -0.20051759644E+02  0.83690407291E+01  0.30159410505E+01  0.21936494894E+02  0.51100000000E-03 0. -1.
        -11    1    3    3    0    0 -0.77199116980E+01  0.12691214022E+00  0.49649057013E+01  0.91795115447E+01  0.51100000000E-03 0.  1.
        -12    1    3    3    0    0 -0.14762330378E+02  0.13111063488E+00 -0.77451631483E+01  0.16671266910E+02  0.00000000000E+00 0.  1.
</event>
<event>
 7    1  0.2294216E-010  0.4778727E+02  0.7816164E-02  0.1312668E+00
        -11   -1    0    0    0    0  0.00000000000E+00  0.00000000000E+00  0.45593999997E+02  0.45594000000E+02  0.51100000000E-03 0.  1.
         11   -1    0    0    0    0 -0.00000000000E+00 -0.00000000000E+00 -0.45593999997E+02  0.45594000000E+02  0.51100000000E-03 0. -1.
    9900012    2    1    2    0    0  0.97735479439E+01  0.37825705719E+02 -0.18902832660E+02  0.47787270339E+02  0.19999996784E+02 0.  0.
        -12    1    1    2    0    0 -0.97735479439E+01 -0.37825705719E+02  0.18902832660E+02  0.43400729661E+02  0.00000000000E+00 0.  1.
         11    1    3    3    0    0 -0.38417366305E+01  0.12601824902E+02 -0.97682565110E+01  0.16400724579E+02  0.51100000000E-03 0. -1.
        -11    1    3    3    0    0  0.14947670446E+01  0.23173219540E+01  0.17629488530E+01  0.32729647837E+01  0.51100000000E-03 0.  1.
        -12    1    3    3    0    0  0.12120517530E+02  0.22906558863E+02 -0.10897525002E+02  0.28113580976E+02  0.00000000000E+00 0.  1.
</event>
<event>
 7    1  0.2294216E-010  0.4778727E+02  0.7816164E-02  0.1312668E+00
        -11   -1    0    0    0    0  0.00000000000E+00  0.00000000000E+00  0.45593999997E+02  0.45594000000E+02  0.51100000000E-03 0.  1.
         11   -1    0    0    0    0 -0.00000000000E+00 -0.00000000000E+00 -0.45593999997E+02  0.45594000000E+02  0.51100000000E-03 0. -1.
    9900012    2    1    2    0    0 -0.38741822162E+02  0.18952224455E+02 -0.48484820989E+01  0.47787269881E+02  0.19999994696E+02 0.  0.
        -12    1    1    2    0    0  0.38741822162E+02 -0.18952224455E+02  0.48484820989E+01  0.43400730119E+02  0.00000000000E+00 0.  1.
         11    1    3    3    0    0 -0.59664203077E+01  0.43023735538E+01 -0.33859619312E+01  0.80977359765E+01  0.51100000000E-03 0. -1.
        -11    1    3    3    0    0 -0.60126655808E+01 -0.37641641307E+01 -0.12507414649E+01  0.72031544106E+01  0.51100000000E-03 0.  1.
        -12    1    3    3    0    0 -0.26762736273E+02  0.18414015032E+02 -0.21177870287E+00  0.32486379494E+02  0.00000000000E+00 0.  1.
</event>
<event>
 7    1  0.2294216E-010  0.4778727E+02  0.7816164E-02  0.1312668E+00
        -11   -1    0    0    0    0  0.00000000000E+00  0.00000000000E+00  0.45593999997E+02  0.45594000000E+02  0.51100000000E-03 0.  1.
         11   -1    0    0    0    0 -0.00000000000E+00 -0.00000000000E+00 -0.45593999997E+02  0.45594000000E+02  0.51100000000E-03 0. -1.
    9900012    2    1    2    0    0  0.81477806326E+01 -0.67484701934E+01 -0.42091510385E+02  0.47787269295E+02  0.19999992024E+02 0.  0.
        -12    1    1    2    0    0 -0.81477806326E+01  0.67484701934E+01  0.42091510385E+02  0.43400730705E+02  0.00000000000E+00 0.  1.
         11    1    3    3    0    0  0.12955382055E+02 -0.31185828738E+01 -0.20362472647E+02  0.24335114052E+02  0.51100000000E-03 0. -1.
        -11    1    3    3    0    0 -0.74881179358E+00 -0.18457849962E+01 -0.95265760445E+00  0.22079850830E+01  0.51100000000E-03 0.  1.
        -12    1    3    3    0    0 -0.40587896288E+01 -0.17841023234E+01 -0.20776380134E+02  0.21244170160E+02  0.00000000000E+00 0.  1.
</event>
<event>
 7    1  0.2294216E-010  0.4778731E+02  0.7816164E-02  0.1312668E+00
        -11   -1    0    0    0    0  0.00000000000E+00  0.00000000000E+00  0.45593999997E+02  0.45594000000E+02  0.51100000000E-03 0.  1.
         11   -1    0    0    0    0 -0.00000000000E+00 -0.00000000000E+00 -0.45593999997E+02  0.45594000000E+02  0.51100000000E-03 0. -1.
    9900012    2    1    2    0    0 -0.10296924908E+02 -0.26153300001E+02 -0.33069597450E+02  0.47787308312E+02  0.20000169919E+02 0.  0.
        -12    1    1    2    0    0  0.10296924908E+02  0.26153300001E+02  0.33069597450E+02  0.43400691688E+02  0.00000000000E+00 0.  1.
         11    1    3    3    0    0 -0.12724194646E+02 -0.24947310906E+02 -0.33919312475E+02  0.43986284338E+02  0.51100000000E-03 0. -1.
        -11    1    3    3    0    0 -0.31310426966E+00  0.25860827978E+00  0.54394553004E+00  0.67881479567E+00  0.51100000000E-03 0.  1.
         12    1    3    3    0    0  0.27403740078E+01 -0.14645973742E+01  0.30576949513E+00  0.31222091787E+01  0.00000000000E+00 0. -1.
</event>
<event>
 7    1  0.2294216E-010  0.4778727E+02  0.7816164E-02  0.1312668E+00
        -11   -1    0    0    0    0  0.00000000000E+00  0.00000000000E+00  0.45593999997E+02  0.45594000000E+02  0.51100000000E-03 0. -1.
         11   -1    0    0    0    0 -0.00000000000E+00 -0.00000000000E+00 -0.45593999997E+02  0.45594000000E+02  0.51100000000E-03 0.  1.
    9900012    2    1    2    0    0 -0.33437405350E+02 -0.92252889324E+01  0.26085578056E+02  0.47787269420E+02  0.19999992592E+02 0.  0.
        -12    1    1    2    0    0  0.33437405350E+02  0.92252889324E+01 -0.26085578056E+02  0.43400730580E+02  0.00000000000E+00 0.  1.
         11    1    3    3    0    0 -0.12965231732E+02 -0.96759947414E+01  0.77569089958E+01  0.17941341799E+02  0.51100000000E-03 0. -1.
        -11    1    3    3    0    0 -0.16842467638E+02 -0.35698855303E+01  0.99979541542E+01  0.19909090546E+02  0.51100000000E-03 0.  1.
        -12    1    3    3    0    0 -0.36297059792E+01  0.40205913393E+01  0.83307149058E+01  0.99368370750E+01  0.00000000000E+00 0.  1.
</event>
<event>
 7    1  0.2294216E-010  0.4778727E+02  0.7816164E-02  0.1312668E+00
        -11   -1    0    0    0    0  0.00000000000E+00  0.00000000000E+00  0.45593999997E+02  0.45594000000E+02  0.51100000000E-03 0.  1.
         11   -1    0    0    0    0 -0.00000000000E+00 -0.00000000000E+00 -0.45593999997E+02  0.45594000000E+02  0.51100000000E-03 0. -1.
    9900012    2    1    2    0    0 -0.38597413998E+02 -0.89628727043E+01  0.17706780444E+02  0.47787268115E+02  0.19999986643E+02 0.  0.
        -12    1    1    2    0    0  0.38597413998E+02  0.89628727043E+01 -0.17706780444E+02  0.43400731885E+02  0.00000000000E+00 0.  1.
         11    1    3    3    0    0 -0.40213687693E+01 -0.48280343738E+01  0.43201983941E+01  0.76253155423E+01  0.51100000000E-03 0. -1.
        -11    1    3    3    0    0  0.11818476902E+00 -0.31509654947E+01  0.12764161019E+01  0.34017333103E+01  0.51100000000E-03 0.  1.
         12    1    3    3    0    0 -0.34694229998E+02 -0.98387283584E+00  0.12110165948E+02  0.36760219262E+02  0.00000000000E+00 0. -1.
</event>
<event>
 7    1  0.2294216E-010  0.4778730E+02  0.7816164E-02  0.1312668E+00
        -11   -1    0    0    0    0  0.00000000000E+00  0.00000000000E+00  0.45593999997E+02  0.45594000000E+02  0.51100000000E-03 0.  1.
         11   -1    0    0    0    0 -0.00000000000E+00 -0.00000000000E+00 -0.45593999997E+02  0.45594000000E+02  0.51100000000E-03 0. -1.
    9900012    2    1    2    0    0 -0.15269280593E+02 -0.16536639569E+02 -0.37108078894E+02  0.47787298425E+02  0.20000124837E+02 0.  0.
        -12    1    1    2    0    0  0.15269280593E+02  0.16536639569E+02  0.37108078894E+02  0.43400701575E+02  0.00000000000E+00 0.  1.
         11    1    3    3    0    0 -0.12801637923E+02 -0.64142770309E+01 -0.13676812453E+02  0.19801012158E+02  0.51100000000E-03 0. -1.
        -11    1    3    3    0    0 -0.40451937722E+01 -0.10095877241E+02 -0.11048967889E+02  0.15503871181E+02  0.51100000000E-03 0.  1.
        -12    1    3    3    0    0  0.15775511031E+01 -0.26485296977E-01 -0.12382298551E+02  0.12482415085E+02  0.00000000000E+00 0.  1.
</event>
<event>
 7    1  0.2294216E-010  0.4778727E+02  0.7816164E-02  0.1312668E+00
        -11   -1    0    0    0    0  0.00000000000E+00  0.00000000000E+00  0.45593999997E+02  0.45594000000E+02  0.51100000000E-03 0.  1.
         11   -1    0    0    0    0 -0.00000000000E+00 -0.00000000000E+00 -0.45593999997E+02  0.45594000000E+02  0.51100000000E-03 0. -1.
    9900012    2    1    2    0    0  0.15258056610E+02 -0.37688913489E+02 -0.15177639839E+02  0.47787271405E+02  0.20000001646E+02 0.  0.
        -12    1    1    2    0    0 -0.15258056610E+02  0.37688913489E+02  0.15177639839E+02  0.43400728595E+02  0.00000000000E+00 0.  1.
         11    1    3    3    0    0  0.42619256568E+01 -0.76286319721E+01 -0.88192718437E+01  0.12415296701E+02  0.51100000000E-03 0. -1.
        -11    1    3    3    0    0  0.11006276378E+01  0.94131488647E+00 -0.21014187876E+01  0.25521395132E+01  0.51100000000E-03 0.  1.
         12    1    3    3    0    0  0.98955033155E+01 -0.31001596403E+02 -0.42569492072E+01  0.32819835191E+02  0.00000000000E+00 0. -1.
</event>
<event>
 7    1  0.2294216E-010  0.4778727E+02  0.7816164E-02  0.1312668E+00
        -11   -1    0    0    0    0  0.00000000000E+00  0.00000000000E+00  0.45593999997E+02  0.45594000000E+02  0.51100000000E-03 0.  1.
         11   -1    0    0    0    0 -0.00000000000E+00 -0.00000000000E+00 -0.45593999997E+02  0.45594000000E+02  0.51100000000E-03 0. -1.
    9900012    2    1    2    0    0 -0.14415492444E+02  0.26972926972E+02 -0.30794126893E+02  0.47787268867E+02  0.19999990070E+02 0.  0.
        -12    1    1    2    0    0  0.14415492444E+02 -0.26972926972E+02  0.30794126893E+02  0.43400731133E+02  0.00000000000E+00 0.  1.
         11    1    3    3    0    0  0.29127010022E+00 -0.54609243661E+00 -0.52808633701E+01  0.53170079382E+01  0.51100000000E-03 0. -1.
        -11    1    3    3    0    0  0.96155507483E+00  0.80488179676E+01 -0.24636226942E+01  0.84721600479E+01  0.51100000000E-03 0.  1.
        -12    1    3    3    0    0 -0.15668317619E+02  0.19470201441E+02 -0.23049640828E+02  0.33998100880E+02  0.00000000000E+00 0.  1.
</event>
<event>
 7    1  0.2294216E-010  0.4778727E+02  0.7816164E-02  0.1312668E+00
        -11   -1    0    0    0    0  0.00000000000E+00  0.00000000000E+00  0.45593999997E+02  0.45594000000E+02  0.51100000000E-03 0.  1.
         11   -1    0    0    0    0 -0.00000000000E+00 -0.00000000000E+00 -0.45593999997E+02  0.45594000000E+02  0.51100000000E-03 0. -1.
    9900012    2    1    2    0    0 -0.27056712064E+01 -0.38707285526E+02 -0.19443466508E+02  0.47787274207E+02  0.20000014421E+02 0.  0.
        -12    1    1    2    0    0  0.27056712064E+01  0.38707285526E+02  0.19443466508E+02  0.43400725793E+02  0.00000000000E+00 0.  1.
         11    1    3    3    0    0 -0.66155130064E+01 -0.25560782062E+02 -0.10537609552E+02  0.28428151668E+02  0.51100000000E-03 0. -1.
        -11    1    3    3    0    0 -0.15077917539E+01 -0.41533646865E+01 -0.75840282688E+01  0.87773207322E+01  0.51100000000E-03 0.  1.
        -12    1    3    3    0    0  0.54176335539E+01 -0.89931387780E+01 -0.13218286869E+01  0.10581801807E+02  0.00000000000E+00 0.  1.
</event>
<event>
 7    1  0.2294216E-010  0.4778727E+02  0.7816164E-02  0.1312668E+00
        -11   -1    0    0    0    0  0.00000000000E+00  0.00000000000E+00  0.45593999997E+02  0.45594000000E+02  0.51100000000E-03 0.  1.
         11   -1    0    0    0    0 -0.00000000000E+00 -0.00000000000E+00 -0.45593999997E+02  0.45594000000E+02  0.51100000000E-03 0. -1.
    9900012    2    1    2    0    0  0.11929856058E+02  0.12284941950E+02 -0.39879599952E+02  0.47787265484E+02  0.19999974646E+02 0.  0.
        -12    1    1    2    0    0 -0.11929856058E+02 -0.12284941950E+02  0.39879599952E+02  0.43400734516E+02  0.00000000000E+00 0.  1.
         11    1    3    3    0    0  0.58134995252E+01  0.12713148307E+02 -0.26301955183E+02  0.29786133742E+02  0.51100000000E-03 0. -1.
        -11    1    3    3    0    0  0.79901450216E+01  0.17636185797E+01 -0.12464186199E+02  0.14910020316E+02  0.51100000000E-03 0.  1.
         12    1    3    3    0    0 -0.18737884888E+01 -0.21918249370E+01 -0.11134585693E+01  0.30911114248E+01  0.00000000000E+00 0. -1.
</event>
<event>
 7    1  0.2294216E-010  0.4778727E+02  0.7816164E-02  0.1312668E+00
        -11   -1    0    0    0    0  0.00000000000E+00  0.00000000000E+00  0.45593999997E+02  0.45594000000E+02  0.51100000000E-03 0.  1.
         11   -1    0    0    0    0 -0.00000000000E+00 -0.00000000000E+00 -0.45593999997E+02  0.45594000000E+02  0.51100000000E-03 0. -1.
    9900012    2    1    2    0    0  0.11208171188E+02  0.15639338852E+02 -0.38902586765E+02  0.47787270996E+02  0.19999999777E+02 0.  0.
        -12    1    1    2    0    0 -0.11208171188E+02 -0.15639338852E+02  0.38902586765E+02  0.43400729004E+02  0.00000000000E+00 0.  1.
         11    1    3    3    0    0  0.50472436958E+01  0.88569629416E+01 -0.15040418785E+02  0.18169608113E+02  0.51100000000E-03 0. -1.
        -11    1    3    3    0    0  0.58796425858E+01  0.27345618663E+01 -0.24646263264E+02  0.25485021457E+02  0.51100000000E-03 0.  1.
        -12    1    3    3    0    0  0.28128490592E+00  0.40478140442E+01  0.78409528454E+00  0.41326414253E+01  0.00000000000E+00 0.  1.
</event>
<event>
 7    1  0.2294216E-010  0.4778727E+02  0.7816164E-02  0.1312668E+00
        -11   -1    0    0    0    0  0.00000000000E+00  0.00000000000E+00  0.45593999997E+02  0.45594000000E+02  0.51100000000E-03 0.  1.
         11   -1    0    0    0    0 -0.00000000000E+00 -0.00000000000E+00 -0.45593999997E+02  0.45594000000E+02  0.51100000000E-03 0. -1.
    9900012    2    1    2    0    0 -0.55407367767E+01 -0.16007837868E+01 -0.43015825424E+02  0.47787268328E+02  0.19999987617E+02 0.  0.
        -12    1    1    2    0    0  0.55407367767E+01  0.16007837868E+01  0.43015825424E+02  0.43400731672E+02  0.00000000000E+00 0.  1.
         11    1    3    3    0    0  0.68316658519E+00  0.48236663619E+00  0.10497539497E+00  0.84286075333E+00  0.51100000000E-03 0. -1.
        -11    1    3    3    0    0 -0.12441145128E+01  0.43390520201E+01 -0.18453342109E+01  0.48765204772E+01  0.51100000000E-03 0.  1.
         12    1    3    3    0    0 -0.49797888491E+01 -0.64222024431E+01 -0.41275466608E+02  0.42067887098E+02  0.00000000000E+00 0. -1.
</event>
<event>
 7    1  0.2294216E-010  0.4778727E+02  0.7816164E-02  0.1312668E+00
        -11   -1    0    0    0    0  0.00000000000E+00  0.00000000000E+00  0.45593999997E+02  0.45594000000E+02  0.51100000000E-03 0. -1.
         11   -1    0    0    0    0 -0.00000000000E+00 -0.00000000000E+00 -0.45593999997E+02  0.45594000000E+02  0.51100000000E-03 0.  1.
    9900012    2    1    2    0    0  0.11849480970E+02 -0.21883770618E+02  0.35557188449E+02  0.47787271134E+02  0.20000000407E+02 0.  0.
        -12    1    1    2    0    0 -0.11849480970E+02  0.21883770618E+02 -0.35557188449E+02  0.43400728866E+02  0.00000000000E+00 0.  1.
         11    1    3    3    0    0  0.14129478606E+02 -0.15780536771E+02  0.29539102001E+02  0.36348673342E+02  0.51100000000E-03 0. -1.
        -11    1    3    3    0    0 -0.95139828093E+00 -0.15989183231E+00  0.52060289905E+01  0.52946635586E+01  0.51100000000E-03 0.  1.
         12    1    3    3    0    0 -0.13285993544E+01 -0.59433420141E+01  0.81205745758E+00  0.61439342327E+01  0.00000000000E+00 0. -1.
</event>
<event>
 7    1  0.2294216E-010  0.4778727E+02  0.7816164E-02  0.1312668E+00
        -11   -1    0    0    0    0  0.00000000000E+00  0.00000000000E+00  0.45593999997E+02  0.45594000000E+02  0.51100000000E-03 0. -1.
         11   -1    0    0    0    0 -0.00000000000E+00 -0.00000000000E+00 -0.45593999997E+02  0.45594000000E+02  0.51100000000E-03 0.  1.
    9900012    2    1    2    0    0 -0.72278961915E+01  0.35735527393E+02  0.23544697745E+02  0.47787271973E+02  0.20000004233E+02 0.  0.
        -12    1    1    2    0    0  0.72278961915E+01 -0.35735527393E+02 -0.23544697745E+02  0.43400728027E+02  0.00000000000E+00 0.  1.
         11    1    3    3    0    0 -0.62375582833E+01  0.10364792695E+02  0.61184369632E+01  0.13556228534E+02  0.51100000000E-03 0. -1.
        -11    1    3    3    0    0 -0.58861243278E+01  0.23220397137E+02  0.12798962940E+02  0.27159653080E+02  0.51100000000E-03 0.  1.
         12    1    3    3    0    0  0.48957864195E+01  0.21503375611E+01  0.46272978417E+01  0.70713903589E+01  0.00000000000E+00 0. -1.
</event>
<event>
 7    1  0.2294216E-010  0.4778727E+02  0.7816164E-02  0.1312668E+00
        -11   -1    0    0    0    0  0.00000000000E+00  0.00000000000E+00  0.45593999997E+02  0.45594000000E+02  0.51100000000E-03 0. -1.
         11   -1    0    0    0    0 -0.00000000000E+00 -0.00000000000E+00 -0.45593999997E+02  0.45594000000E+02  0.51100000000E-03 0.  1.
    9900012    2    1    2    0    0  0.29055273409E+02  0.24940586886E+02 -0.20429915131E+02  0.47787271673E+02  0.20000002865E+02 0.  0.
        -12    1    1    2    0    0 -0.29055273409E+02 -0.24940586886E+02  0.20429915131E+02  0.43400728327E+02  0.00000000000E+00 0.  1.
         11    1    3    3    0    0  0.79666360901E+01  0.45074743868E+01 -0.75899478184E+01  0.11890833616E+02  0.51100000000E-03 0. -1.
        -11    1    3    3    0    0  0.19499760241E+01  0.60795223893E+01 -0.99183398491E+01  0.11795612091E+02  0.51100000000E-03 0.  1.
         12    1    3    3    0    0  0.19138661294E+02  0.14353590110E+02 -0.29216274635E+01  0.24100825966E+02  0.00000000000E+00 0. -1.
</event>
<event>
 7    1  0.2294216E-010  0.4778727E+02  0.7816164E-02  0.1312668E+00
        -11   -1    0    0    0    0  0.00000000000E+00  0.00000000000E+00  0.45593999997E+02  0.45594000000E+02  0.51100000000E-03 0.  1.
         11   -1    0    0    0    0 -0.00000000000E+00 -0.00000000000E+00 -0.45593999997E+02  0.45594000000E+02  0.51100000000E-03 0. -1.
    9900012    2    1    2    0    0 -0.47991978198E+01  0.35508634436E+02 -0.24489341676E+02  0.47787271032E+02  0.19999999944E+02 0.  0.
        -12    1    1    2    0    0  0.47991978198E+01 -0.35508634436E+02  0.24489341676E+02  0.43400728968E+02  0.00000000000E+00 0.  1.
         11    1    3    3    0    0  0.28292641174E+01  0.18065008445E+01 -0.21799860356E+01  0.40025641936E+01  0.51100000000E-03 0.  1.
        -11    1    3    3    0    0  0.10933858122E+01  0.20925202588E+02 -0.18259682446E+02  0.27793445256E+02  0.51100000000E-03 0. -1.
        -12    1    3    3    0    0 -0.87218477495E+01  0.12776931004E+02 -0.40496731942E+01  0.15991261583E+02  0.00000000000E+00 0.  1.
</event>
<event>
 7    1  0.2294216E-010  0.4778728E+02  0.7816164E-02  0.1312668E+00
        -11   -1    0    0    0    0  0.00000000000E+00  0.00000000000E+00  0.45593999997E+02  0.45594000000E+02  0.51100000000E-03 0.  1.
         11   -1    0    0    0    0 -0.00000000000E+00 -0.00000000000E+00 -0.45593999997E+02  0.45594000000E+02  0.51100000000E-03 0. -1.
    9900012    2    1    2    0    0 -0.34364636341E+02 -0.23000629520E+02  0.13178222137E+02  0.47787277335E+02  0.20000028680E+02 0.  0.
        -12    1    1    2    0    0  0.34364636341E+02  0.23000629520E+02 -0.13178222137E+02  0.43400722665E+02  0.00000000000E+00 0.  1.
         11    1    3    3    0    0 -0.83774393006E+01 -0.10903248732E+02  0.85749903741E+01  0.16204714818E+02  0.51100000000E-03 0. -1.
        -11    1    3    3    0    0 -0.99825533248E+01 -0.44485841302E+00  0.61361102737E+01  0.11726087133E+02  0.51100000000E-03 0.  1.
        -12    1    3    3    0    0 -0.16004643715E+02 -0.11652522376E+02 -0.15328785104E+01  0.19856475384E+02  0.00000000000E+00 0.  1.
</event>
<event>
 7    1  0.2294216E-010  0.4778727E+02  0.7816164E-02  0.1312668E+00
        -11   -1    0    0    0    0  0.00000000000E+00  0.00000000000E+00  0.45593999997E+02  0.45594000000E+02  0.51100000000E-03 0.  1.
         11   -1    0    0    0    0 -0.00000000000E+00 -0.00000000000E+00 -0.45593999997E+02  0.45594000000E+02  0.51100000000E-03 0. -1.
    9900012    2    1    2    0    0 -0.38905047348E+02 -0.17224091984E+02 -0.85645346983E+01  0.47787270646E+02  0.19999998184E+02 0.  0.
        -12    1    1    2    0    0  0.38905047348E+02  0.17224091984E+02  0.85645346983E+01  0.43400729354E+02  0.00000000000E+00 0.  1.
         11    1    3    3    0    0 -0.37646122681E+00  0.23531400944E+00  0.70998197751E+00  0.83735918687E+00  0.51100000000E-03 0. -1.
        -11    1    3    3    0    0 -0.11770440252E+02 -0.14783169516E+02 -0.61759723363E+01  0.19880342030E+02  0.51100000000E-03 0.  1.
         12    1    3    3    0    0 -0.26758145870E+02 -0.26762364774E+01 -0.30985443395E+01  0.27069569430E+02  0.00000000000E+00 0. -1.
</event>
<event>
 7    1  0.2294216E-010  0.4778727E+02  0.7816164E-02  0.1312668E+00
        -11   -1    0    0    0    0  0.00000000000E+00  0.00000000000E+00  0.45593999997E+02  0.45594000000E+02  0.51100000000E-03 0.  1.
         11   -1    0    0    0    0 -0.00000000000E+00 -0.00000000000E+00 -0.45593999997E+02  0.45594000000E+02  0.51100000000E-03 0. -1.
    9900012    2    1    2    0    0 -0.33054252988E+02 -0.25968848711E+02 -0.10800859862E+02  0.47787270539E+02  0.19999997698E+02 0.  0.
        -12    1    1    2    0    0  0.33054252988E+02  0.25968848711E+02  0.10800859862E+02  0.43400729461E+02  0.00000000000E+00 0.  1.
         11    1    3    3    0    0 -0.10000125378E+02 -0.99649587326E+01 -0.59462078341E+01  0.15318625852E+02  0.51100000000E-03 0. -1.
        -11    1    3    3    0    0 -0.63864271863E+01 -0.13908358948E+02 -0.22553873050E+01  0.15469831059E+02  0.51100000000E-03 0.  1.
        -12    1    3    3    0    0 -0.16667700423E+02 -0.20955310308E+01 -0.25992647224E+01  0.16998813629E+02  0.00000000000E+00 0.  1.
</event>
<event>
 7    1  0.2294216E-010  0.4778727E+02  0.7816164E-02  0.1312668E+00
        -11   -1    0    0    0    0  0.00000000000E+00  0.00000000000E+00  0.45593999997E+02  0.45594000000E+02  0.51100000000E-03 0.  1.
         11   -1    0    0    0    0 -0.00000000000E+00 -0.00000000000E+00 -0.45593999997E+02  0.45594000000E+02  0.51100000000E-03 0. -1.
    9900012    2    1    2    0    0 -0.15288958495E+02  0.37185456410E+01 -0.40448035359E+02  0.47787269614E+02  0.19999993480E+02 0.  0.
        -12    1    1    2    0    0  0.15288958495E+02 -0.37185456410E+01  0.40448035359E+02  0.43400730386E+02  0.00000000000E+00 0.  1.
         11    1    3    3    0    0 -0.12356152866E+02 -0.13437123200E+00 -0.26277071690E+02  0.29037511363E+02  0.51100000000E-03 0. -1.
        -11    1    3    3    0    0 -0.39938475679E+01  0.85128507278E+00 -0.14928740919E+02  0.15477170618E+02  0.51100000000E-03 0.  1.
        -12    1    3    3    0    0  0.10610419380E+01  0.30016318002E+01  0.75777724954E+00  0.32725876334E+01  0.00000000000E+00 0.  1.
</event>
<event>
 7    1  0.2294216E-010  0.4778727E+02  0.7816164E-02  0.1312668E+00
        -11   -1    0    0    0    0  0.00000000000E+00  0.00000000000E+00  0.45593999997E+02  0.45594000000E+02  0.51100000000E-03 0.  1.
         11   -1    0    0    0    0 -0.00000000000E+00 -0.00000000000E+00 -0.45593999997E+02  0.45594000000E+02  0.51100000000E-03 0. -1.
    9900012    2    1    2    0    0 -0.39639931110E+02 -0.14013936880E+02 -0.10766095412E+02  0.47787269871E+02  0.19999994651E+02 0.  0.
        -12    1    1    2    0    0  0.39639931110E+02  0.14013936880E+02  0.10766095412E+02  0.43400730129E+02  0.00000000000E+00 0.  1.
         11    1    3    3    0    0  0.74087253672E+00 -0.10786168861E+01  0.11112404012E+01  0.17167300292E+01  0.51100000000E-03 0.  1.
        -11    1    3    3    0    0 -0.60122375259E+01 -0.65645601693E+01  0.68399483985E+00  0.89279504639E+01  0.51100000000E-03 0. -1.
        -12    1    3    3    0    0 -0.34368566121E+02 -0.63707598250E+01 -0.12561330653E+02  0.37142589378E+02  0.00000000000E+00 0.  1.
</event>
<event>
 7    1  0.2294216E-010  0.4778727E+02  0.7816164E-02  0.1312668E+00
        -11   -1    0    0    0    0  0.00000000000E+00  0.00000000000E+00  0.45593999997E+02  0.45594000000E+02  0.51100000000E-03 0. -1.
         11   -1    0    0    0    0 -0.00000000000E+00 -0.00000000000E+00 -0.45593999997E+02  0.45594000000E+02  0.51100000000E-03 0.  1.
    9900012    2    1    2    0    0  0.16801451869E+02  0.33185352342E+02 -0.22362175683E+02  0.47787270787E+02  0.19999998825E+02 0.  0.
        -12    1    1    2    0    0 -0.16801451869E+02 -0.33185352342E+02  0.22362175683E+02  0.43400729213E+02  0.00000000000E+00 0.  1.
         11    1    3    3    0    0  0.11145368097E+02  0.22746698819E+02 -0.16297956068E+02  0.30120672460E+02  0.51100000000E-03 0. -1.
        -11    1    3    3    0    0 -0.17554545529E+01  0.86551956101E+01 -0.43876395994E+01  0.98613089015E+01  0.51100000000E-03 0.  1.
        -12    1    3    3    0    0  0.74115383244E+01  0.17834579132E+01 -0.16765800157E+01  0.78052894252E+01  0.00000000000E+00 0.  1.
</event>
<event>
 7    1  0.2294216E-010  0.4778727E+02  0.7816164E-02  0.1312668E+00
        -11   -1    0    0    0    0  0.00000000000E+00  0.00000000000E+00  0.45593999997E+02  0.45594000000E+02  0.51100000000E-03 0.  1.
         11   -1    0    0    0    0 -0.00000000000E+00 -0.00000000000E+00 -0.45593999997E+02  0.45594000000E+02  0.51100000000E-03 0. -1.
    9900012    2    1    2    0    0  0.20823652317E+02  0.56637956167E+01 -0.37655279099E+02  0.47787272810E+02  0.20000008049E+02 0.  0.
        -12    1    1    2    0    0 -0.20823652317E+02 -0.56637956167E+01  0.37655279099E+02  0.43400727190E+02  0.00000000000E+00 0.  1.
         11    1    3    3    0    0  0.10701865504E+02  0.30393410258E+00 -0.79634012933E+01  0.13343090408E+02  0.51100000000E-03 0. -1.
        -11    1    3    3    0    0  0.30846493941E+01  0.64763368761E+01 -0.49979318729E+01  0.87428441874E+01  0.51100000000E-03 0.  1.
         12    1    3    3    0    0  0.70371374187E+01 -0.11164753620E+01 -0.24693945933E+02  0.25701338214E+02  0.00000000000E+00 0. -1.
</event>
<event>
 7    1  0.2294216E-010  0.4778727E+02  0.7816164E-02  0.1312668E+00
        -11   -1    0    0    0    0  0.00000000000E+00  0.00000000000E+00  0.45593999997E+02  0.45594000000E+02  0.51100000000E-03 0.  1.
         11   -1    0    0    0    0 -0.00000000000E+00 -0.00000000000E+00 -0.45593999997E+02  0.45594000000E+02  0.51100000000E-03 0. -1.
    9900012    2    1    2    0    0 -0.74652161920E+01 -0.36028501502E+01 -0.42601801454E+02  0.47787268795E+02  0.19999989742E+02 0.  0.
        -12    1    1    2    0    0  0.74652161920E+01  0.36028501502E+01  0.42601801454E+02  0.43400731205E+02  0.00000000000E+00 0.  1.
         11    1    3    3    0    0 -0.62856911673E+01 -0.69923687445E+01 -0.13248055007E+02  0.16245433076E+02  0.51100000000E-03 0. -1.
        -11    1    3    3    0    0 -0.42372623753E+01 -0.16621680726E+01 -0.64842877827E+01  0.79223218471E+01  0.51100000000E-03 0.  1.
        -12    1    3    3    0    0  0.30577373506E+01  0.50516866669E+01 -0.22869458665E+02  0.23619513871E+02  0.00000000000E+00 0.  1.
</event>
<event>
 7    1  0.2294216E-010  0.4778727E+02  0.7816164E-02  0.1312668E+00
        -11   -1    0    0    0    0  0.00000000000E+00  0.00000000000E+00  0.45593999997E+02  0.45594000000E+02  0.51100000000E-03 0. -1.
         11   -1    0    0    0    0 -0.00000000000E+00 -0.00000000000E+00 -0.45593999997E+02  0.45594000000E+02  0.51100000000E-03 0.  1.
    9900012    2    1    2    0    0  0.12239507745E+02  0.41967879480E-01  0.41639116375E+02  0.47787270471E+02  0.19999997388E+02 0.  0.
        -12    1    1    2    0    0 -0.12239507745E+02 -0.41967879480E-01 -0.41639116375E+02  0.43400729529E+02  0.00000000000E+00 0.  1.
         11    1    3    3    0    0  0.48499977910E+01  0.22639733333E+01  0.14354944604E+02  0.15320329261E+02  0.51100000000E-03 0. -1.
        -11    1    3    3    0    0  0.31035514969E+01  0.40958467963E+00 -0.13393365300E+01  0.34049396625E+01  0.51100000000E-03 0.  1.
        -12    1    3    3    0    0  0.42859584575E+01 -0.26315901334E+01  0.28623508301E+02  0.29062001548E+02  0.00000000000E+00 0.  1.
</event>
<event>
 7    1  0.2294216E-010  0.4778727E+02  0.7816164E-02  0.1312668E+00
        -11   -1    0    0    0    0  0.00000000000E+00  0.00000000000E+00  0.45593999997E+02  0.45594000000E+02  0.51100000000E-03 0. -1.
         11   -1    0    0    0    0 -0.00000000000E+00 -0.00000000000E+00 -0.45593999997E+02  0.45594000000E+02  0.51100000000E-03 0.  1.
    9900012    2    1    2    0    0 -0.39131172668E+02  0.59935550657E+01  0.17789099335E+02  0.47787269225E+02  0.19999991703E+02 0.  0.
        -12    1    1    2    0    0  0.39131172668E+02 -0.59935550657E+01 -0.17789099335E+02  0.43400730775E+02  0.00000000000E+00 0.  1.
         11    1    3    3    0    0 -0.25567826341E+02  0.37873893891E+01  0.16321407766E+02  0.30568716262E+02  0.51100000000E-03 0. -1.
        -11    1    3    3    0    0 -0.33217966561E+01  0.50618210021E+01  0.24706127900E+01  0.65391354705E+01  0.51100000000E-03 0.  1.
        -12    1    3    3    0    0 -0.10241549671E+02 -0.28556553255E+01 -0.10029212210E+01  0.10679417492E+02  0.00000000000E+00 0.  1.
</event>
<event>
 7    1  0.2294216E-010  0.4778727E+02  0.7816164E-02  0.1312668E+00
        -11   -1    0    0    0    0  0.00000000000E+00  0.00000000000E+00  0.45593999997E+02  0.45594000000E+02  0.51100000000E-03 0. -1.
         11   -1    0    0    0    0 -0.00000000000E+00 -0.00000000000E+00 -0.45593999997E+02  0.45594000000E+02  0.51100000000E-03 0.  1.
    9900012    2    1    2    0    0 -0.18751041876E+01 -0.38405544048E+02  0.20127628296E+02  0.47787271318E+02  0.20000001246E+02 0.  0.
        -12    1    1    2    0    0  0.18751041876E+01  0.38405544048E+02 -0.20127628296E+02  0.43400728682E+02  0.00000000000E+00 0.  1.
         11    1    3    3    0    0 -0.55382079625E+00 -0.24553956654E+02  0.17822846363E+02  0.30345631607E+02  0.51100000000E-03 0. -1.
        -11    1    3    3    0    0  0.14953980097E+01 -0.36898326364E+01  0.51596301953E+01  0.65171208448E+01  0.51100000000E-03 0.  1.
        -12    1    3    3    0    0 -0.28166814010E+01 -0.10161754757E+02 -0.28548482625E+01  0.10924518866E+02  0.00000000000E+00 0.  1.
</event>
<event>
 7    1  0.2294216E-010  0.4778727E+02  0.7816164E-02  0.1312668E+00
        -11   -1    0    0    0    0  0.00000000000E+00  0.00000000000E+00  0.45593999997E+02  0.45594000000E+02  0.51100000000E-03 0.  1.
         11   -1    0    0    0    0 -0.00000000000E+00 -0.00000000000E+00 -0.45593999997E+02  0.45594000000E+02  0.51100000000E-03 0. -1.
    9900012    2    1    2    0    0  0.24972567745E+02 -0.50691831272E+01 -0.35132570748E+02  0.47787270919E+02  0.19999999430E+02 0.  0.
        -12    1    1    2    0    0 -0.24972567745E+02  0.50691831272E+01  0.35132570748E+02  0.43400729081E+02  0.00000000000E+00 0.  1.
         11    1    3    3    0    0  0.64462124165E+00  0.25408415116E+00 -0.54876690370E+01  0.55312391940E+01  0.51100000000E-03 0. -1.
        -11    1    3    3    0    0  0.13969656372E+02 -0.36099072905E+01 -0.46723218930E+01  0.15166190093E+02  0.51100000000E-03 0.  1.
        -12    1    3    3    0    0  0.10358290131E+02 -0.17133599879E+01 -0.24972579818E+02  0.27089841632E+02  0.00000000000E+00 0.  1.
</event>
<event>
 7    1  0.2294216E-010  0.4778727E+02  0.7816164E-02  0.1312668E+00
        -11   -1    0    0    0    0  0.00000000000E+00  0.00000000000E+00  0.45593999997E+02  0.45594000000E+02  0.51100000000E-03 0. -1.
         11   -1    0    0    0    0 -0.00000000000E+00 -0.00000000000E+00 -0.45593999997E+02  0.45594000000E+02  0.51100000000E-03 0.  1.
    9900012    2    1    2    0    0  0.13685789782E+02 -0.29583041326E+02  0.28655992180E+02  0.47787273464E+02  0.20000011032E+02 0.  0.
        -12    1    1    2    0    0 -0.13685789782E+02  0.29583041326E+02 -0.28655992180E+02  0.43400726536E+02  0.00000000000E+00 0.  1.
         11    1    3    3    0    0 -0.19916996788E+01 -0.14011012021E+01  0.89649480221E+00  0.25949287815E+01  0.51100000000E-03 0. -1.
        -11    1    3    3    0    0  0.30937076685E+01 -0.16999548455E+02  0.74593562081E+01  0.18820140013E+02  0.51100000000E-03 0.  1.
         12    1    3    3    0    0  0.12583781792E+02 -0.11182391669E+02  0.20300141169E+02  0.26372204669E+02  0.00000000000E+00 0. -1.
</event>
<event>
 7    1  0.2676822E-010  0.4778727E+02  0.7816164E-02  0.1312668E+00
        -11   -1    0    0    0    0  0.00000000000E+00  0.00000000000E+00  0.45593999997E+02  0.45594000000E+02  0.51100000000E-03 0. -1.
         11   -1    0    0    0    0 -0.00000000000E+00 -0.00000000000E+00 -0.45593999997E+02  0.45594000000E+02  0.51100000000E-03 0.  1.
    9900012    2    1    2    0    0  0.24112526491E+02  0.14394133686E+02  0.33091061144E+02  0.47787270214E+02  0.19999996212E+02 0.  0.
        -12    1    1    2    0    0 -0.24112526491E+02 -0.14394133686E+02 -0.33091061144E+02  0.43400729786E+02  0.00000000000E+00 0.  1.
         11    1    3    3    0    0  0.17897247651E+02  0.11570773331E+02  0.21462336014E+02  0.30246092911E+02  0.51100000000E-03 0. -1.
        -11    1    3    3    0    0  0.32582438331E+01  0.52907162696E+01  0.10738381626E+01  0.63056292455E+01  0.51100000000E-03 0.  1.
        -12    1    3    3    0    0  0.29570350065E+01 -0.24673559144E+01  0.10554886968E+02  0.11235548057E+02  0.00000000000E+00 0.  1.
</event>
<event>
 7    1  0.2294216E-010  0.4778727E+02  0.7816164E-02  0.1312668E+00
        -11   -1    0    0    0    0  0.00000000000E+00  0.00000000000E+00  0.45593999997E+02  0.45594000000E+02  0.51100000000E-03 0.  1.
         11   -1    0    0    0    0 -0.00000000000E+00 -0.00000000000E+00 -0.45593999997E+02  0.45594000000E+02  0.51100000000E-03 0. -1.
    9900012    2    1    2    0    0  0.28278654586E+02  0.32368178303E+02 -0.60201552576E+01  0.47787267965E+02  0.19999985960E+02 0.  0.
        -12    1    1    2    0    0 -0.28278654586E+02 -0.32368178303E+02  0.60201552576E+01  0.43400732035E+02  0.00000000000E+00 0.  1.
         11    1    3    3    0    0  0.12442032413E+01  0.15451680727E+00  0.72770030669E+00  0.14496431101E+01  0.51100000000E-03 0. -1.
        -11    1    3    3    0    0  0.96101875455E+01  0.47163842974E+00 -0.98659143214E+00  0.96722029747E+01  0.51100000000E-03 0.  1.
         12    1    3    3    0    0  0.17424263799E+02  0.31742023066E+02 -0.57612641321E+01  0.36665421880E+02  0.00000000000E+00 0. -1.
</event>
<event>
 7    1  0.2294216E-010  0.4778727E+02  0.7816164E-02  0.1312668E+00
        -11   -1    0    0    0    0  0.00000000000E+00  0.00000000000E+00  0.45593999997E+02  0.45594000000E+02  0.51100000000E-03 0. -1.
         11   -1    0    0    0    0 -0.00000000000E+00 -0.00000000000E+00 -0.45593999997E+02  0.45594000000E+02  0.51100000000E-03 0.  1.
    9900012    2    1    2    0    0 -0.11782784216E+02  0.41436674642E+02  0.52717678405E+01  0.47787267916E+02  0.19999985737E+02 0.  0.
        -12    1    1    2    0    0  0.11782784216E+02 -0.41436674642E+02 -0.52717678405E+01  0.43400732084E+02  0.00000000000E+00 0.  1.
         11    1    3    3    0    0 -0.58331611338E+01  0.25807505567E+02  0.88395450919E+01  0.27896069080E+02  0.51100000000E-03 0. -1.
        -11    1    3    3    0    0 -0.38807945768E+00  0.12487341644E+02  0.16190064358E+00  0.12494419517E+02  0.51100000000E-03 0.  1.
        -12    1    3    3    0    0 -0.55615436245E+01  0.31418274308E+01 -0.37296778950E+01  0.73967793190E+01  0.00000000000E+00 0.  1.
</event>
<event>
 7    1  0.2294216E-010  0.4778727E+02  0.7816164E-02  0.1312668E+00
        -11   -1    0    0    0    0  0.00000000000E+00  0.00000000000E+00  0.45593999997E+02  0.45594000000E+02  0.51100000000E-03 0.  1.
         11   -1    0    0    0    0 -0.00000000000E+00 -0.00000000000E+00 -0.45593999997E+02  0.45594000000E+02  0.51100000000E-03 0. -1.
    9900012    2    1    2    0    0  0.16209787481E+02 -0.24057351734E+02 -0.32281723595E+02  0.47787273498E+02  0.20000011187E+02 0.  0.
        -12    1    1    2    0    0 -0.16209787481E+02  0.24057351734E+02  0.32281723595E+02  0.43400726502E+02  0.00000000000E+00 0.  1.
         11    1    3    3    0    0 -0.14525975982E+01  0.12828074542E+01 -0.14184155364E+01  0.24015698287E+01  0.51100000000E-03 0. -1.
        -11    1    3    3    0    0  0.42156017781E+01 -0.20003357606E+00 -0.71494416633E+01  0.83021580412E+01  0.51100000000E-03 0.  1.
         12    1    3    3    0    0  0.13446783301E+02 -0.25140125612E+02 -0.23713866395E+02  0.37083545628E+02  0.00000000000E+00 0. -1.
</event>
<event>
 7    1  0.2294216E-010  0.4778727E+02  0.7816164E-02  0.1312668E+00
        -11   -1    0    0    0    0  0.00000000000E+00  0.00000000000E+00  0.45593999997E+02  0.45594000000E+02  0.51100000000E-03 0.  1.
         11   -1    0    0    0    0 -0.00000000000E+00 -0.00000000000E+00 -0.45593999997E+02  0.45594000000E+02  0.51100000000E-03 0. -1.
    9900012    2    1    2    0    0  0.10461282307E+02 -0.42051034868E+02  0.24280306123E+01  0.47787270816E+02  0.19999998960E+02 0.  0.
        -12    1    1    2    0    0 -0.10461282307E+02  0.42051034868E+02 -0.24280306123E+01  0.43400729184E+02  0.00000000000E+00 0.  1.
         11    1    3    3    0    0 -0.44061179185E+01 -0.55367064690E+01  0.96581765796E+00  0.71415542878E+01  0.51100000000E-03 0. -1.
        -11    1    3    3    0    0  0.79727316025E+01 -0.16493323092E+02 -0.40575212998E+01  0.18763198959E+02  0.51100000000E-03 0.  1.
        -12    1    3    3    0    0  0.68946686231E+01 -0.20021005308E+02  0.55197342541E+01  0.21882517570E+02  0.00000000000E+00 0.  1.
</event>
<event>
 7    1  0.2294216E-010  0.4778727E+02  0.7816164E-02  0.1312668E+00
        -11   -1    0    0    0    0  0.00000000000E+00  0.00000000000E+00  0.45593999997E+02  0.45594000000E+02  0.51100000000E-03 0.  1.
         11   -1    0    0    0    0 -0.00000000000E+00 -0.00000000000E+00 -0.45593999997E+02  0.45594000000E+02  0.51100000000E-03 0. -1.
    9900012    2    1    2    0    0 -0.33144256830E+02  0.20529295161E+02  0.19069084239E+02  0.47787266201E+02  0.19999977917E+02 0.  0.
        -12    1    1    2    0    0  0.33144256830E+02 -0.20529295161E+02 -0.19069084239E+02  0.43400733799E+02  0.00000000000E+00 0.  1.
         11    1    3    3    0    0 -0.23285531681E+01  0.23167813331E+01  0.50649082516E+01  0.60367981133E+01  0.51100000000E-03 0. -1.
        -11    1    3    3    0    0 -0.55557202213E+01  0.10165846041E+02 -0.37557681682E+00  0.11591009927E+02  0.51100000000E-03 0.  1.
         12    1    3    3    0    0 -0.25259983440E+02  0.80466677866E+01  0.14379752804E+02  0.30159458161E+02  0.00000000000E+00 0. -1.
</event>
<event>
 7    1  0.2294216E-010  0.4778727E+02  0.7816164E-02  0.1312668E+00
        -11   -1    0    0    0    0  0.00000000000E+00  0.00000000000E+00  0.45593999997E+02  0.45594000000E+02  0.51100000000E-03 0. -1.
         11   -1    0    0    0    0 -0.00000000000E+00 -0.00000000000E+00 -0.45593999997E+02  0.45594000000E+02  0.51100000000E-03 0.  1.
    9900012    2    1    2    0    0  0.22693675751E+02 -0.29547776077E+02  0.22260932966E+02  0.47787272740E+02  0.20000007729E+02 0.  0.
        -12    1    1    2    0    0 -0.22693675751E+02  0.29547776077E+02 -0.22260932966E+02  0.43400727260E+02  0.00000000000E+00 0.  1.
         11    1    3    3    0    0  0.74132905195E+00  0.32591045012E+00 -0.12044977700E+01  0.14514136294E+01  0.51100000000E-03 0. -1.
        -11    1    3    3    0    0  0.96568391092E+01 -0.21835145720E+02  0.84416898583E+01  0.25323709407E+02  0.51100000000E-03 0.  1.
         12    1    3    3    0    0  0.12295507590E+02 -0.80385408077E+01  0.15023740877E+02  0.21012149704E+02  0.00000000000E+00 0. -1.
</event>
<event>
 7    1  0.2294216E-010  0.4778727E+02  0.7816164E-02  0.1312668E+00
        -11   -1    0    0    0    0  0.00000000000E+00  0.00000000000E+00  0.45593999997E+02  0.45594000000E+02  0.51100000000E-03 0.  1.
         11   -1    0    0    0    0 -0.00000000000E+00 -0.00000000000E+00 -0.45593999997E+02  0.45594000000E+02  0.51100000000E-03 0. -1.
    9900012    2    1    2    0    0 -0.72395660471E+00 -0.19509589012E+02 -0.38761769617E+02  0.47787274656E+02  0.20000016465E+02 0.  0.
        -12    1    1    2    0    0  0.72395660471E+00  0.19509589012E+02  0.38761769617E+02  0.43400725344E+02  0.00000000000E+00 0.  1.
         11    1    3    3    0    0  0.14150077280E+01 -0.64434770656E+01 -0.78337161782E+01  0.10241472208E+02  0.51100000000E-03 0. -1.
        -11    1    3    3    0    0 -0.65004240597E+01 -0.14839972178E+02 -0.26627697667E+02  0.31169128485E+02  0.51100000000E-03 0.  1.
         12    1    3    3    0    0  0.43614597270E+01  0.17738602309E+01 -0.43003557718E+01  0.63766739632E+01  0.00000000000E+00 0. -1.
</event>
<event>
 7    1  0.2294216E-010  0.4778727E+02  0.7816164E-02  0.1312668E+00
        -11   -1    0    0    0    0  0.00000000000E+00  0.00000000000E+00  0.45593999997E+02  0.45594000000E+02  0.51100000000E-03 0.  1.
         11   -1    0    0    0    0 -0.00000000000E+00 -0.00000000000E+00 -0.45593999997E+02  0.45594000000E+02  0.51100000000E-03 0. -1.
    9900012    2    1    2    0    0  0.17364315356E+02  0.21000538988E+02 -0.33779892933E+02  0.47787271295E+02  0.20000001142E+02 0.  0.
        -12    1    1    2    0    0 -0.17364315356E+02 -0.21000538988E+02  0.33779892933E+02  0.43400728705E+02  0.00000000000E+00 0.  1.
         11    1    3    3    0    0  0.59167519907E+01  0.17621439009E+02 -0.19783039085E+02  0.27145749254E+02  0.51100000000E-03 0. -1.
        -11    1    3    3    0    0  0.10304267103E+02  0.56827614633E+01 -0.13688673043E+02  0.18051356413E+02  0.51100000000E-03 0.  1.
        -12    1    3    3    0    0  0.11432962624E+01 -0.23036614836E+01 -0.30818080390E+00  0.25901656284E+01  0.00000000000E+00 0.  1.
</event>
<event>
 7    1  0.2294216E-010  0.4778728E+02  0.7816164E-02  0.1312668E+00
        -11   -1    0    0    0    0  0.00000000000E+00  0.00000000000E+00  0.45593999997E+02  0.45594000000E+02  0.51100000000E-03 0.  1.
         11   -1    0    0    0    0 -0.00000000000E+00 -0.00000000000E+00 -0.45593999997E+02  0.45594000000E+02  0.51100000000E-03 0. -1.
    9900012    2    1    2    0    0 -0.16232418594E+01 -0.41005084376E+02 -0.14126942829E+02  0.47787281428E+02  0.20000047345E+02 0.  0.
        -12    1    1    2    0    0  0.16232418594E+01  0.41005084376E+02  0.14126942829E+02  0.43400718572E+02  0.00000000000E+00 0.  1.
         11    1    3    3    0    0 -0.84171188658E+00 -0.13606786489E+02  0.17851527020E+01  0.13749177717E+02  0.51100000000E-03 0. -1.
        -11    1    3    3    0    0  0.29522240588E+01 -0.60221104649E+00 -0.12138661005E+01  0.32483466886E+01  0.51100000000E-03 0.  1.
        -12    1    3    3    0    0 -0.37337540316E+01 -0.26796086841E+02 -0.14698229431E+02  0.30789757023E+02  0.00000000000E+00 0.  1.
</event>
<event>
 7    1  0.2294216E-010  0.4778727E+02  0.7816164E-02  0.1312668E+00
        -11   -1    0    0    0    0  0.00000000000E+00  0.00000000000E+00  0.45593999997E+02  0.45594000000E+02  0.51100000000E-03 0.  1.
         11   -1    0    0    0    0 -0.00000000000E+00 -0.00000000000E+00 -0.45593999997E+02  0.45594000000E+02  0.51100000000E-03 0. -1.
    9900012    2    1    2    0    0  0.15430691724E+02 -0.11202798451E+02 -0.38987366453E+02  0.47787266330E+02  0.19999978503E+02 0.  0.
        -12    1    1    2    0    0 -0.15430691724E+02  0.11202798451E+02  0.38987366453E+02  0.43400733670E+02  0.00000000000E+00 0.  1.
         11    1    3    3    0    0  0.13130091380E+02 -0.14080484294E+02 -0.23934417981E+02  0.30716700701E+02  0.51100000000E-03 0. -1.
        -11    1    3    3    0    0 -0.23264500955E+00 -0.12725769510E+01 -0.44817069760E-01  0.12944437522E+01  0.51100000000E-03 0.  1.
        -12    1    3    3    0    0  0.25332453539E+01  0.41502627942E+01 -0.15008131402E+02  0.15776121876E+02  0.00000000000E+00 0.  1.
</event>
<event>
 7    1  0.2294216E-010  0.4778726E+02  0.7816164E-02  0.1312668E+00
        -11   -1    0    0    0    0  0.00000000000E+00  0.00000000000E+00  0.45593999997E+02  0.45594000000E+02  0.51100000000E-03 0.  1.
         11   -1    0    0    0    0 -0.00000000000E+00 -0.00000000000E+00 -0.45593999997E+02  0.45594000000E+02  0.51100000000E-03 0. -1.
    9900012    2    1    2    0    0 -0.12007265849E+02 -0.40935795977E+01 -0.41505326974E+02  0.47787262744E+02  0.19999962155E+02 0.  0.
        -12    1    1    2    0    0  0.12007265849E+02  0.40935795977E+01  0.41505326974E+02  0.43400737256E+02  0.00000000000E+00 0.  1.
         11    1    3    3    0    0 -0.35436819301E+01  0.10345743256E+01 -0.12058719815E+01  0.38835747906E+01  0.51100000000E-03 0. -1.
        -11    1    3    3    0    0 -0.68418518486E+01  0.40321806623E+01 -0.15484022532E+02  0.17401849662E+02  0.51100000000E-03 0.  1.
         12    1    3    3    0    0 -0.16217320707E+01 -0.91603345856E+01 -0.24815432460E+02  0.26501838291E+02  0.00000000000E+00 0. -1.
</event>
<event>
 7    1  0.2294216E-010  0.4778727E+02  0.7816164E-02  0.1312668E+00
        -11   -1    0    0    0    0  0.00000000000E+00  0.00000000000E+00  0.45593999997E+02  0.45594000000E+02  0.51100000000E-03 0. -1.
         11   -1    0    0    0    0 -0.00000000000E+00 -0.00000000000E+00 -0.45593999997E+02  0.45594000000E+02  0.51100000000E-03 0.  1.
    9900012    2    1    2    0    0  0.23924646250E+01  0.42568825117E+02 -0.81113757901E+01  0.47787272172E+02  0.20000005140E+02 0.  0.
        -12    1    1    2    0    0 -0.23924646250E+01 -0.42568825117E+02  0.81113757901E+01  0.43400727828E+02  0.00000000000E+00 0.  1.
         11    1    3    3    0    0 -0.13461475363E+01  0.85265996729E+01 -0.50068558831E+01  0.99791593467E+01  0.51100000000E-03 0. -1.
        -11    1    3    3    0    0 -0.30360316900E+01  0.12678399327E+02  0.50182318494E+01  0.13969321711E+02  0.51100000000E-03 0.  1.
        -12    1    3    3    0    0  0.67746438513E+01  0.21363826117E+02 -0.81227517564E+01  0.23838791114E+02  0.00000000000E+00 0.  1.
</event>
<event>
 7    1  0.2294216E-010  0.4778728E+02  0.7816164E-02  0.1312668E+00
        -11   -1    0    0    0    0  0.00000000000E+00  0.00000000000E+00  0.45593999997E+02  0.45594000000E+02  0.51100000000E-03 0.  1.
         11   -1    0    0    0    0 -0.00000000000E+00 -0.00000000000E+00 -0.45593999997E+02  0.45594000000E+02  0.51100000000E-03 0. -1.
    9900012    2    1    2    0    0  0.97040357867E+01  0.97593003553E+01 -0.41160788563E+02  0.47787276860E+02  0.20000026513E+02 0.  0.
        -12    1    1    2    0    0 -0.97040357867E+01 -0.97593003553E+01  0.41160788563E+02  0.43400723140E+02  0.00000000000E+00 0.  1.
         11    1    3    3    0    0  0.33077260072E+01  0.11959252027E+02 -0.11792376805E+02  0.17117970422E+02  0.51100000000E-03 0. -1.
        -11    1    3    3    0    0 -0.10218377932E+01 -0.12510444741E+00 -0.52749983231E+01  0.53745149705E+01  0.51100000000E-03 0.  1.
         12    1    3    3    0    0  0.74181475727E+01 -0.20748472245E+01 -0.24093413435E+02  0.25294791467E+02  0.00000000000E+00 0. -1.
</event>
<event>
 7    1  0.2294216E-010  0.4778727E+02  0.7816164E-02  0.1312668E+00
        -11   -1    0    0    0    0  0.00000000000E+00  0.00000000000E+00  0.45593999997E+02  0.45594000000E+02  0.51100000000E-03 0.  1.
         11   -1    0    0    0    0 -0.00000000000E+00 -0.00000000000E+00 -0.45593999997E+02  0.45594000000E+02  0.51100000000E-03 0. -1.
    9900012    2    1    2    0    0  0.28230097990E+02  0.14202642178E+02 -0.29748442984E+02  0.47787270313E+02  0.19999996667E+02 0.  0.
        -12    1    1    2    0    0 -0.28230097990E+02 -0.14202642178E+02  0.29748442984E+02  0.43400729687E+02  0.00000000000E+00 0.  1.
         11    1    3    3    0    0  0.93905664705E+01  0.77456458094E+01 -0.12620086255E+02  0.17534090937E+02  0.51100000000E-03 0. -1.
        -11    1    3    3    0    0  0.19466130940E+02  0.86295860088E+01 -0.11527879453E+02  0.24213467604E+02  0.51100000000E-03 0.  1.
        -12    1    3    3    0    0 -0.62659942038E+00 -0.21725896402E+01 -0.56004772759E+01  0.60397117726E+01  0.00000000000E+00 0.  1.
</event>
<event>
 7    1  0.2294216E-010  0.4778727E+02  0.7816164E-02  0.1312668E+00
        -11   -1    0    0    0    0  0.00000000000E+00  0.00000000000E+00  0.45593999997E+02  0.45594000000E+02  0.51100000000E-03 0. -1.
         11   -1    0    0    0    0 -0.00000000000E+00 -0.00000000000E+00 -0.45593999997E+02  0.45594000000E+02  0.51100000000E-03 0.  1.
    9900012    2    1    2    0    0 -0.24395613880E+02  0.12533090881E+02  0.33636272520E+02  0.47787272210E+02  0.20000005315E+02 0.  0.
        -12    1    1    2    0    0  0.24395613880E+02 -0.12533090881E+02 -0.33636272520E+02  0.43400727790E+02  0.00000000000E+00 0.  1.
         11    1    3    3    0    0 -0.15301663063E+02  0.45496093654E+01  0.19301853206E+02  0.25047981462E+02  0.51100000000E-03 0. -1.
        -11    1    3    3    0    0 -0.80529698713E+01  0.35602962210E+01  0.12560765979E+01  0.88940295486E+01  0.51100000000E-03 0.  1.
         12    1    3    3    0    0 -0.10409809459E+01  0.44231852942E+01  0.13078342717E+02  0.13845261200E+02  0.00000000000E+00 0. -1.
</event>
<event>
 7    1  0.2294216E-010  0.4778728E+02  0.7816164E-02  0.1312668E+00
        -11   -1    0    0    0    0  0.00000000000E+00  0.00000000000E+00  0.45593999997E+02  0.45594000000E+02  0.51100000000E-03 0.  1.
         11   -1    0    0    0    0 -0.00000000000E+00 -0.00000000000E+00 -0.45593999997E+02  0.45594000000E+02  0.51100000000E-03 0. -1.
    9900012    2    1    2    0    0 -0.38941972357E+02 -0.75319803558E+01 -0.17618596000E+02  0.47787275765E+02  0.20000021523E+02 0.  0.
        -12    1    1    2    0    0  0.38941972357E+02  0.75319803558E+01  0.17618596000E+02  0.43400724235E+02  0.00000000000E+00 0.  1.
         11    1    3    3    0    0 -0.17242209297E+02 -0.24395345442E+01 -0.10973837415E+02  0.20583250912E+02  0.51100000000E-03 0. -1.
        -11    1    3    3    0    0 -0.13833902080E+02  0.14637700013E+01 -0.91646234954E+01  0.16658625197E+02  0.51100000000E-03 0.  1.
        -12    1    3    3    0    0 -0.78658609797E+01 -0.65562158130E+01  0.25198649107E+01  0.10545399656E+02  0.00000000000E+00 0.  1.
</event>
<event>
 7    1  0.2294216E-010  0.4778727E+02  0.7816164E-02  0.1312668E+00
        -11   -1    0    0    0    0  0.00000000000E+00  0.00000000000E+00  0.45593999997E+02  0.45594000000E+02  0.51100000000E-03 0.  1.
         11   -1    0    0    0    0 -0.00000000000E+00 -0.00000000000E+00 -0.45593999997E+02  0.45594000000E+02  0.51100000000E-03 0. -1.
    9900012    2    1    2    0    0  0.55374601488E+01  0.21355482618E+02 -0.37375170744E+02  0.47787268544E+02  0.19999988601E+02 0.  0.
        -12    1    1    2    0    0 -0.55374601488E+01 -0.21355482618E+02  0.37375170744E+02  0.43400731456E+02  0.00000000000E+00 0.  1.
         11    1    3    3    0    0  0.40468583947E+01  0.15022031654E+02 -0.37809741237E+02  0.40885388961E+02  0.51100000000E-03 0. -1.
        -11    1    3    3    0    0 -0.49162020842E+00  0.27166572117E+01  0.27471295461E+00  0.27744160293E+01  0.51100000000E-03 0.  1.
         12    1    3    3    0    0  0.19822219625E+01  0.36167937522E+01  0.15985753814E+00  0.41274635537E+01  0.00000000000E+00 0. -1.
</event>
<event>
 7    1  0.2294216E-010  0.4778728E+02  0.7816164E-02  0.1312668E+00
        -11   -1    0    0    0    0  0.00000000000E+00  0.00000000000E+00  0.45593999997E+02  0.45594000000E+02  0.51100000000E-03 0.  1.
         11   -1    0    0    0    0 -0.00000000000E+00 -0.00000000000E+00 -0.45593999997E+02  0.45594000000E+02  0.51100000000E-03 0. -1.
    9900012    2    1    2    0    0 -0.11856389671E+02  0.17307099348E+02 -0.37993594481E+02  0.47787275519E+02  0.20000020403E+02 0.  0.
        -12    1    1    2    0    0  0.11856389671E+02 -0.17307099348E+02  0.37993594481E+02  0.43400724481E+02  0.00000000000E+00 0.  1.
         11    1    3    3    0    0 -0.57571919952E+01  0.17230161234E+02 -0.32994862547E+02  0.37665430710E+02  0.51100000000E-03 0. -1.
        -11    1    3    3    0    0 -0.28653895538E+01  0.26429177762E+01 -0.36384745983E+00  0.39150807018E+01  0.51100000000E-03 0.  1.
        -12    1    3    3    0    0 -0.32338081221E+01 -0.25659796626E+01 -0.46348844742E+01  0.62067641077E+01  0.00000000000E+00 0.  1.
</event>
<event>
 7    1  0.2294216E-010  0.4778727E+02  0.7816164E-02  0.1312668E+00
        -11   -1    0    0    0    0  0.00000000000E+00  0.00000000000E+00  0.45593999997E+02  0.45594000000E+02  0.51100000000E-03 0. -1.
         11   -1    0    0    0    0 -0.00000000000E+00 -0.00000000000E+00 -0.45593999997E+02  0.45594000000E+02  0.51100000000E-03 0.  1.
    9900012    2    1    2    0    0  0.39870137418E+02  0.15457504533E+02 -0.74203068436E+01  0.47787271230E+02  0.20000000846E+02 0.  0.
        -12    1    1    2    0    0 -0.39870137418E+02 -0.15457504533E+02  0.74203068436E+01  0.43400728770E+02  0.00000000000E+00 0.  1.
         11    1    3    3    0    0  0.59863305976E+01 -0.17835950507E+01  0.57270719383E-01  0.62466507446E+01  0.51100000000E-03 0. -1.
        -11    1    3    3    0    0 -0.10361174589E+01 -0.22393391067E+00  0.11403098701E+01  0.15569176747E+01  0.51100000000E-03 0.  1.
         12    1    3    3    0    0  0.34919924279E+02  0.17465033494E+02 -0.86178874331E+01  0.39983702811E+02  0.00000000000E+00 0. -1.
</event>
<event>
 7    1  0.2294216E-010  0.4778728E+02  0.7816164E-02  0.1312668E+00
        -11   -1    0    0    0    0  0.00000000000E+00  0.00000000000E+00  0.45593999997E+02  0.45594000000E+02  0.51100000000E-03 0. -1.
         11   -1    0    0    0    0 -0.00000000000E+00 -0.00000000000E+00 -0.45593999997E+02  0.45594000000E+02  0.51100000000E-03 0.  1.
    9900012    2    1    2    0    0 -0.25708918229E+02  0.10731989904E+02 -0.33279104574E+02  0.47787275524E+02  0.20000020423E+02 0.  0.
        -12    1    1    2    0    0  0.25708918229E+02 -0.10731989904E+02  0.33279104574E+02  0.43400724476E+02  0.00000000000E+00 0.  1.
         11    1    3    3    0    0 -0.46459510042E+01  0.60681969331E+01 -0.68643333713E+01  0.10272630999E+02  0.51100000000E-03 0. -1.
        -11    1    3    3    0    0 -0.66393803907E+00  0.47799990881E+01 -0.10786514509E+02  0.11816856626E+02  0.51100000000E-03 0.  1.
        -12    1    3    3    0    0 -0.20399029186E+02 -0.11620611723E+00 -0.15628256694E+02  0.25697787898E+02  0.00000000000E+00 0.  1.
</event>
<event>
 7    1  0.2294216E-010  0.4778727E+02  0.7816164E-02  0.1312668E+00
        -11   -1    0    0    0    0  0.00000000000E+00  0.00000000000E+00  0.45593999997E+02  0.45594000000E+02  0.51100000000E-03 0. -1.
         11   -1    0    0    0    0 -0.00000000000E+00 -0.00000000000E+00 -0.45593999997E+02  0.45594000000E+02  0.51100000000E-03 0.  1.
    9900012    2    1    2    0    0  0.25424875993E+02  0.22212327824E+02  0.27272913362E+02  0.47787266943E+02  0.19999981300E+02 0.  0.
        -12    1    1    2    0    0 -0.25424875993E+02 -0.22212327824E+02 -0.27272913362E+02  0.43400733057E+02  0.00000000000E+00 0.  1.
         11    1    3    3    0    0  0.25548986876E+01  0.53665896440E+01  0.10877592658E+02  0.12395556220E+02  0.51100000000E-03 0. -1.
        -11    1    3    3    0    0  0.34555951041E+01  0.34412009465E+01  0.97173375942E+01  0.10872426208E+02  0.51100000000E-03 0.  1.
         12    1    3    3    0    0  0.19414382201E+02  0.13404537233E+02  0.66779831104E+01  0.24519284515E+02  0.00000000000E+00 0. -1.
</event>
<event>
 7    1  0.2294216E-010  0.4778727E+02  0.7816164E-02  0.1312668E+00
        -11   -1    0    0    0    0  0.00000000000E+00  0.00000000000E+00  0.45593999997E+02  0.45594000000E+02  0.51100000000E-03 0. -1.
         11   -1    0    0    0    0 -0.00000000000E+00 -0.00000000000E+00 -0.45593999997E+02  0.45594000000E+02  0.51100000000E-03 0.  1.
    9900012    2    1    2    0    0  0.26487043573E+02 -0.27158265256E+02  0.21082895108E+02  0.47787270570E+02  0.19999997838E+02 0.  0.
        -12    1    1    2    0    0 -0.26487043573E+02  0.27158265256E+02 -0.21082895108E+02  0.43400729430E+02  0.00000000000E+00 0.  1.
         11    1    3    3    0    0  0.17304848760E+01 -0.42053764021E+01  0.32714634440E+01  0.56019855334E+01  0.51100000000E-03 0. -1.
        -11    1    3    3    0    0  0.13417553123E+00  0.23557639761E+01 -0.49656844168E+00  0.24112667755E+01  0.51100000000E-03 0.  1.
         12    1    3    3    0    0  0.24622383165E+02 -0.25308652830E+02  0.18308000105E+02  0.39774018261E+02  0.00000000000E+00 0. -1.
</event>
<event>
 7    1  0.2294216E-010  0.4778728E+02  0.7816164E-02  0.1312668E+00
        -11   -1    0    0    0    0  0.00000000000E+00  0.00000000000E+00  0.45593999997E+02  0.45594000000E+02  0.51100000000E-03 0.  1.
         11   -1    0    0    0    0 -0.00000000000E+00 -0.00000000000E+00 -0.45593999997E+02  0.45594000000E+02  0.51100000000E-03 0. -1.
    9900012    2    1    2    0    0  0.32909956455E+02  0.75371100383E+01 -0.27271774153E+02  0.47787275040E+02  0.20000018218E+02 0.  0.
        -12    1    1    2    0    0 -0.32909956455E+02 -0.75371100383E+01  0.27271774153E+02  0.43400724960E+02  0.00000000000E+00 0.  1.
         11    1    3    3    0    0  0.11433167680E+02  0.23800241324E+01 -0.13071303569E+02  0.17528286149E+02  0.51100000000E-03 0. -1.
        -11    1    3    3    0    0  0.22959544006E+02  0.22733275319E+01 -0.10529533509E+02  0.25360988846E+02  0.51100000000E-03 0.  1.
        -12    1    3    3    0    0 -0.14827552315E+01  0.28837583741E+01 -0.36709370756E+01  0.48980000459E+01  0.00000000000E+00 0.  1.
</event>
<event>
 7    1  0.2294216E-010  0.4778727E+02  0.7816164E-02  0.1312668E+00
        -11   -1    0    0    0    0  0.00000000000E+00  0.00000000000E+00  0.45593999997E+02  0.45594000000E+02  0.51100000000E-03 0.  1.
         11   -1    0    0    0    0 -0.00000000000E+00 -0.00000000000E+00 -0.45593999997E+02  0.45594000000E+02  0.51100000000E-03 0. -1.
    9900012    2    1    2    0    0  0.35378468581E+02  0.54912134535E+01  0.24532299993E+02  0.47787271812E+02  0.20000003501E+02 0.  0.
        -12    1    1    2    0    0 -0.35378468581E+02 -0.54912134535E+01 -0.24532299993E+02  0.43400728188E+02  0.00000000000E+00 0.  1.
         11    1    3    3    0    0  0.31132828619E+00 -0.18737656244E+01  0.46527600870E+01  0.50255447073E+01  0.51100000000E-03 0. -1.
        -11    1    3    3    0    0  0.30919277916E+01  0.46500229415E+01  0.45241085236E+01  0.71868135512E+01  0.51100000000E-03 0.  1.
         12    1    3    3    0    0  0.31975212503E+02  0.27149561364E+01  0.15355431382E+02  0.35574913554E+02  0.00000000000E+00 0. -1.
</event>
<event>
 7    1  0.2294216E-010  0.4778727E+02  0.7816164E-02  0.1312668E+00
        -11   -1    0    0    0    0  0.00000000000E+00  0.00000000000E+00  0.45593999997E+02  0.45594000000E+02  0.51100000000E-03 0.  1.
         11   -1    0    0    0    0 -0.00000000000E+00 -0.00000000000E+00 -0.45593999997E+02  0.45594000000E+02  0.51100000000E-03 0. -1.
    9900012    2    1    2    0    0  0.25878856144E+02 -0.21334717723E+02 -0.27545200544E+02  0.47787269031E+02  0.19999990819E+02 0.  0.
        -12    1    1    2    0    0 -0.25878856144E+02  0.21334717723E+02  0.27545200544E+02  0.43400730969E+02  0.00000000000E+00 0.  1.
         11    1    3    3    0    0  0.90496167111E+01 -0.68619231952E+01 -0.17070786418E+02  0.20503494866E+02  0.51100000000E-03 0. -1.
        -11    1    3    3    0    0  0.23557481249E+01 -0.95474257843E+01 -0.51035961037E+01  0.11079241029E+02  0.51100000000E-03 0.  1.
         12    1    3    3    0    0  0.14473491308E+02 -0.49253687433E+01 -0.53708180233E+01  0.16204533135E+02  0.00000000000E+00 0. -1.
</event>
<event>
 7    1  0.2294216E-010  0.4778728E+02  0.7816164E-02  0.1312668E+00
        -11   -1    0    0    0    0  0.00000000000E+00  0.00000000000E+00  0.45593999997E+02  0.45594000000E+02  0.51100000000E-03 0. -1.
         11   -1    0    0    0    0 -0.00000000000E+00 -0.00000000000E+00 -0.45593999997E+02  0.45594000000E+02  0.51100000000E-03 0.  1.
    9900012    2    1    2    0    0  0.99605751640E+00 -0.15984904685E+02  0.40337493418E+02  0.47787277845E+02  0.20000031005E+02 0.  0.
        -12    1    1    2    0    0 -0.99605751640E+00  0.15984904685E+02 -0.40337493418E+02  0.43400722155E+02  0.00000000000E+00 0.  1.
         11    1    3    3    0    0 -0.33796249850E+01  0.66214014215E+00  0.50905567586E+01  0.61460607693E+01  0.51100000000E-03 0. -1.
        -11    1    3    3    0    0  0.23128151751E+01  0.20278637305E+01  0.28661806192E+01  0.42043236016E+01  0.51100000000E-03 0.  1.
         12    1    3    3    0    0  0.20628673262E+01 -0.18674908557E+02  0.32380756040E+02  0.37436893474E+02  0.00000000000E+00 0. -1.
</event>
<event>
 7    1  0.2294216E-010  0.4778727E+02  0.7816164E-02  0.1312668E+00
        -11   -1    0    0    0    0  0.00000000000E+00  0.00000000000E+00  0.45593999997E+02  0.45594000000E+02  0.51100000000E-03 0.  1.
         11   -1    0    0    0    0 -0.00000000000E+00 -0.00000000000E+00 -0.45593999997E+02  0.45594000000E+02  0.51100000000E-03 0. -1.
    9900012    2    1    2    0    0 -0.36999973555E+02  0.52171234538E+01 -0.22077287751E+02  0.47787273570E+02  0.20000011514E+02 0.  0.
        -12    1    1    2    0    0  0.36999973555E+02 -0.52171234538E+01  0.22077287751E+02  0.43400726430E+02  0.00000000000E+00 0.  1.
         11    1    3    3    0    0 -0.37396750715E+02  0.19361870495E+01 -0.21737772465E+02  0.43298920730E+02  0.51100000000E-03 0. -1.
        -11    1    3    3    0    0 -0.11993052306E+01  0.22481806808E+01 -0.43479462096E+00  0.25848976833E+01  0.51100000000E-03 0.  1.
         12    1    3    3    0    0  0.15960823906E+01  0.10327557236E+01  0.95279335289E-01  0.19034551568E+01  0.00000000000E+00 0. -1.
</event>
<event>
 7    1  0.2294216E-010  0.4778727E+02  0.7816164E-02  0.1312668E+00
        -11   -1    0    0    0    0  0.00000000000E+00  0.00000000000E+00  0.45593999997E+02  0.45594000000E+02  0.51100000000E-03 0.  1.
         11   -1    0    0    0    0 -0.00000000000E+00 -0.00000000000E+00 -0.45593999997E+02  0.45594000000E+02  0.51100000000E-03 0. -1.
    9900012    2    1    2    0    0 -0.89150362423E+01  0.71079748076E+01 -0.41876268991E+02  0.47787273259E+02  0.20000010097E+02 0.  0.
        -12    1    1    2    0    0  0.89150362423E+01 -0.71079748076E+01  0.41876268991E+02  0.43400726741E+02  0.00000000000E+00 0.  1.
         11    1    3    3    0    0  0.36793446427E+01  0.17885911851E+00 -0.93653052632E+01  0.10063722498E+02  0.51100000000E-03 0. -1.
        -11    1    3    3    0    0  0.68426322698E+00 -0.25994879073E+01 -0.33529973801E+01  0.42974579970E+01  0.51100000000E-03 0.  1.
        -12    1    3    3    0    0 -0.13278644112E+02  0.95286035964E+01 -0.29157966347E+02  0.33426092764E+02  0.00000000000E+00 0.  1.
</event>
<event>
 7    1  0.2294216E-010  0.4778727E+02  0.7816164E-02  0.1312668E+00
        -11   -1    0    0    0    0  0.00000000000E+00  0.00000000000E+00  0.45593999997E+02  0.45594000000E+02  0.51100000000E-03 0.  1.
         11   -1    0    0    0    0 -0.00000000000E+00 -0.00000000000E+00 -0.45593999997E+02  0.45594000000E+02  0.51100000000E-03 0. -1.
    9900012    2    1    2    0    0 -0.34973314721E+02  0.20402357050E+02 -0.15628005903E+02  0.47787268621E+02  0.19999988949E+02 0.  0.
        -12    1    1    2    0    0  0.34973314721E+02 -0.20402357050E+02  0.15628005903E+02  0.43400731379E+02  0.00000000000E+00 0.  1.
         11    1    3    3    0    0 -0.77639288215E+01 -0.13767858283E+01 -0.85209762444E+01  0.11609529120E+02  0.51100000000E-03 0.  1.
        -11    1    3    3    0    0 -0.24137987288E+01  0.49204818403E+01 -0.13809413717E+01  0.56519523332E+01  0.51100000000E-03 0. -1.
        -12    1    3    3    0    0 -0.24795587171E+02  0.16858661038E+02 -0.57260882866E+01  0.30525787168E+02  0.00000000000E+00 0.  1.
</event>
<event>
 7    1  0.2294216E-010  0.4778730E+02  0.7816164E-02  0.1312668E+00
        -11   -1    0    0    0    0  0.00000000000E+00  0.00000000000E+00  0.45593999997E+02  0.45594000000E+02  0.51100000000E-03 0.  1.
         11   -1    0    0    0    0 -0.00000000000E+00 -0.00000000000E+00 -0.45593999997E+02  0.45594000000E+02  0.51100000000E-03 0. -1.
    9900012    2    1    2    0    0 -0.72830061666E+01 -0.31445752500E+02 -0.29012808861E+02  0.47787301767E+02  0.20000140076E+02 0.  0.
        -12    1    1    2    0    0  0.72830061666E+01  0.31445752500E+02  0.29012808861E+02  0.43400698233E+02  0.00000000000E+00 0.  1.
         11    1    3    3    0    0 -0.88566422146E+01 -0.76338724566E+01 -0.53095017192E+01  0.12841609275E+02  0.51100000000E-03 0. -1.
        -11    1    3    3    0    0 -0.91749623629E-01  0.58871508196E+00  0.30885740505E+00  0.67111593554E+00  0.51100000000E-03 0.  1.
        -12    1    3    3    0    0  0.16653856716E+01 -0.24400595125E+02 -0.24012164547E+02  0.34274576557E+02  0.00000000000E+00 0.  1.
</event>
<event>
 7    1  0.2294216E-010  0.4778727E+02  0.7816164E-02  0.1312668E+00
        -11   -1    0    0    0    0  0.00000000000E+00  0.00000000000E+00  0.45593999997E+02  0.45594000000E+02  0.51100000000E-03 0.  1.
         11   -1    0    0    0    0 -0.00000000000E+00 -0.00000000000E+00 -0.45593999997E+02  0.45594000000E+02  0.51100000000E-03 0. -1.
    9900012    2    1    2    0    0  0.16351327406E+02 -0.24932148420E+02 -0.31538000453E+02  0.47787269530E+02  0.19999993093E+02 0.  0.
        -12    1    1    2    0    0 -0.16351327406E+02  0.24932148420E+02  0.31538000453E+02  0.43400730470E+02  0.00000000000E+00 0.  1.
         11    1    3    3    0    0 -0.92728509042E+00 -0.11205213639E+02 -0.14071116313E+02  0.18011468149E+02  0.51100000000E-03 0. -1.
        -11    1    3    3    0    0  0.69397532571E+01 -0.58093092128E+01 -0.13330302722E+02  0.16112269230E+02  0.51100000000E-03 0.  1.
        -12    1    3    3    0    0  0.10338859239E+02 -0.79176255679E+01 -0.41365814180E+01  0.13663532151E+02  0.00000000000E+00 0.  1.
</event>
<event>
 7    1  0.2294216E-010  0.4778727E+02  0.7816164E-02  0.1312668E+00
        -11   -1    0    0    0    0  0.00000000000E+00  0.00000000000E+00  0.45593999997E+02  0.45594000000E+02  0.51100000000E-03 0. -1.
         11   -1    0    0    0    0 -0.00000000000E+00 -0.00000000000E+00 -0.45593999997E+02  0.45594000000E+02  0.51100000000E-03 0.  1.
    9900012    2    1    2    0    0  0.31765261512E+01  0.33092603341E+02  0.27900053619E+02  0.47787266063E+02  0.19999977289E+02 0.  0.
        -12    1    1    2    0    0 -0.31765261512E+01 -0.33092603341E+02 -0.27900053619E+02  0.43400733937E+02  0.00000000000E+00 0.  1.
         11    1    3    3    0    0 -0.12665201658E+01  0.10666235936E+02  0.31960393650E+01  0.11206575313E+02  0.51100000000E-03 0. -1.
        -11    1    3    3    0    0  0.81975370504E+01  0.17380362536E+02  0.12715769406E+02  0.23042730034E+02  0.51100000000E-03 0.  1.
         12    1    3    3    0    0 -0.37544907334E+01  0.50460048694E+01  0.11988244848E+02  0.13537960716E+02  0.00000000000E+00 0. -1.
</event>
<event>
 7    1  0.2294216E-010  0.4778727E+02  0.7816164E-02  0.1312668E+00
        -11   -1    0    0    0    0  0.00000000000E+00  0.00000000000E+00  0.45593999997E+02  0.45594000000E+02  0.51100000000E-03 0. -1.
         11   -1    0    0    0    0 -0.00000000000E+00 -0.00000000000E+00 -0.45593999997E+02  0.45594000000E+02  0.51100000000E-03 0.  1.
    9900012    2    1    2    0    0  0.17969204506E+02  0.30026901581E+02  0.25673254505E+02  0.47787272748E+02  0.20000007767E+02 0.  0.
        -12    1    1    2    0    0 -0.17969204506E+02 -0.30026901581E+02 -0.25673254505E+02  0.43400727252E+02  0.00000000000E+00 0.  1.
         11    1    3    3    0    0  0.45452743337E+01  0.16282473781E+02  0.40724172431E+01  0.17388589755E+02  0.51100000000E-03 0.  1.
        -11    1    3    3    0    0  0.56597871929E+01  0.12041702660E+02  0.11839307869E+02  0.17810250001E+02  0.51100000000E-03 0. -1.
        -12    1    3    3    0    0  0.77641429793E+01  0.17027251398E+01  0.97615293931E+01  0.12588432992E+02  0.00000000000E+00 0.  1.
</event>
<event>
 7    1  0.2294216E-010  0.4778725E+02  0.7816164E-02  0.1312668E+00
        -11   -1    0    0    0    0  0.00000000000E+00  0.00000000000E+00  0.45593999997E+02  0.45594000000E+02  0.51100000000E-03 0.  1.
         11   -1    0    0    0    0 -0.00000000000E+00 -0.00000000000E+00 -0.45593999997E+02  0.45594000000E+02  0.51100000000E-03 0. -1.
    9900012    2    1    2    0    0 -0.32865310252E+02 -0.19807163473E+02 -0.20277386034E+02  0.47787254301E+02  0.19999923661E+02 0.  0.
        -12    1    1    2    0    0  0.32865310252E+02  0.19807163473E+02  0.20277386034E+02  0.43400745699E+02  0.00000000000E+00 0.  1.
         11    1    3    3    0    0 -0.81378179471E+01 -0.13371253741E+02 -0.56741833428E+01  0.16649650580E+02  0.51100000000E-03 0. -1.
        -11    1    3    3    0    0  0.49635593723E-01  0.98953207855E-01  0.10859898576E+01  0.10916179100E+01  0.51100000000E-03 0.  1.
         12    1    3    3    0    0 -0.24777127899E+02 -0.65348629399E+01 -0.15689192549E+02  0.30045985812E+02  0.00000000000E+00 0. -1.
</event>
<event>
 7    1  0.2294216E-010  0.4778727E+02  0.7816164E-02  0.1312668E+00
        -11   -1    0    0    0    0  0.00000000000E+00  0.00000000000E+00  0.45593999997E+02  0.45594000000E+02  0.51100000000E-03 0.  1.
         11   -1    0    0    0    0 -0.00000000000E+00 -0.00000000000E+00 -0.45593999997E+02  0.45594000000E+02  0.51100000000E-03 0. -1.
    9900012    2    1    2    0    0  0.60362802961E+01  0.41435095709E+02 -0.11415747446E+02  0.47787272749E+02  0.20000007770E+02 0.  0.
        -12    1    1    2    0    0 -0.60362802961E+01 -0.41435095709E+02  0.11415747446E+02  0.43400727251E+02  0.00000000000E+00 0.  1.
         11    1    3    3    0    0  0.54760288986E+01  0.31145713819E+02 -0.91158849565E+01  0.32911118799E+02  0.51100000000E-03 0. -1.
        -11    1    3    3    0    0 -0.28607114272E+01  0.10545739599E+02 -0.35494112321E+00  0.10932624434E+02  0.51100000000E-03 0.  1.
        -12    1    3    3    0    0  0.34209628247E+01 -0.25635770884E+00 -0.19449213660E+01  0.39435295159E+01  0.00000000000E+00 0.  1.
</event>
<event>
 7    1  0.2294216E-010  0.4778727E+02  0.7816164E-02  0.1312668E+00
        -11   -1    0    0    0    0  0.00000000000E+00  0.00000000000E+00  0.45593999997E+02  0.45594000000E+02  0.51100000000E-03 0.  1.
         11   -1    0    0    0    0 -0.00000000000E+00 -0.00000000000E+00 -0.45593999997E+02  0.45594000000E+02  0.51100000000E-03 0. -1.
    9900012    2    1    2    0    0 -0.59026202523E+01  0.34370400964E+02 -0.25835214362E+02  0.47787266257E+02  0.19999978174E+02 0.  0.
        -12    1    1    2    0    0  0.59026202523E+01 -0.34370400964E+02  0.25835214362E+02  0.43400733743E+02  0.00000000000E+00 0.  1.
         11    1    3    3    0    0 -0.14751878341E+01  0.64039430652E+00 -0.21480523510E+01  0.26833585630E+01  0.51100000000E-03 0. -1.
        -11    1    3    3    0    0 -0.26929939691E+01  0.34539634609E+02 -0.17873675695E+02  0.38983417738E+02  0.51100000000E-03 0.  1.
        -12    1    3    3    0    0 -0.17344384491E+01 -0.80962795184E+00 -0.58134863161E+01  0.61204899560E+01  0.00000000000E+00 0.  1.
</event>
<event>
 7    1  0.2294216E-010  0.4778728E+02  0.7816164E-02  0.1312668E+00
        -11   -1    0    0    0    0  0.00000000000E+00  0.00000000000E+00  0.45593999997E+02  0.45594000000E+02  0.51100000000E-03 0.  1.
         11   -1    0    0    0    0 -0.00000000000E+00 -0.00000000000E+00 -0.45593999997E+02  0.45594000000E+02  0.51100000000E-03 0. -1.
    9900012    2    1    2    0    0 -0.37414221885E+02  0.14600791725E+02  0.16450398248E+02  0.47787277416E+02  0.20000029052E+02 0.  0.
        -12    1    1    2    0    0  0.37414221885E+02 -0.14600791725E+02 -0.16450398248E+02  0.43400722584E+02  0.00000000000E+00 0.  1.
         11    1    3    3    0    0 -0.21826160388E+02  0.16439010032E+02  0.67560605756E+01  0.28147232242E+02  0.51100000000E-03 0. -1.
        -11    1    3    3    0    0 -0.10793025106E+02  0.17987223694E+01  0.73497824307E+01  0.13181202340E+02  0.51100000000E-03 0.  1.
         12    1    3    3    0    0 -0.47950363912E+01 -0.36369406764E+01  0.23445552417E+01  0.64588428343E+01  0.00000000000E+00 0. -1.
</event>
<event>
 7    1  0.2294216E-010  0.4778727E+02  0.7816164E-02  0.1312668E+00
        -11   -1    0    0    0    0  0.00000000000E+00  0.00000000000E+00  0.45593999997E+02  0.45594000000E+02  0.51100000000E-03 0.  1.
         11   -1    0    0    0    0 -0.00000000000E+00 -0.00000000000E+00 -0.45593999997E+02  0.45594000000E+02  0.51100000000E-03 0. -1.
    9900012    2    1    2    0    0 -0.40452738238E+02  0.13473761678E+02  0.81029094511E+01  0.47787269289E+02  0.19999991994E+02 0.  0.
        -12    1    1    2    0    0  0.40452738238E+02 -0.13473761678E+02 -0.81029094511E+01  0.43400730711E+02  0.00000000000E+00 0.  1.
         11    1    3    3    0    0 -0.47760472230E+01  0.67611229771E+01  0.79474045356E-02  0.82778906982E+01  0.51100000000E-03 0. -1.
        -11    1    3    3    0    0 -0.35431954144E+01 -0.32002195534E+01  0.25971961432E+01  0.54351694548E+01  0.51100000000E-03 0.  1.
         12    1    3    3    0    0 -0.32133495601E+02  0.99128582541E+01  0.54977659033E+01  0.34074209136E+02  0.00000000000E+00 0. -1.
</event>
<event>
 7    1  0.2294216E-010  0.4778727E+02  0.7816164E-02  0.1312668E+00
        -11   -1    0    0    0    0  0.00000000000E+00  0.00000000000E+00  0.45593999997E+02  0.45594000000E+02  0.51100000000E-03 0.  1.
         11   -1    0    0    0    0 -0.00000000000E+00 -0.00000000000E+00 -0.45593999997E+02  0.45594000000E+02  0.51100000000E-03 0. -1.
    9900012    2    1    2    0    0 -0.13153309859E+02  0.13213397085E+02 -0.39192088823E+02  0.47787271330E+02  0.20000001303E+02 0.  0.
        -12    1    1    2    0    0  0.13153309859E+02 -0.13213397085E+02  0.39192088823E+02  0.43400728670E+02  0.00000000000E+00 0.  1.
         11    1    3    3    0    0 -0.14544409583E+02  0.70872122689E+00 -0.19161002278E+02  0.24066286470E+02  0.51100000000E-03 0. -1.
        -11    1    3    3    0    0 -0.34839702533E-01  0.27939397530E+01 -0.33050591997E+01  0.43279013069E+01  0.51100000000E-03 0.  1.
         12    1    3    3    0    0  0.14259394268E+01  0.97107361047E+01 -0.16726027345E+02  0.19393083553E+02  0.00000000000E+00 0. -1.
</event>
<event>
 7    1  0.2294216E-010  0.4778728E+02  0.7816164E-02  0.1312668E+00
        -11   -1    0    0    0    0  0.00000000000E+00  0.00000000000E+00  0.45593999997E+02  0.45594000000E+02  0.51100000000E-03 0.  1.
         11   -1    0    0    0    0 -0.00000000000E+00 -0.00000000000E+00 -0.45593999997E+02  0.45594000000E+02  0.51100000000E-03 0. -1.
    9900012    2    1    2    0    0  0.20214796062E+02 -0.61867882648E+01 -0.37903936638E+02  0.47787277177E+02  0.20000027961E+02 0.  0.
        -12    1    1    2    0    0 -0.20214796062E+02  0.61867882648E+01  0.37903936638E+02  0.43400722823E+02  0.00000000000E+00 0.  1.
         11    1    3    3    0    0  0.71987686454E+01  0.12408242075E+01 -0.76289074155E+01  0.10562298203E+02  0.51100000000E-03 0.  1.
        -11    1    3    3    0    0 -0.81091797003E+00 -0.71985008361E+00  0.15453458980E+01  0.18878205165E+01  0.51100000000E-03 0. -1.
         12    1    3    3    0    0  0.13826945387E+02 -0.67077623887E+01 -0.31820375121E+02  0.35337158457E+02  0.00000000000E+00 0. -1.
</event>
<event>
 7    1  0.2294216E-010  0.4778727E+02  0.7816164E-02  0.1312668E+00
        -11   -1    0    0    0    0  0.00000000000E+00  0.00000000000E+00  0.45593999997E+02  0.45594000000E+02  0.51100000000E-03 0. -1.
         11   -1    0    0    0    0 -0.00000000000E+00 -0.00000000000E+00 -0.45593999997E+02  0.45594000000E+02  0.51100000000E-03 0.  1.
    9900012    2    1    2    0    0 -0.24745304074E+02 -0.33302567580E+02  0.12737033315E+02  0.47787273061E+02  0.20000009195E+02 0.  0.
        -12    1    1    2    0    0  0.24745304074E+02  0.33302567580E+02 -0.12737033315E+02  0.43400726939E+02  0.00000000000E+00 0.  1.
         11    1    3    3    0    0 -0.11926235844E+02 -0.20020338295E+02  0.10272116795E+02  0.25466947806E+02  0.51100000000E-03 0. -1.
        -11    1    3    3    0    0 -0.73239425447E+01 -0.13933015005E+02 -0.10319745617E+01  0.15774473471E+02  0.51100000000E-03 0.  1.
        -12    1    3    3    0    0 -0.54951256848E+01  0.65078571933E+00  0.34968910813E+01  0.65458517841E+01  0.00000000000E+00 0.  1.
</event>
<event>
 7    1  0.2294216E-010  0.4778727E+02  0.7816164E-02  0.1312668E+00
        -11   -1    0    0    0    0  0.00000000000E+00  0.00000000000E+00  0.45593999997E+02  0.45594000000E+02  0.51100000000E-03 0.  1.
         11   -1    0    0    0    0 -0.00000000000E+00 -0.00000000000E+00 -0.45593999997E+02  0.45594000000E+02  0.51100000000E-03 0. -1.
    9900012    2    1    2    0    0 -0.10232117321E+02 -0.33731432111E+02  0.25320296542E+02  0.47787272424E+02  0.20000006290E+02 0.  0.
        -12    1    1    2    0    0  0.10232117321E+02  0.33731432111E+02 -0.25320296542E+02  0.43400727576E+02  0.00000000000E+00 0.  1.
         11    1    3    3    0    0  0.91719127985E+00 -0.29364045638E+00  0.15977499116E+00  0.97621353729E+00  0.51100000000E-03 0. -1.
        -11    1    3    3    0    0 -0.50740058286E-01 -0.65882820177E+01  0.14388861700E+02  0.15825529241E+02  0.51100000000E-03 0.  1.
         12    1    3    3    0    0 -0.11098568543E+02 -0.26849509637E+02  0.10771659851E+02  0.30985529645E+02  0.00000000000E+00 0. -1.
</event>
<event>
 7    1  0.2294216E-010  0.4778727E+02  0.7816164E-02  0.1312668E+00
        -11   -1    0    0    0    0  0.00000000000E+00  0.00000000000E+00  0.45593999997E+02  0.45594000000E+02  0.51100000000E-03 0.  1.
         11   -1    0    0    0    0 -0.00000000000E+00 -0.00000000000E+00 -0.45593999997E+02  0.45594000000E+02  0.51100000000E-03 0. -1.
    9900012    2    1    2    0    0 -0.50862182349E+01 -0.15024085586E+02 -0.40398398954E+02  0.47787269572E+02  0.19999993288E+02 0.  0.
        -12    1    1    2    0    0  0.50862182349E+01  0.15024085586E+02  0.40398398954E+02  0.43400730428E+02  0.00000000000E+00 0.  1.
         11    1    3    3    0    0  0.29292173368E+01 -0.36078842012E+01 -0.85213567692E+01  0.97062178043E+01  0.51100000000E-03 0. -1.
        -11    1    3    3    0    0 -0.35281285554E+01  0.78144884847E+00 -0.20475490046E+02  0.20791922621E+02  0.51100000000E-03 0.  1.
         12    1    3    3    0    0 -0.44873070163E+01 -0.12197650234E+02 -0.11401552139E+02  0.17289129147E+02  0.00000000000E+00 0. -1.
</event>
<event>
 7    1  0.2294216E-010  0.4778727E+02  0.7816164E-02  0.1312668E+00
        -11   -1    0    0    0    0  0.00000000000E+00  0.00000000000E+00  0.45593999997E+02  0.45594000000E+02  0.51100000000E-03 0.  1.
         11   -1    0    0    0    0 -0.00000000000E+00 -0.00000000000E+00 -0.45593999997E+02  0.45594000000E+02  0.51100000000E-03 0. -1.
    9900012    2    1    2    0    0  0.41202732773E+02  0.44892411621E+01  0.12876524167E+02  0.47787270181E+02  0.19999996065E+02 0.  0.
        -12    1    1    2    0    0 -0.41202732773E+02 -0.44892411621E+01 -0.12876524167E+02  0.43400729819E+02  0.00000000000E+00 0.  1.
         11    1    3    3    0    0  0.85171049457E+01  0.51216725645E+01  0.15179057709E+01  0.10053688114E+02  0.51100000000E-03 0. -1.
        -11    1    3    3    0    0  0.22068808685E+02  0.25271761329E+01  0.49509275159E+00  0.22218552002E+02  0.51100000000E-03 0.  1.
        -12    1    3    3    0    0  0.10616819143E+02 -0.31596075353E+01  0.10863525644E+02  0.15515030065E+02  0.00000000000E+00 0.  1.
</event>
<event>
 7    1  0.2294216E-010  0.4778727E+02  0.7816164E-02  0.1312668E+00
        -11   -1    0    0    0    0  0.00000000000E+00  0.00000000000E+00  0.45593999997E+02  0.45594000000E+02  0.51100000000E-03 0.  1.
         11   -1    0    0    0    0 -0.00000000000E+00 -0.00000000000E+00 -0.45593999997E+02  0.45594000000E+02  0.51100000000E-03 0. -1.
    9900012    2    1    2    0    0  0.14191657776E+02  0.31817739072E+02 -0.25881487922E+02  0.47787273196E+02  0.20000009809E+02 0.  0.
        -12    1    1    2    0    0 -0.14191657776E+02 -0.31817739072E+02  0.25881487922E+02  0.43400726804E+02  0.00000000000E+00 0.  1.
         11    1    3    3    0    0  0.32767876612E+01  0.20849853836E+02 -0.17740874265E+02  0.27571586141E+02  0.51100000000E-03 0. -1.
        -11    1    3    3    0    0  0.64840404009E+00  0.36786418360E+00 -0.50933555278E+01  0.51476230097E+01  0.51100000000E-03 0.  1.
         12    1    3    3    0    0  0.10266466075E+02  0.10600021052E+02 -0.30472581297E+01  0.15068064045E+02  0.00000000000E+00 0. -1.
</event>
<event>
 7    1  0.2294216E-010  0.4778728E+02  0.7816164E-02  0.1312668E+00
        -11   -1    0    0    0    0  0.00000000000E+00  0.00000000000E+00  0.45593999997E+02  0.45594000000E+02  0.51100000000E-03 0. -1.
         11   -1    0    0    0    0 -0.00000000000E+00 -0.00000000000E+00 -0.45593999997E+02  0.45594000000E+02  0.51100000000E-03 0.  1.
    9900012    2    1    2    0    0  0.79699147751E+01 -0.34606609028E+02  0.24949668848E+02  0.47787275288E+02  0.20000019347E+02 0.  0.
        -12    1    1    2    0    0 -0.79699147751E+01  0.34606609028E+02 -0.24949668848E+02  0.43400724712E+02  0.00000000000E+00 0.  1.
         11    1    3    3    0    0  0.56005559139E+01 -0.14644819739E+02  0.13902569695E+02  0.20955152496E+02  0.51100000000E-03 0. -1.
        -11    1    3    3    0    0  0.50887190932E+01 -0.14077504427E+02  0.13244851562E+02  0.19987428200E+02  0.51100000000E-03 0.  1.
        -12    1    3    3    0    0 -0.27193602320E+01 -0.58842848619E+01 -0.21977524087E+01  0.68446945920E+01  0.00000000000E+00 0.  1.
</event>
<event>
 7    1  0.2294216E-010  0.4778727E+02  0.7816164E-02  0.1312668E+00
        -11   -1    0    0    0    0  0.00000000000E+00  0.00000000000E+00  0.45593999997E+02  0.45594000000E+02  0.51100000000E-03 0.  1.
         11   -1    0    0    0    0 -0.00000000000E+00 -0.00000000000E+00 -0.45593999997E+02  0.45594000000E+02  0.51100000000E-03 0. -1.
    9900012    2    1    2    0    0  0.22790844751E+02  0.95075602439E+01 -0.35690433194E+02  0.47787270423E+02  0.19999997164E+02 0.  0.
        -12    1    1    2    0    0 -0.22790844751E+02 -0.95075602439E+01  0.35690433194E+02  0.43400729577E+02  0.00000000000E+00 0.  1.
         11    1    3    3    0    0  0.21292374252E+02  0.95272974802E+01 -0.28941511498E+02  0.37171839968E+02  0.51100000000E-03 0. -1.
        -11    1    3    3    0    0  0.42619082709E+01 -0.18668759919E+01 -0.27096811567E+01  0.53843718585E+01  0.51100000000E-03 0.  1.
         12    1    3    3    0    0 -0.27634377714E+01  0.18471387556E+01 -0.40392405389E+01  0.52310585956E+01  0.00000000000E+00 0. -1.
</event>
<event>
 7    1  0.2294216E-010  0.4778727E+02  0.7816164E-02  0.1312668E+00
        -11   -1    0    0    0    0  0.00000000000E+00  0.00000000000E+00  0.45593999997E+02  0.45594000000E+02  0.51100000000E-03 0.  1.
         11   -1    0    0    0    0 -0.00000000000E+00 -0.00000000000E+00 -0.45593999997E+02  0.45594000000E+02  0.51100000000E-03 0. -1.
    9900012    2    1    2    0    0  0.12559051545E+02  0.35457287557E+02 -0.21648888673E+02  0.47787269621E+02  0.19999993511E+02 0.  0.
        -12    1    1    2    0    0 -0.12559051545E+02 -0.35457287557E+02  0.21648888673E+02  0.43400730379E+02  0.00000000000E+00 0.  1.
         11    1    3    3    0    0  0.60435141602E+01  0.14522371024E+01 -0.18214897530E+01  0.64769499911E+01  0.51100000000E-03 0. -1.
        -11    1    3    3    0    0  0.28794210169E+01  0.31367728174E+02 -0.15636983245E+02  0.35167324059E+02  0.51100000000E-03 0.  1.
        -12    1    3    3    0    0  0.36361163684E+01  0.26373222801E+01 -0.41904156752E+01  0.61429955710E+01  0.00000000000E+00 0.  1.
</event>
<event>
 7    1  0.2294216E-010  0.4778727E+02  0.7816164E-02  0.1312668E+00
        -11   -1    0    0    0    0  0.00000000000E+00  0.00000000000E+00  0.45593999997E+02  0.45594000000E+02  0.51100000000E-03 0. -1.
         11   -1    0    0    0    0 -0.00000000000E+00 -0.00000000000E+00 -0.45593999997E+02  0.45594000000E+02  0.51100000000E-03 0.  1.
    9900012    2    1    2    0    0  0.35207096711E+02 -0.15606262908E+02  0.20013201344E+02  0.47787270411E+02  0.19999997114E+02 0.  0.
        -12    1    1    2    0    0 -0.35207096711E+02  0.15606262908E+02 -0.20013201344E+02  0.43400729589E+02  0.00000000000E+00 0.  1.
         11    1    3    3    0    0 -0.73772612641E+00  0.16371040020E+01 -0.22401009858E+00  0.18095662841E+01  0.51100000000E-03 0. -1.
        -11    1    3    3    0    0  0.21929357423E+02 -0.57732161417E+01  0.76890794045E+01  0.23944700540E+02  0.51100000000E-03 0.  1.
         12    1    3    3    0    0  0.14015465415E+02 -0.11470150768E+02  0.12548132038E+02  0.22033003588E+02  0.00000000000E+00 0. -1.
</event>
<event>
 7    1  0.2294216E-010  0.4778727E+02  0.7816164E-02  0.1312668E+00
        -11   -1    0    0    0    0  0.00000000000E+00  0.00000000000E+00  0.45593999997E+02  0.45594000000E+02  0.51100000000E-03 0.  1.
         11   -1    0    0    0    0 -0.00000000000E+00 -0.00000000000E+00 -0.45593999997E+02  0.45594000000E+02  0.51100000000E-03 0. -1.
    9900012    2    1    2    0    0  0.27798491648E+02  0.77290474710E+01 -0.32421122397E+02  0.47787268552E+02  0.19999988637E+02 0.  0.
        -12    1    1    2    0    0 -0.27798491648E+02 -0.77290474710E+01  0.32421122397E+02  0.43400731448E+02  0.00000000000E+00 0.  1.
         11    1    3    3    0    0  0.93982284520E+01  0.16045479191E+01 -0.17366442564E+02  0.19811476464E+02  0.51100000000E-03 0. -1.
        -11    1    3    3    0    0  0.69094104410E+01 -0.31977171190E+01 -0.94916544121E+01  0.12167861404E+02  0.51100000000E-03 0.  1.
        -12    1    3    3    0    0  0.11490852755E+02  0.93222166709E+01 -0.55630254205E+01  0.15807930684E+02  0.00000000000E+00 0.  1.
</event>
<event>
 7    1  0.2294216E-010  0.4778726E+02  0.7816164E-02  0.1312668E+00
        -11   -1    0    0    0    0  0.00000000000E+00  0.00000000000E+00  0.45593999997E+02  0.45594000000E+02  0.51100000000E-03 0.  1.
         11   -1    0    0    0    0 -0.00000000000E+00 -0.00000000000E+00 -0.45593999997E+02  0.45594000000E+02  0.51100000000E-03 0. -1.
    9900012    2    1    2    0    0 -0.34049773431E+02  0.11679442211E+02 -0.24245153970E+02  0.47787263462E+02  0.19999965428E+02 0.  0.
        -12    1    1    2    0    0  0.34049773431E+02 -0.11679442211E+02  0.24245153970E+02  0.43400736538E+02  0.00000000000E+00 0.  1.
         11    1    3    3    0    0 -0.31864465131E+01 -0.15583619486E+01 -0.21702116842E+01  0.41583352870E+01  0.51100000000E-03 0. -1.
        -11    1    3    3    0    0 -0.60993111291E+01  0.70950096141E+01  0.76146832353E+00  0.93872568912E+01  0.51100000000E-03 0.  1.
         12    1    3    3    0    0 -0.24764015789E+02  0.61427945456E+01 -0.22836410609E+02  0.34241671284E+02  0.00000000000E+00 0. -1.
</event>
<event>
 7    1  0.2294216E-010  0.4778726E+02  0.7816164E-02  0.1312668E+00
        -11   -1    0    0    0    0  0.00000000000E+00  0.00000000000E+00  0.45593999997E+02  0.45594000000E+02  0.51100000000E-03 0.  1.
         11   -1    0    0    0    0 -0.00000000000E+00 -0.00000000000E+00 -0.45593999997E+02  0.45594000000E+02  0.51100000000E-03 0. -1.
    9900012    2    1    2    0    0  0.12353724791E+02  0.41457299173E+02  0.35074391162E+01  0.47787259222E+02  0.19999946097E+02 0.  0.
        -12    1    1    2    0    0 -0.12353724791E+02 -0.41457299173E+02 -0.35074391162E+01  0.43400740778E+02  0.00000000000E+00 0.  1.
         11    1    3    3    0    0 -0.27810405953E+01  0.45106925226E+01 -0.27802286827E+01  0.59841629001E+01  0.51100000000E-03 0. -1.
        -11    1    3    3    0    0  0.25698495250E+01  0.17718438790E+02 -0.30413244723E+00  0.17906414955E+02  0.51100000000E-03 0.  1.
        -12    1    3    3    0    0  0.12564915862E+02  0.19228167860E+02  0.65918002461E+01  0.23896681367E+02  0.00000000000E+00 0.  1.
</event>
<event>
 7    1  0.2294216E-010  0.4778727E+02  0.7816164E-02  0.1312668E+00
        -11   -1    0    0    0    0  0.00000000000E+00  0.00000000000E+00  0.45593999997E+02  0.45594000000E+02  0.51100000000E-03 0. -1.
         11   -1    0    0    0    0 -0.00000000000E+00 -0.00000000000E+00 -0.45593999997E+02  0.45594000000E+02  0.51100000000E-03 0.  1.
    9900012    2    1    2    0    0 -0.14013055791E+02 -0.18304967194E+02  0.36772081710E+02  0.47787267865E+02  0.19999985504E+02 0.  0.
        -12    1    1    2    0    0  0.14013055791E+02  0.18304967194E+02 -0.36772081710E+02  0.43400732135E+02  0.00000000000E+00 0.  1.
         11    1    3    3    0    0 -0.71132870061E+00  0.25426852836E+00  0.34262475293E+01  0.35085343661E+01  0.51100000000E-03 0. -1.
        -11    1    3    3    0    0 -0.73399134764E+01 -0.21209414697E+02  0.27696829931E+02  0.35648674451E+02  0.51100000000E-03 0.  1.
        -12    1    3    3    0    0 -0.59618136138E+01  0.26501789742E+01  0.56490042499E+01  0.86300590482E+01  0.00000000000E+00 0.  1.
</event>
<event>
 7    1  0.2294216E-010  0.4778727E+02  0.7816164E-02  0.1312668E+00
        -11   -1    0    0    0    0  0.00000000000E+00  0.00000000000E+00  0.45593999997E+02  0.45594000000E+02  0.51100000000E-03 0.  1.
         11   -1    0    0    0    0 -0.00000000000E+00 -0.00000000000E+00 -0.45593999997E+02  0.45594000000E+02  0.51100000000E-03 0. -1.
    9900012    2    1    2    0    0 -0.34647522204E+02 -0.13025644048E+02 -0.22660644788E+02  0.47787273970E+02  0.20000013338E+02 0.  0.
        -12    1    1    2    0    0  0.34647522204E+02  0.13025644048E+02  0.22660644788E+02  0.43400726030E+02  0.00000000000E+00 0.  1.
         11    1    3    3    0    0 -0.14427733342E+02  0.24230864883E+01 -0.58191921384E+01  0.15744644642E+02  0.51100000000E-03 0. -1.
        -11    1    3    3    0    0 -0.35767279668E+00  0.41230668506E+00  0.89488664164E+00  0.10482122851E+01  0.51100000000E-03 0.  1.
        -12    1    3    3    0    0 -0.19862116066E+02 -0.15861037222E+02 -0.17736339291E+02  0.30994417042E+02  0.00000000000E+00 0.  1.
</event>
<event>
 7    1  0.2294216E-010  0.4778728E+02  0.7816164E-02  0.1312668E+00
        -11   -1    0    0    0    0  0.00000000000E+00  0.00000000000E+00  0.45593999997E+02  0.45594000000E+02  0.51100000000E-03 0. -1.
         11   -1    0    0    0    0 -0.00000000000E+00 -0.00000000000E+00 -0.45593999997E+02  0.45594000000E+02  0.51100000000E-03 0.  1.
    9900012    2    1    2    0    0 -0.24546058893E+02 -0.35321223401E+02  0.57900219605E+01  0.47787283600E+02  0.20000057246E+02 0.  0.
        -12    1    1    2    0    0  0.24546058893E+02  0.35321223401E+02 -0.57900219605E+01  0.43400716400E+02  0.00000000000E+00 0.  1.
         11    1    3    3    0    0 -0.88754481531E+01 -0.12000149975E+02  0.68562852251E+00  0.14941461310E+02  0.51100000000E-03 0. -1.
        -11    1    3    3    0    0  0.19042320383E+01 -0.22903753952E+01 -0.30379263816E+01  0.42545171369E+01  0.51100000000E-03 0.  1.
         12    1    3    3    0    0 -0.17574842778E+02 -0.21030698031E+02  0.81423198196E+01  0.28591305153E+02  0.00000000000E+00 0. -1.
</event>
<event>
 7    1  0.2294216E-010  0.4778727E+02  0.7816164E-02  0.1312668E+00
        -11   -1    0    0    0    0  0.00000000000E+00  0.00000000000E+00  0.45593999997E+02  0.45594000000E+02  0.51100000000E-03 0.  1.
         11   -1    0    0    0    0 -0.00000000000E+00 -0.00000000000E+00 -0.45593999997E+02  0.45594000000E+02  0.51100000000E-03 0. -1.
    9900012    2    1    2    0    0 -0.43087628264E+02 -0.24134606266E+00 -0.51981989235E+01  0.47787271557E+02  0.20000002337E+02 0.  0.
        -12    1    1    2    0    0  0.43087628264E+02  0.24134606266E+00  0.51981989235E+01  0.43400728443E+02  0.00000000000E+00 0.  1.
         11    1    3    3    0    0  0.43967217210E-02 -0.18933659341E+00 -0.40497174127E+00  0.44706828238E+00  0.51100000000E-03 0. -1.
        -11    1    3    3    0    0 -0.68163688236E-01 -0.22555717555E+01  0.27997276179E+01  0.35959317608E+01  0.51100000000E-03 0.  1.
         12    1    3    3    0    0 -0.43023861297E+02  0.22035622863E+01 -0.75929548002E+01  0.43744271514E+02  0.00000000000E+00 0. -1.
</event>
<event>
 7    1  0.2294216E-010  0.4778728E+02  0.7816164E-02  0.1312668E+00
        -11   -1    0    0    0    0  0.00000000000E+00  0.00000000000E+00  0.45593999997E+02  0.45594000000E+02  0.51100000000E-03 0.  1.
         11   -1    0    0    0    0 -0.00000000000E+00 -0.00000000000E+00 -0.45593999997E+02  0.45594000000E+02  0.51100000000E-03 0. -1.
    9900012    2    1    2    0    0 -0.26771119601E+01 -0.43166948467E+02  0.36152445930E+01  0.47787281551E+02  0.20000047904E+02 0.  0.
        -12    1    1    2    0    0  0.26771119601E+01  0.43166948467E+02 -0.36152445930E+01  0.43400718449E+02  0.00000000000E+00 0.  1.
         11    1    3    3    0    0 -0.26039765543E+01 -0.15204474529E+01  0.25078077019E+01  0.39219324425E+01  0.51100000000E-03 0. -1.
        -11    1    3    3    0    0 -0.15804958609E+01  0.49501094686E+00  0.33539533570E+00  0.16898204923E+01  0.51100000000E-03 0.  1.
        -12    1    3    3    0    0  0.15073604551E+01 -0.42141511961E+02  0.77204155543E+00  0.42175528616E+02  0.00000000000E+00 0.  1.
</event>
<event>
 7    1  0.2294216E-010  0.4778728E+02  0.7816164E-02  0.1312668E+00
        -11   -1    0    0    0    0  0.00000000000E+00  0.00000000000E+00  0.45593999997E+02  0.45594000000E+02  0.51100000000E-03 0.  1.
         11   -1    0    0    0    0 -0.00000000000E+00 -0.00000000000E+00 -0.45593999997E+02  0.45594000000E+02  0.51100000000E-03 0. -1.
    9900012    2    1    2    0    0  0.18347843746E+01 -0.29511078957E+02 -0.31770298203E+02  0.47787284996E+02  0.20000063612E+02 0.  0.
        -12    1    1    2    0    0 -0.18347843746E+01  0.29511078957E+02  0.31770298203E+02  0.43400715004E+02  0.00000000000E+00 0.  1.
         11    1    3    3    0    0 -0.17853399845E+01 -0.15847806947E+01  0.16269085905E+00  0.23927886007E+01  0.51100000000E-03 0. -1.
        -11    1    3    3    0    0  0.46215946449E+00 -0.13652287621E+02 -0.26471943283E+02  0.29788627530E+02  0.51100000000E-03 0.  1.
         12    1    3    3    0    0  0.31579648946E+01 -0.14274010641E+02 -0.54610457789E+01  0.15605868865E+02  0.00000000000E+00 0. -1.
</event>
<event>
 7    1  0.2294216E-010  0.4778727E+02  0.7816164E-02  0.1312668E+00
        -11   -1    0    0    0    0  0.00000000000E+00  0.00000000000E+00  0.45593999997E+02  0.45594000000E+02  0.51100000000E-03 0. -1.
         11   -1    0    0    0    0 -0.00000000000E+00 -0.00000000000E+00 -0.45593999997E+02  0.45594000000E+02  0.51100000000E-03 0.  1.
    9900012    2    1    2    0    0 -0.33129640589E+02  0.14103142562E+02  0.24231217315E+02  0.47787267192E+02  0.19999982437E+02 0.  0.
        -12    1    1    2    0    0  0.33129640589E+02 -0.14103142562E+02 -0.24231217315E+02  0.43400732808E+02  0.00000000000E+00 0.  1.
         11    1    3    3    0    0 -0.15408787174E+02  0.70817785023E+01  0.77623185465E+01  0.18650359203E+02  0.51100000000E-03 0. -1.
        -11    1    3    3    0    0 -0.11556087694E+02  0.99791628572E+01  0.16247202972E+02  0.22295704941E+02  0.51100000000E-03 0.  1.
         12    1    3    3    0    0 -0.61647657212E+01 -0.29577987974E+01  0.22169579587E+00  0.68412030484E+01  0.00000000000E+00 0. -1.
</event>
<event>
 7    1  0.2294216E-010  0.4778730E+02  0.7816164E-02  0.1312668E+00
        -11   -1    0    0    0    0  0.00000000000E+00  0.00000000000E+00  0.45593999997E+02  0.45594000000E+02  0.51100000000E-03 0.  1.
         11   -1    0    0    0    0 -0.00000000000E+00 -0.00000000000E+00 -0.45593999997E+02  0.45594000000E+02  0.51100000000E-03 0. -1.
    9900012    2    1    2    0    0 -0.54885515532E+01 -0.22606247396E+02 -0.36639520303E+02  0.47787296463E+02  0.20000115894E+02 0.  0.
        -12    1    1    2    0    0  0.54885515532E+01  0.22606247396E+02  0.36639520303E+02  0.43400703537E+02  0.00000000000E+00 0.  1.
         11    1    3    3    0    0  0.10091340563E+00 -0.58301550645E+00 -0.61967938354E+01  0.62249774856E+01  0.51100000000E-03 0. -1.
        -11    1    3    3    0    0 -0.11690842884E+01  0.28249643966E+01 -0.33602059169E+01  0.45429248266E+01  0.51100000000E-03 0.  1.
         12    1    3    3    0    0 -0.44203806705E+01 -0.24848196286E+02 -0.27082520550E+02  0.37019394151E+02  0.00000000000E+00 0. -1.
</event>
<event>
 7    1  0.2294216E-010  0.4778727E+02  0.7816164E-02  0.1312668E+00
        -11   -1    0    0    0    0  0.00000000000E+00  0.00000000000E+00  0.45593999997E+02  0.45594000000E+02  0.51100000000E-03 0. -1.
         11   -1    0    0    0    0 -0.00000000000E+00 -0.00000000000E+00 -0.45593999997E+02  0.45594000000E+02  0.51100000000E-03 0.  1.
    9900012    2    1    2    0    0 -0.32399111475E+02 -0.74556760292E+01  0.27898631027E+02  0.47787272556E+02  0.20000006894E+02 0.  0.
        -12    1    1    2    0    0  0.32399111475E+02  0.74556760292E+01 -0.27898631027E+02  0.43400727444E+02  0.00000000000E+00 0.  1.
         11    1    3    3    0    0 -0.24686116524E+01 -0.35732984124E+01  0.44299493120E+01  0.62037856348E+01  0.51100000000E-03 0. -1.
        -11    1    3    3    0    0 -0.10992834751E+02 -0.52323515464E+01  0.18171043960E+02  0.21872511457E+02  0.51100000000E-03 0.  1.
        -12    1    3    3    0    0 -0.18937665072E+02  0.13499739296E+01  0.52976377552E+01  0.19710975465E+02  0.00000000000E+00 0.  1.
</event>
<event>
 7    1  0.2294216E-010  0.4778726E+02  0.7816164E-02  0.1312668E+00
        -11   -1    0    0    0    0  0.00000000000E+00  0.00000000000E+00  0.45593999997E+02  0.45594000000E+02  0.51100000000E-03 0.  1.
         11   -1    0    0    0    0 -0.00000000000E+00 -0.00000000000E+00 -0.45593999997E+02  0.45594000000E+02  0.51100000000E-03 0. -1.
    9900012    2    1    2    0    0 -0.11086868216E+02 -0.37021709175E+02 -0.19750904013E+02  0.47787264909E+02  0.19999972025E+02 0.  0.
        -12    1    1    2    0    0  0.11086868216E+02  0.37021709175E+02  0.19750904013E+02  0.43400735091E+02  0.00000000000E+00 0.  1.
         11    1    3    3    0    0 -0.59299187474E+01 -0.65626295612E+01 -0.92918559488E+01  0.12828508500E+02  0.51100000000E-03 0. -1.
        -11    1    3    3    0    0 -0.18131121954E+01 -0.19364100474E+02 -0.12601544698E+02  0.23174440490E+02  0.51100000000E-03 0.  1.
        -12    1    3    3    0    0 -0.33438372731E+01 -0.11094979140E+02  0.21424966337E+01  0.11784315918E+02  0.00000000000E+00 0.  1.
</event>
<event>
 7    1  0.2294216E-010  0.4778727E+02  0.7816164E-02  0.1312668E+00
        -11   -1    0    0    0    0  0.00000000000E+00  0.00000000000E+00  0.45593999997E+02  0.45594000000E+02  0.51100000000E-03 0. -1.
         11   -1    0    0    0    0 -0.00000000000E+00 -0.00000000000E+00 -0.45593999997E+02  0.45594000000E+02  0.51100000000E-03 0.  1.
    9900012    2    1    2    0    0 -0.29278643719E+02  0.15757208727E+02  0.27894350179E+02  0.47787269859E+02  0.19999994595E+02 0.  0.
        -12    1    1    2    0    0  0.29278643719E+02 -0.15757208727E+02 -0.27894350179E+02  0.43400730141E+02  0.00000000000E+00 0.  1.
         11    1    3    3    0    0 -0.14104110503E+01 -0.38799360337E+00  0.46729987823E+01  0.48966025209E+01  0.51100000000E-03 0. -1.
        -11    1    3    3    0    0 -0.36143633400E+01  0.52214908878E+01 -0.15560506258E+01  0.65382630152E+01  0.51100000000E-03 0.  1.
        -12    1    3    3    0    0 -0.24253869329E+02  0.10923711442E+02  0.24777402022E+02  0.36352404323E+02  0.00000000000E+00 0.  1.
</event>
<event>
 7    1  0.2294216E-010  0.4778727E+02  0.7816164E-02  0.1312668E+00
        -11   -1    0    0    0    0  0.00000000000E+00  0.00000000000E+00  0.45593999997E+02  0.45594000000E+02  0.51100000000E-03 0. -1.
         11   -1    0    0    0    0 -0.00000000000E+00 -0.00000000000E+00 -0.45593999997E+02  0.45594000000E+02  0.51100000000E-03 0.  1.
    9900012    2    1    2    0    0  0.15236199462E+02 -0.40556751615E+02 -0.25751587810E+01  0.47787270532E+02  0.19999997665E+02 0.  0.
        -12    1    1    2    0    0 -0.15236199462E+02  0.40556751615E+02  0.25751587810E+01  0.43400729468E+02  0.00000000000E+00 0.  1.
         11    1    3    3    0    0 -0.10911972525E+01  0.68945819249E+00 -0.25372628582E+00  0.13154624025E+01  0.51100000000E-03 0. -1.
        -11    1    3    3    0    0  0.43481758545E+01 -0.52910215701E+01  0.41750792554E+01  0.80207748732E+01  0.51100000000E-03 0.  1.
         12    1    3    3    0    0  0.11979220860E+02 -0.35955188237E+02 -0.64965117506E+01  0.38451033257E+02  0.00000000000E+00 0. -1.
</event>
<event>
 7    1  0.2294216E-010  0.4778727E+02  0.7816164E-02  0.1312668E+00
        -11   -1    0    0    0    0  0.00000000000E+00  0.00000000000E+00  0.45593999997E+02  0.45594000000E+02  0.51100000000E-03 0.  1.
         11   -1    0    0    0    0 -0.00000000000E+00 -0.00000000000E+00 -0.45593999997E+02  0.45594000000E+02  0.51100000000E-03 0. -1.
    9900012    2    1    2    0    0 -0.19511945482E+02  0.22504015289E+02 -0.31567017239E+02  0.47787270766E+02  0.19999998732E+02 0.  0.
        -12    1    1    2    0    0  0.19511945482E+02 -0.22504015289E+02  0.31567017239E+02  0.43400729234E+02  0.00000000000E+00 0.  1.
         11    1    3    3    0    0 -0.41344437560E+01  0.45112893368E+01 -0.12459491984E+02  0.13881076955E+02  0.51100000000E-03 0. -1.
        -11    1    3    3    0    0 -0.13955331993E+02  0.49914282973E+01 -0.11640642264E+02  0.18845959781E+02  0.51100000000E-03 0.  1.
         12    1    3    3    0    0 -0.14221697329E+01  0.13001297655E+02 -0.74668829909E+01  0.15060234030E+02  0.00000000000E+00 0. -1.
</event>
<event>
 7    1  0.2294216E-010  0.4778727E+02  0.7816164E-02  0.1312668E+00
        -11   -1    0    0    0    0  0.00000000000E+00  0.00000000000E+00  0.45593999997E+02  0.45594000000E+02  0.51100000000E-03 0. -1.
         11   -1    0    0    0    0 -0.00000000000E+00 -0.00000000000E+00 -0.45593999997E+02  0.45594000000E+02  0.51100000000E-03 0.  1.
    9900012    2    1    2    0    0  0.30415413824E+02 -0.21027550808E+02  0.22723735300E+02  0.47787269165E+02  0.19999991430E+02 0.  0.
        -12    1    1    2    0    0 -0.30415413824E+02  0.21027550808E+02 -0.22723735300E+02  0.43400730835E+02  0.00000000000E+00 0.  1.
         11    1    3    3    0    0  0.57123466543E+01 -0.49916368301E+01  0.71688907480E+01  0.10437448796E+02  0.51100000000E-03 0. -1.
        -11    1    3    3    0    0  0.38463496713E+01 -0.51203137547E+01  0.11918636830E+02  0.13530185619E+02  0.51100000000E-03 0.  1.
         12    1    3    3    0    0  0.20856717498E+02 -0.10915600223E+02  0.36362077220E+01  0.23819634750E+02  0.00000000000E+00 0. -1.
</event>
<event>
 7    1  0.2294216E-010  0.4778727E+02  0.7816164E-02  0.1312668E+00
        -11   -1    0    0    0    0  0.00000000000E+00  0.00000000000E+00  0.45593999997E+02  0.45594000000E+02  0.51100000000E-03 0.  1.
         11   -1    0    0    0    0 -0.00000000000E+00 -0.00000000000E+00 -0.45593999997E+02  0.45594000000E+02  0.51100000000E-03 0. -1.
    9900012    2    1    2    0    0  0.19754953100E+02  0.26197476733E+02 -0.28408749217E+02  0.47787274301E+02  0.20000014847E+02 0.  0.
        -12    1    1    2    0    0 -0.19754953100E+02 -0.26197476733E+02  0.28408749217E+02  0.43400725699E+02  0.00000000000E+00 0.  1.
         11    1    3    3    0    0 -0.13557112219E+01  0.12151232257E+01  0.40710030554E+00  0.18655316376E+01  0.51100000000E-03 0. -1.
        -11    1    3    3    0    0 -0.56862770640E+00  0.42809248049E+01 -0.90167849266E+01  0.99976029791E+01  0.51100000000E-03 0.  1.
         12    1    3    3    0    0  0.21679292029E+02  0.20701428702E+02 -0.19799064596E+02  0.35924139684E+02  0.00000000000E+00 0. -1.
</event>
<event>
 7    1  0.2294216E-010  0.4778727E+02  0.7816164E-02  0.1312668E+00
        -11   -1    0    0    0    0  0.00000000000E+00  0.00000000000E+00  0.45593999997E+02  0.45594000000E+02  0.51100000000E-03 0.  1.
         11   -1    0    0    0    0 -0.00000000000E+00 -0.00000000000E+00 -0.45593999997E+02  0.45594000000E+02  0.51100000000E-03 0. -1.
    9900012    2    1    2    0    0  0.11292705286E+02 -0.41864158905E+02 -0.18681822953E+01  0.47787273063E+02  0.20000009205E+02 0.  0.
        -12    1    1    2    0    0 -0.11292705286E+02  0.41864158905E+02  0.18681822953E+01  0.43400726937E+02  0.00000000000E+00 0.  1.
         11    1    3    3    0    0 -0.16075206411E+01 -0.75191822446E+01 -0.49002775859E+01  0.91178366359E+01  0.51100000000E-03 0.  1.
        -11    1    3    3    0    0  0.78548138803E+01 -0.26097656885E+02 -0.27689475011E+01  0.27394394801E+02  0.51100000000E-03 0. -1.
         12    1    3    3    0    0  0.50454120471E+01 -0.82473197762E+01  0.58010427918E+01  0.11275041627E+02  0.00000000000E+00 0. -1.
</event>
<event>
 7    1  0.2294216E-010  0.4778727E+02  0.7816164E-02  0.1312668E+00
        -11   -1    0    0    0    0  0.00000000000E+00  0.00000000000E+00  0.45593999997E+02  0.45594000000E+02  0.51100000000E-03 0.  1.
         11   -1    0    0    0    0 -0.00000000000E+00 -0.00000000000E+00 -0.45593999997E+02  0.45594000000E+02  0.51100000000E-03 0. -1.
    9900012    2    1    2    0    0  0.17294372938E+00 -0.39099958273E+02 -0.18835784373E+02  0.47787269367E+02  0.19999992352E+02 0.  0.
        -12    1    1    2    0    0 -0.17294372938E+00  0.39099958273E+02  0.18835784373E+02  0.43400730633E+02  0.00000000000E+00 0.  1.
         11    1    3    3    0    0  0.20725663254E+01 -0.13729166422E+02 -0.66277820371E+01  0.15385481364E+02  0.51100000000E-03 0. -1.
        -11    1    3    3    0    0  0.11771902374E+01 -0.26296496248E+02 -0.12566827285E+02  0.29168761373E+02  0.51100000000E-03 0.  1.
        -12    1    3    3    0    0 -0.30768128335E+01  0.92570439708E+00  0.35882494824E+00  0.32330266294E+01  0.00000000000E+00 0.  1.
</event>
<event>
 7    1  0.2294216E-010  0.4778727E+02  0.7816164E-02  0.1312668E+00
        -11   -1    0    0    0    0  0.00000000000E+00  0.00000000000E+00  0.45593999997E+02  0.45594000000E+02  0.51100000000E-03 0.  1.
         11   -1    0    0    0    0 -0.00000000000E+00 -0.00000000000E+00 -0.45593999997E+02  0.45594000000E+02  0.51100000000E-03 0. -1.
    9900012    2    1    2    0    0  0.12709167288E+02  0.22887685583E+02 -0.34615807299E+02  0.47787271902E+02  0.20000003908E+02 0.  0.
        -12    1    1    2    0    0 -0.12709167288E+02 -0.22887685583E+02  0.34615807299E+02  0.43400728098E+02  0.00000000000E+00 0.  1.
         11    1    3    3    0    0  0.11725431524E+02  0.89350393824E+01 -0.27728368349E+02  0.31403552104E+02  0.51100000000E-03 0. -1.
        -11    1    3    3    0    0  0.16485359954E+01  0.69986252882E+01 -0.59551236072E+01  0.93360550712E+01  0.51100000000E-03 0.  1.
        -12    1    3    3    0    0 -0.66480023105E+00  0.69540209123E+01 -0.93231534275E+00  0.70476647263E+01  0.00000000000E+00 0.  1.
</event>
<event>
 7    1  0.2294216E-010  0.4778727E+02  0.7816164E-02  0.1312668E+00
        -11   -1    0    0    0    0  0.00000000000E+00  0.00000000000E+00  0.45593999997E+02  0.45594000000E+02  0.51100000000E-03 0. -1.
         11   -1    0    0    0    0 -0.00000000000E+00 -0.00000000000E+00 -0.45593999997E+02  0.45594000000E+02  0.51100000000E-03 0.  1.
    9900012    2    1    2    0    0  0.31623240948E+02  0.61896092578E+01  0.29073742278E+02  0.47787272807E+02  0.20000008038E+02 0.  0.
        -12    1    1    2    0    0 -0.31623240948E+02 -0.61896092578E+01 -0.29073742278E+02  0.43400727193E+02  0.00000000000E+00 0.  1.
         11    1    3    3    0    0  0.15511076440E+02  0.55302736398E+01  0.16355426147E+02  0.23209424456E+02  0.51100000000E-03 0. -1.
        -11    1    3    3    0    0  0.14555905369E+02  0.56534053352E+01  0.10886167452E+02  0.19035335958E+02  0.51100000000E-03 0.  1.
        -12    1    3    3    0    0  0.15562591388E+01 -0.49940697172E+01  0.18321486790E+01  0.55425123932E+01  0.00000000000E+00 0.  1.
</event>
<event>
 7    1  0.2294216E-010  0.4778727E+02  0.7816164E-02  0.1312668E+00
        -11   -1    0    0    0    0  0.00000000000E+00  0.00000000000E+00  0.45593999997E+02  0.45594000000E+02  0.51100000000E-03 0.  1.
         11   -1    0    0    0    0 -0.00000000000E+00 -0.00000000000E+00 -0.45593999997E+02  0.45594000000E+02  0.51100000000E-03 0. -1.
    9900012    2    1    2    0    0  0.34575583262E+02  0.25725608053E+02 -0.51327943393E+01  0.47787269069E+02  0.19999990993E+02 0.  0.
        -12    1    1    2    0    0 -0.34575583262E+02 -0.25725608053E+02  0.51327943393E+01  0.43400730931E+02  0.00000000000E+00 0.  1.
         11    1    3    3    0    0  0.28034898811E+02  0.14580831581E+02 -0.50412426698E+01  0.31999536385E+02  0.51100000000E-03 0. -1.
        -11    1    3    3    0    0  0.14166600916E+01 -0.15340531232E+01 -0.30927970967E+00  0.21109000449E+01  0.51100000000E-03 0.  1.
        -12    1    3    3    0    0  0.51240243599E+01  0.12678829595E+02  0.21772804019E+00  0.13676832639E+02  0.00000000000E+00 0.  1.
</event>
<event>
 7    1  0.2294216E-010  0.4778728E+02  0.7816164E-02  0.1312668E+00
        -11   -1    0    0    0    0  0.00000000000E+00  0.00000000000E+00  0.45593999997E+02  0.45594000000E+02  0.51100000000E-03 0.  1.
         11   -1    0    0    0    0 -0.00000000000E+00 -0.00000000000E+00 -0.45593999997E+02  0.45594000000E+02  0.51100000000E-03 0. -1.
    9900012    2    1    2    0    0  0.43154359760E+02 -0.15669204649E+01  0.43438019332E+01  0.47787278563E+02  0.20000034278E+02 0.  0.
        -12    1    1    2    0    0 -0.43154359760E+02  0.15669204649E+01 -0.43438019332E+01  0.43400721437E+02  0.00000000000E+00 0.  1.
         11    1    3    3    0    0  0.29627640584E+02 -0.47439833781E+01  0.25759744527E+01  0.30115413155E+02  0.51100000000E-03 0. -1.
        -11    1    3    3    0    0  0.27524876883E+01 -0.27457939706E+01 -0.25401038625E+01  0.46441038852E+01  0.51100000000E-03 0.  1.
         12    1    3    3    0    0  0.10774231488E+02  0.59228568838E+01  0.43079313431E+01  0.13027761522E+02  0.00000000000E+00 0. -1.
</event>
<event>
 7    1  0.2294216E-010  0.4778727E+02  0.7816164E-02  0.1312668E+00
        -11   -1    0    0    0    0  0.00000000000E+00  0.00000000000E+00  0.45593999997E+02  0.45594000000E+02  0.51100000000E-03 0. -1.
         11   -1    0    0    0    0 -0.00000000000E+00 -0.00000000000E+00 -0.45593999997E+02  0.45594000000E+02  0.51100000000E-03 0.  1.
    9900012    2    1    2    0    0 -0.42302765038E+02  0.88166537989E+01  0.40455227673E+01  0.47787267650E+02  0.19999984523E+02 0.  0.
        -12    1    1    2    0    0  0.42302765038E+02 -0.88166537989E+01 -0.40455227673E+01  0.43400732350E+02  0.00000000000E+00 0.  1.
         11    1    3    3    0    0 -0.31551903047E+02  0.50970538002E+01  0.78165413486E+01  0.32902900514E+02  0.51100000000E-03 0. -1.
        -11    1    3    3    0    0 -0.64115474769E+01  0.15629135259E+01  0.24142021138E+01  0.70270201256E+01  0.51100000000E-03 0.  1.
        -12    1    3    3    0    0 -0.43393145144E+01  0.21566864727E+01 -0.61852206950E+01  0.78573470104E+01  0.00000000000E+00 0.  1.
</event>
<event>
 7    1  0.2294216E-010  0.4778727E+02  0.7816164E-02  0.1312668E+00
        -11   -1    0    0    0    0  0.00000000000E+00  0.00000000000E+00  0.45593999997E+02  0.45594000000E+02  0.51100000000E-03 0.  1.
         11   -1    0    0    0    0 -0.00000000000E+00 -0.00000000000E+00 -0.45593999997E+02  0.45594000000E+02  0.51100000000E-03 0. -1.
    9900012    2    1    2    0    0  0.28219803663E+02 -0.32858352779E+02  0.27557698281E+01  0.47787274966E+02  0.20000017880E+02 0.  0.
        -12    1    1    2    0    0 -0.28219803663E+02  0.32858352779E+02 -0.27557698281E+01  0.43400725034E+02  0.00000000000E+00 0.  1.
         11    1    3    3    0    0  0.12835197313E+02 -0.19991689190E+02  0.71215830802E+01  0.24801751401E+02  0.51100000000E-03 0. -1.
        -11    1    3    3    0    0  0.61950875965E+00 -0.23077388564E+01  0.26105308650E+01  0.35389717986E+01  0.51100000000E-03 0.  1.
         12    1    3    3    0    0  0.14765097591E+02 -0.10558924732E+02 -0.69763441171E+01  0.19446551767E+02  0.00000000000E+00 0. -1.
</event>
<event>
 7    1  0.2294216E-010  0.4778727E+02  0.7816164E-02  0.1312668E+00
        -11   -1    0    0    0    0  0.00000000000E+00  0.00000000000E+00  0.45593999997E+02  0.45594000000E+02  0.51100000000E-03 0.  1.
         11   -1    0    0    0    0 -0.00000000000E+00 -0.00000000000E+00 -0.45593999997E+02  0.45594000000E+02  0.51100000000E-03 0. -1.
    9900012    2    1    2    0    0 -0.37804371405E+02 -0.41348315200E+00 -0.21313886679E+02  0.47787271538E+02  0.20000002252E+02 0.  0.
        -12    1    1    2    0    0  0.37804371405E+02  0.41348315200E+00  0.21313886679E+02  0.43400728462E+02  0.00000000000E+00 0.  1.
         11    1    3    3    0    0 -0.26697115259E+02  0.25735910249E+00 -0.23588235316E+02  0.35625932163E+02  0.51100000000E-03 0. -1.
        -11    1    3    3    0    0 -0.58508014196E+01 -0.15285792208E+01 -0.65563123811E+00  0.60826214964E+01  0.51100000000E-03 0.  1.
         12    1    3    3    0    0 -0.52564547258E+01  0.85773696630E+00  0.29299798751E+01  0.60787178793E+01  0.00000000000E+00 0. -1.
</event>
<event>
 7    1  0.2294216E-010  0.4778727E+02  0.7816164E-02  0.1312668E+00
        -11   -1    0    0    0    0  0.00000000000E+00  0.00000000000E+00  0.45593999997E+02  0.45594000000E+02  0.51100000000E-03 0. -1.
         11   -1    0    0    0    0 -0.00000000000E+00 -0.00000000000E+00 -0.45593999997E+02  0.45594000000E+02  0.51100000000E-03 0.  1.
    9900012    2    1    2    0    0  0.28527247694E+02  0.29166001629E+02  0.14804187045E+02  0.47787268830E+02  0.19999989905E+02 0.  0.
        -12    1    1    2    0    0 -0.28527247694E+02 -0.29166001629E+02 -0.14804187045E+02  0.43400731170E+02  0.00000000000E+00 0.  1.
         11    1    3    3    0    0  0.26423396274E+01  0.83731155217E+01  0.43605209488E+01  0.98033242042E+01  0.51100000000E-03 0. -1.
        -11    1    3    3    0    0 -0.13241720610E+01  0.47326697680E+01  0.11008367025E+01  0.50362125141E+01  0.51100000000E-03 0.  1.
         12    1    3    3    0    0  0.27209080127E+02  0.16060216339E+02  0.93428293938E+01  0.32947732112E+02  0.00000000000E+00 0. -1.
</event>
<event>
 7    1  0.2294216E-010  0.4778727E+02  0.7816164E-02  0.1312668E+00
        -11   -1    0    0    0    0  0.00000000000E+00  0.00000000000E+00  0.45593999997E+02  0.45594000000E+02  0.51100000000E-03 0.  1.
         11   -1    0    0    0    0 -0.00000000000E+00 -0.00000000000E+00 -0.45593999997E+02  0.45594000000E+02  0.51100000000E-03 0. -1.
    9900012    2    1    2    0    0 -0.12567710578E+02  0.10852231148E+02 -0.40098694968E+02  0.47787267192E+02  0.19999982436E+02 0.  0.
        -12    1    1    2    0    0  0.12567710578E+02 -0.10852231148E+02  0.40098694968E+02  0.43400732808E+02  0.00000000000E+00 0.  1.
         11    1    3    3    0    0 -0.47416707689E+01  0.88597505872E+01 -0.13426256521E+02  0.16770300730E+02  0.51100000000E-03 0. -1.
        -11    1    3    3    0    0 -0.51207906030E+01  0.23044669416E+01 -0.16584918380E+01  0.58552249934E+01  0.51100000000E-03 0.  1.
         12    1    3    3    0    0 -0.27052492064E+01 -0.31198638055E+00 -0.25013946609E+02  0.25161741469E+02  0.00000000000E+00 0. -1.
</event>
<event>
 7    1  0.2294216E-010  0.4778727E+02  0.7816164E-02  0.1312668E+00
        -11   -1    0    0    0    0  0.00000000000E+00  0.00000000000E+00  0.45593999997E+02  0.45594000000E+02  0.51100000000E-03 0. -1.
         11   -1    0    0    0    0 -0.00000000000E+00 -0.00000000000E+00 -0.45593999997E+02  0.45594000000E+02  0.51100000000E-03 0.  1.
    9900012    2    1    2    0    0 -0.23182743518E+02  0.27027201886E+02 -0.24813592402E+02  0.47787267210E+02  0.19999982517E+02 0.  0.
        -12    1    1    2    0    0  0.23182743518E+02 -0.27027201886E+02  0.24813592402E+02  0.43400732790E+02  0.00000000000E+00 0.  1.
         11    1    3    3    0    0 -0.76620525025E+01  0.12233872065E+02 -0.13978916034E+02  0.20094396433E+02  0.51100000000E-03 0. -1.
        -11    1    3    3    0    0 -0.55055138378E+01  0.10962544279E+02 -0.11677863334E+02  0.16936958169E+02  0.51100000000E-03 0.  1.
        -12    1    3    3    0    0 -0.10015177178E+02  0.38307855423E+01  0.84318696659E+00  0.10755912608E+02  0.00000000000E+00 0.  1.
</event>
<event>
 7    1  0.2294216E-010  0.4778727E+02  0.7816164E-02  0.1312668E+00
        -11   -1    0    0    0    0  0.00000000000E+00  0.00000000000E+00  0.45593999997E+02  0.45594000000E+02  0.51100000000E-03 0.  1.
         11   -1    0    0    0    0 -0.00000000000E+00 -0.00000000000E+00 -0.45593999997E+02  0.45594000000E+02  0.51100000000E-03 0. -1.
    9900012    2    1    2    0    0  0.18424362295E+02  0.10193925507E+02 -0.37950627188E+02  0.47787270200E+02  0.19999996149E+02 0.  0.
        -12    1    1    2    0    0 -0.18424362295E+02 -0.10193925507E+02  0.37950627188E+02  0.43400729800E+02  0.00000000000E+00 0.  1.
         11    1    3    3    0    0  0.51653930391E+01  0.38525299925E+01 -0.46352204950E+00  0.64605050532E+01  0.51100000000E-03 0. -1.
        -11    1    3    3    0    0  0.47969241374E+01 -0.21637879958E+01 -0.91664906781E+01  0.10569626828E+02  0.51100000000E-03 0.  1.
         12    1    3    3    0    0  0.84620451185E+01  0.85051835103E+01 -0.28320614460E+02  0.30757138319E+02  0.00000000000E+00 0. -1.
</event>
<event>
 7    1  0.2294216E-010  0.4778727E+02  0.7816164E-02  0.1312668E+00
        -11   -1    0    0    0    0  0.00000000000E+00  0.00000000000E+00  0.45593999997E+02  0.45594000000E+02  0.51100000000E-03 0.  1.
         11   -1    0    0    0    0 -0.00000000000E+00 -0.00000000000E+00 -0.45593999997E+02  0.45594000000E+02  0.51100000000E-03 0. -1.
    9900012    2    1    2    0    0 -0.29365070676E+02  0.30972284687E+02 -0.78761490266E+01  0.47787268232E+02  0.19999987178E+02 0.  0.
        -12    1    1    2    0    0  0.29365070676E+02 -0.30972284687E+02  0.78761490266E+01  0.43400731768E+02  0.00000000000E+00 0.  1.
         11    1    3    3    0    0 -0.37181412256E+01  0.61685637714E+01 -0.91666073688E+01  0.11657720364E+02  0.51100000000E-03 0.  1.
        -11    1    3    3    0    0 -0.88797472256E+01  0.89072182133E+01 -0.21819314859E+01  0.12765158532E+02  0.51100000000E-03 0. -1.
        -12    1    3    3    0    0 -0.16767182225E+02  0.15896502702E+02  0.34723898281E+01  0.23364389336E+02  0.00000000000E+00 0.  1.
</event>
<event>
 7    1  0.2294216E-010  0.4778728E+02  0.7816164E-02  0.1312668E+00
        -11   -1    0    0    0    0  0.00000000000E+00  0.00000000000E+00  0.45593999997E+02  0.45594000000E+02  0.51100000000E-03 0.  1.
         11   -1    0    0    0    0 -0.00000000000E+00 -0.00000000000E+00 -0.45593999997E+02  0.45594000000E+02  0.51100000000E-03 0. -1.
    9900012    2    1    2    0    0 -0.16377422757E+02 -0.10034403292E+02 -0.38919319734E+02  0.47787277954E+02  0.20000031503E+02 0.  0.
        -12    1    1    2    0    0  0.16377422757E+02  0.10034403292E+02  0.38919319734E+02  0.43400722046E+02  0.00000000000E+00 0.  1.
         11    1    3    3    0    0 -0.14518289603E+02 -0.12248396545E+02 -0.23681866186E+02  0.30358437662E+02  0.51100000000E-03 0. -1.
        -11    1    3    3    0    0 -0.43616830955E+01 -0.63137615804E+00 -0.60023164975E+01  0.74465239458E+01  0.51100000000E-03 0.  1.
        -12    1    3    3    0    0  0.25025499421E+01  0.28453694119E+01 -0.92351370500E+01  0.99823163462E+01  0.00000000000E+00 0.  1.
</event>
<event>
 7    1  0.2294216E-010  0.4778729E+02  0.7816164E-02  0.1312668E+00
        -11   -1    0    0    0    0  0.00000000000E+00  0.00000000000E+00  0.45593999997E+02  0.45594000000E+02  0.51100000000E-03 0.  1.
         11   -1    0    0    0    0 -0.00000000000E+00 -0.00000000000E+00 -0.45593999997E+02  0.45594000000E+02  0.51100000000E-03 0. -1.
    9900012    2    1    2    0    0  0.13391648729E+01 -0.30269320441E+02 -0.31074053763E+02  0.47787286414E+02  0.20000070078E+02 0.  0.
        -12    1    1    2    0    0 -0.13391648729E+01  0.30269320441E+02  0.31074053763E+02  0.43400713586E+02  0.00000000000E+00 0.  1.
         11    1    3    3    0    0 -0.10799100602E+01 -0.86281991525E+01 -0.19347585493E+02  0.21211814892E+02  0.51100000000E-03 0. -1.
        -11    1    3    3    0    0 -0.11111446956E+01 -0.15905506320E+02 -0.11807068164E+02  0.19840026026E+02  0.51100000000E-03 0.  1.
        -12    1    3    3    0    0  0.35302196288E+01 -0.57356149679E+01  0.80599893920E-01  0.67354454960E+01  0.00000000000E+00 0.  1.
</event>
<event>
 7    1  0.2294216E-010  0.4778727E+02  0.7816164E-02  0.1312668E+00
        -11   -1    0    0    0    0  0.00000000000E+00  0.00000000000E+00  0.45593999997E+02  0.45594000000E+02  0.51100000000E-03 0.  1.
         11   -1    0    0    0    0 -0.00000000000E+00 -0.00000000000E+00 -0.45593999997E+02  0.45594000000E+02  0.51100000000E-03 0. -1.
    9900012    2    1    2    0    0  0.10556135871E+02  0.40916874398E+02 -0.98995282389E+01  0.47787271038E+02  0.19999999973E+02 0.  0.
        -12    1    1    2    0    0 -0.10556135871E+02 -0.40916874398E+02  0.98995282389E+01  0.43400728962E+02  0.00000000000E+00 0.  1.
         11    1    3    3    0    0  0.81148650462E+01  0.12473682576E+02 -0.30240870659E+01  0.15185153755E+02  0.51100000000E-03 0. -1.
        -11    1    3    3    0    0  0.84056663717E+01  0.17001747359E+02 -0.41044736101E+01  0.19405188592E+02  0.51100000000E-03 0.  1.
         12    1    3    3    0    0 -0.59643955473E+01  0.11441444464E+02 -0.27709675630E+01  0.13196928692E+02  0.00000000000E+00 0. -1.
</event>
<event>
 7    1  0.2294216E-010  0.4778727E+02  0.7816164E-02  0.1312668E+00
        -11   -1    0    0    0    0  0.00000000000E+00  0.00000000000E+00  0.45593999997E+02  0.45594000000E+02  0.51100000000E-03 0. -1.
         11   -1    0    0    0    0 -0.00000000000E+00 -0.00000000000E+00 -0.45593999997E+02  0.45594000000E+02  0.51100000000E-03 0.  1.
    9900012    2    1    2    0    0 -0.17495932795E+02  0.19751591552E+02  0.34458527992E+02  0.47787272073E+02  0.20000004691E+02 0.  0.
        -12    1    1    2    0    0  0.17495932795E+02 -0.19751591552E+02 -0.34458527992E+02  0.43400727927E+02  0.00000000000E+00 0.  1.
         11    1    3    3    0    0 -0.25200708178E+01  0.58959899724E+01  0.57645820695E+01  0.86222886393E+01  0.51100000000E-03 0. -1.
        -11    1    3    3    0    0 -0.16914202923E+01 -0.34676535809E+01  0.11639493411E+01  0.40299258420E+01  0.51100000000E-03 0.  1.
        -12    1    3    3    0    0 -0.13284441685E+02  0.17323255161E+02  0.27529996581E+02  0.35135057592E+02  0.00000000000E+00 0.  1.
</event>
<event>
 7    1  0.2294216E-010  0.4778727E+02  0.7816164E-02  0.1312668E+00
        -11   -1    0    0    0    0  0.00000000000E+00  0.00000000000E+00  0.45593999997E+02  0.45594000000E+02  0.51100000000E-03 0.  1.
         11   -1    0    0    0    0 -0.00000000000E+00 -0.00000000000E+00 -0.45593999997E+02  0.45594000000E+02  0.51100000000E-03 0. -1.
    9900012    2    1    2    0    0  0.17446143838E+01 -0.35570096051E+02 -0.24806209829E+02  0.47787268917E+02  0.19999990301E+02 0.  0.
        -12    1    1    2    0    0 -0.17446143838E+01  0.35570096051E+02  0.24806209829E+02  0.43400731083E+02  0.00000000000E+00 0.  1.
         11    1    3    3    0    0  0.52096129345E+00 -0.84634798040E+01  0.36729798089E+00  0.84874495068E+01  0.51100000000E-03 0. -1.
        -11    1    3    3    0    0 -0.44957450648E+01 -0.13873242360E+02 -0.18092411394E+02  0.23238199749E+02  0.51100000000E-03 0.  1.
         12    1    3    3    0    0  0.57193981552E+01 -0.13233373887E+02 -0.70810964165E+01  0.16061619661E+02  0.00000000000E+00 0. -1.
</event>
<event>
 7    1  0.2294216E-010  0.4778727E+02  0.7816164E-02  0.1312668E+00
        -11   -1    0    0    0    0  0.00000000000E+00  0.00000000000E+00  0.45593999997E+02  0.45594000000E+02  0.51100000000E-03 0.  1.
         11   -1    0    0    0    0 -0.00000000000E+00 -0.00000000000E+00 -0.45593999997E+02  0.45594000000E+02  0.51100000000E-03 0. -1.
    9900012    2    1    2    0    0  0.48490515174E+01  0.34622268791E+01 -0.42989797804E+02  0.47787273844E+02  0.20000012766E+02 0.  0.
        -12    1    1    2    0    0 -0.48490515174E+01 -0.34622268791E+01  0.42989797804E+02  0.43400726156E+02  0.00000000000E+00 0.  1.
         11    1    3    3    0    0  0.47980176679E+01  0.24992917820E+01 -0.16721947372E+02  0.17575293941E+02  0.51100000000E-03 0. -1.
        -11    1    3    3    0    0 -0.10002633687E+01  0.54059339134E+01 -0.25528747117E+01  0.60615029355E+01  0.51100000000E-03 0.  1.
        -12    1    3    3    0    0  0.10512972182E+01 -0.44429988163E+01 -0.23714975721E+02  0.24150476968E+02  0.00000000000E+00 0.  1.
</event>
<event>
 7    1  0.2294216E-010  0.4778730E+02  0.7816164E-02  0.1312668E+00
        -11   -1    0    0    0    0  0.00000000000E+00  0.00000000000E+00  0.45593999997E+02  0.45594000000E+02  0.51100000000E-03 0.  1.
         11   -1    0    0    0    0 -0.00000000000E+00 -0.00000000000E+00 -0.45593999997E+02  0.45594000000E+02  0.51100000000E-03 0. -1.
    9900012    2    1    2    0    0 -0.39670595291E+02  0.53714422704E+01 -0.16763421145E+02  0.47787299414E+02  0.20000129350E+02 0.  0.
        -12    1    1    2    0    0  0.39670595291E+02 -0.53714422704E+01  0.16763421145E+02  0.43400700586E+02  0.00000000000E+00 0.  1.
         11    1    3    3    0    0 -0.24139244221E+02 -0.53328558325E+01 -0.11846295094E+02  0.27413083931E+02  0.51100000000E-03 0. -1.
        -11    1    3    3    0    0  0.22123174128E+00  0.11158826019E+01  0.35916501433E+00  0.11929531564E+01  0.51100000000E-03 0.  1.
         12    1    3    3    0    0 -0.15752582811E+02  0.95884155009E+01 -0.52762910652E+01  0.19181262327E+02  0.00000000000E+00 0. -1.
</event>
<event>
 7    1  0.2294216E-010  0.4778727E+02  0.7816164E-02  0.1312668E+00
        -11   -1    0    0    0    0  0.00000000000E+00  0.00000000000E+00  0.45593999997E+02  0.45594000000E+02  0.51100000000E-03 0.  1.
         11   -1    0    0    0    0 -0.00000000000E+00 -0.00000000000E+00 -0.45593999997E+02  0.45594000000E+02  0.51100000000E-03 0. -1.
    9900012    2    1    2    0    0 -0.27641614422E+02 -0.15753878916E+02 -0.29519141560E+02  0.47787271122E+02  0.20000000353E+02 0.  0.
        -12    1    1    2    0    0  0.27641614422E+02  0.15753878916E+02  0.29519141560E+02  0.43400728878E+02  0.00000000000E+00 0.  1.
         11    1    3    3    0    0 -0.11938016463E+02 -0.14003260336E+02 -0.17457042588E+02  0.25364460832E+02  0.51100000000E-03 0. -1.
        -11    1    3    3    0    0 -0.10463539975E+02 -0.49393824688E+01 -0.11416595763E+02  0.16254901632E+02  0.51100000000E-03 0.  1.
        -12    1    3    3    0    0 -0.52400579831E+01  0.31887638898E+01 -0.64550320819E+00  0.61679086572E+01  0.00000000000E+00 0.  1.
</event>
<event>
 7    1  0.2294216E-010  0.4778727E+02  0.7816164E-02  0.1312668E+00
        -11   -1    0    0    0    0  0.00000000000E+00  0.00000000000E+00  0.45593999997E+02  0.45594000000E+02  0.51100000000E-03 0.  1.
         11   -1    0    0    0    0 -0.00000000000E+00 -0.00000000000E+00 -0.45593999997E+02  0.45594000000E+02  0.51100000000E-03 0. -1.
    9900012    2    1    2    0    0  0.13216628501E+02  0.21757068150E+02 -0.35150733888E+02  0.47787269864E+02  0.19999994618E+02 0.  0.
        -12    1    1    2    0    0 -0.13216628501E+02 -0.21757068150E+02  0.35150733888E+02  0.43400730136E+02  0.00000000000E+00 0.  1.
         11    1    3    3    0    0  0.22928548689E+01  0.99063761381E+01 -0.15179057315E+02  0.18270119126E+02  0.51100000000E-03 0. -1.
        -11    1    3    3    0    0 -0.16826714300E+00 -0.22872929983E+01  0.42625718585E+00  0.23327491380E+01  0.51100000000E-03 0.  1.
        -12    1    3    3    0    0  0.11092040775E+02  0.14137985011E+02 -0.20397933759E+02  0.27184401600E+02  0.00000000000E+00 0.  1.
</event>
<event>
 7    1  0.2294216E-010  0.4778727E+02  0.7816164E-02  0.1312668E+00
        -11   -1    0    0    0    0  0.00000000000E+00  0.00000000000E+00  0.45593999997E+02  0.45594000000E+02  0.51100000000E-03 0.  1.
         11   -1    0    0    0    0 -0.00000000000E+00 -0.00000000000E+00 -0.45593999997E+02  0.45594000000E+02  0.51100000000E-03 0. -1.
    9900012    2    1    2    0    0 -0.18065713928E+01  0.15828468385E+02 -0.40371017588E+02  0.47787272210E+02  0.20000005314E+02 0.  0.
        -12    1    1    2    0    0  0.18065713928E+01 -0.15828468385E+02  0.40371017588E+02  0.43400727790E+02  0.00000000000E+00 0.  1.
         11    1    3    3    0    0  0.21056461222E+01  0.67363889214E+01 -0.58413552009E+01  0.91615562072E+01  0.51100000000E-03 0. -1.
        -11    1    3    3    0    0  0.13763939563E+01 -0.13989230810E+01  0.19042347315E+00  0.19717270272E+01  0.51100000000E-03 0.  1.
         12    1    3    3    0    0 -0.52886114713E+01  0.10491002544E+02 -0.34720085860E+02  0.36653988976E+02  0.00000000000E+00 0. -1.
</event>
<event>
 7    1  0.2294216E-010  0.4778727E+02  0.7816164E-02  0.1312668E+00
        -11   -1    0    0    0    0  0.00000000000E+00  0.00000000000E+00  0.45593999997E+02  0.45594000000E+02  0.51100000000E-03 0. -1.
         11   -1    0    0    0    0 -0.00000000000E+00 -0.00000000000E+00 -0.45593999997E+02  0.45594000000E+02  0.51100000000E-03 0.  1.
    9900012    2    1    2    0    0  0.35045149238E+02 -0.15318458852E+02  0.20513542193E+02  0.47787273278E+02  0.20000010183E+02 0.  0.
        -12    1    1    2    0    0 -0.35045149238E+02  0.15318458852E+02 -0.20513542193E+02  0.43400726722E+02  0.00000000000E+00 0.  1.
         11    1    3    3    0    0  0.55814711591E+01  0.21620722360E+01  0.37340340158E+01  0.70548130341E+01  0.51100000000E-03 0. -1.
        -11    1    3    3    0    0  0.71097682434E+01 -0.47288663951E-01  0.87393863963E+01  0.11266228985E+02  0.51100000000E-03 0.  1.
         12    1    3    3    0    0  0.22353909835E+02 -0.17433242424E+02  0.80401217813E+01  0.29466231259E+02  0.00000000000E+00 0. -1.
</event>
<event>
 7    1  0.2294216E-010  0.4778726E+02  0.7816164E-02  0.1312668E+00
        -11   -1    0    0    0    0  0.00000000000E+00  0.00000000000E+00  0.45593999997E+02  0.45594000000E+02  0.51100000000E-03 0. -1.
         11   -1    0    0    0    0 -0.00000000000E+00 -0.00000000000E+00 -0.45593999997E+02  0.45594000000E+02  0.51100000000E-03 0.  1.
    9900012    2    1    2    0    0 -0.93480884614E+01 -0.53965323840E+01  0.42037061511E+02  0.47787264291E+02  0.19999969208E+02 0.  0.
        -12    1    1    2    0    0  0.93480884614E+01  0.53965323840E+01 -0.42037061511E+02  0.43400735709E+02  0.00000000000E+00 0.  1.
         11    1    3    3    0    0  0.38715618708E+01 -0.29930233574E+01  0.36486362592E+01  0.61040746187E+01  0.51100000000E-03 0.  1.
        -11    1    3    3    0    0 -0.18523283272E+01 -0.28138150837E+01  0.29976412307E+01  0.45093823043E+01  0.51100000000E-03 0. -1.
        -12    1    3    3    0    0 -0.11367322005E+02  0.41030605715E+00  0.35390784021E+02  0.37173807368E+02  0.00000000000E+00 0.  1.
</event>
<event>
 7    1  0.2294216E-010  0.4778727E+02  0.7816164E-02  0.1312668E+00
        -11   -1    0    0    0    0  0.00000000000E+00  0.00000000000E+00  0.45593999997E+02  0.45594000000E+02  0.51100000000E-03 0. -1.
         11   -1    0    0    0    0 -0.00000000000E+00 -0.00000000000E+00 -0.45593999997E+02  0.45594000000E+02  0.51100000000E-03 0.  1.
    9900012    2    1    2    0    0  0.42495724308E+02 -0.87643890134E+01 -0.96024099750E+00  0.47787272333E+02  0.20000005874E+02 0.  0.
        -12    1    1    2    0    0 -0.42495724308E+02  0.87643890134E+01  0.96024099750E+00  0.43400727667E+02  0.00000000000E+00 0.  1.
         11    1    3    3    0    0  0.68290791139E+01 -0.33401532212E+01 -0.37215924118E+01  0.84642303505E+01  0.51100000000E-03 0. -1.
        -11    1    3    3    0    0  0.72499910736E+01  0.47897616731E+01 -0.15302986320E+01  0.88230381171E+01  0.51100000000E-03 0.  1.
         12    1    3    3    0    0  0.28416654121E+02 -0.10213997465E+02  0.42916500463E+01  0.30500003865E+02  0.00000000000E+00 0. -1.
</event>
<event>
 7    1  0.2294216E-010  0.4778727E+02  0.7816164E-02  0.1312668E+00
        -11   -1    0    0    0    0  0.00000000000E+00  0.00000000000E+00  0.45593999997E+02  0.45594000000E+02  0.51100000000E-03 0.  1.
         11   -1    0    0    0    0 -0.00000000000E+00 -0.00000000000E+00 -0.45593999997E+02  0.45594000000E+02  0.51100000000E-03 0. -1.
    9900012    2    1    2    0    0 -0.37657880606E+02  0.13825587418E+02 -0.16563836547E+02  0.47787268205E+02  0.19999987053E+02 0.  0.
        -12    1    1    2    0    0  0.37657880606E+02 -0.13825587418E+02  0.16563836547E+02  0.43400731795E+02  0.00000000000E+00 0.  1.
         11    1    3    3    0    0 -0.20920053600E+02  0.11570015717E+02 -0.88298854543E+01  0.25484912865E+02  0.51100000000E-03 0. -1.
        -11    1    3    3    0    0 -0.80981233618E+01  0.71056377967E+01 -0.23530752248E+01  0.11027540694E+02  0.51100000000E-03 0.  1.
         12    1    3    3    0    0 -0.86397036443E+01 -0.48500660960E+01 -0.53808758682E+01  0.11274814646E+02  0.00000000000E+00 0. -1.
</event>
<event>
 7    1  0.2294216E-010  0.4778727E+02  0.7816164E-02  0.1312668E+00
        -11   -1    0    0    0    0  0.00000000000E+00  0.00000000000E+00  0.45593999997E+02  0.45594000000E+02  0.51100000000E-03 0.  1.
         11   -1    0    0    0    0 -0.00000000000E+00 -0.00000000000E+00 -0.45593999997E+02  0.45594000000E+02  0.51100000000E-03 0. -1.
    9900012    2    1    2    0    0 -0.41708947974E-01  0.42487899811E+02 -0.88543719799E+01  0.47787271053E+02  0.20000000040E+02 0.  0.
        -12    1    1    2    0    0  0.41708947974E-01 -0.42487899811E+02  0.88543719799E+01  0.43400728947E+02  0.00000000000E+00 0.  1.
         11    1    3    3    0    0  0.12962134368E+01  0.15242884112E+02 -0.84757804634E+01  0.17488983391E+02  0.51100000000E-03 0. -1.
        -11    1    3    3    0    0  0.85724846336E+00  0.25930781670E+02  0.29366220238E+01  0.26110612060E+02  0.51100000000E-03 0.  1.
         12    1    3    3    0    0 -0.21951708482E+01  0.13142340282E+01 -0.33152135402E+01  0.41876756024E+01  0.00000000000E+00 0. -1.
</event>
<event>
 7    1  0.2294216E-010  0.4778727E+02  0.7816164E-02  0.1312668E+00
        -11   -1    0    0    0    0  0.00000000000E+00  0.00000000000E+00  0.45593999997E+02  0.45594000000E+02  0.51100000000E-03 0.  1.
         11   -1    0    0    0    0 -0.00000000000E+00 -0.00000000000E+00 -0.45593999997E+02  0.45594000000E+02  0.51100000000E-03 0. -1.
    9900012    2    1    2    0    0  0.33191744402E+02  0.21370693196E+02 -0.18034001635E+02  0.47787266836E+02  0.19999980814E+02 0.  0.
        -12    1    1    2    0    0 -0.33191744402E+02 -0.21370693196E+02  0.18034001635E+02  0.43400733164E+02  0.00000000000E+00 0.  1.
         11    1    3    3    0    0  0.13789463049E+02  0.25613943345E+01 -0.12953597085E+02  0.19092032627E+02  0.51100000000E-03 0. -1.
        -11    1    3    3    0    0  0.54421898100E+01  0.89572513921E+00 -0.13740274394E+01  0.56839867275E+01  0.51100000000E-03 0.  1.
        -12    1    3    3    0    0  0.13960091543E+02  0.17913573723E+02 -0.37063771111E+01  0.23011247482E+02  0.00000000000E+00 0.  1.
</event>
<event>
 7    1  0.2294216E-010  0.4778727E+02  0.7816164E-02  0.1312668E+00
        -11   -1    0    0    0    0  0.00000000000E+00  0.00000000000E+00  0.45593999997E+02  0.45594000000E+02  0.51100000000E-03 0.  1.
         11   -1    0    0    0    0 -0.00000000000E+00 -0.00000000000E+00 -0.45593999997E+02  0.45594000000E+02  0.51100000000E-03 0. -1.
    9900012    2    1    2    0    0  0.39552175583E+02  0.44101122031E+01 -0.17314725784E+02  0.47787269454E+02  0.19999992747E+02 0.  0.
        -12    1    1    2    0    0 -0.39552175583E+02 -0.44101122031E+01  0.17314725784E+02  0.43400730546E+02  0.00000000000E+00 0.  1.
         11    1    3    3    0    0  0.10887448825E+01  0.21055046498E+00 -0.59772192950E+01  0.60792143965E+01  0.51100000000E-03 0. -1.
        -11    1    3    3    0    0  0.59518747355E+00  0.21308285132E+01 -0.67002849888E+00  0.23116264256E+01  0.51100000000E-03 0.  1.
         12    1    3    3    0    0  0.37868243227E+02  0.20687332249E+01 -0.10667477990E+02  0.39396428632E+02  0.00000000000E+00 0. -1.
</event>
<event>
 7    1  0.2294216E-010  0.4778728E+02  0.7816164E-02  0.1312668E+00
        -11   -1    0    0    0    0  0.00000000000E+00  0.00000000000E+00  0.45593999997E+02  0.45594000000E+02  0.51100000000E-03 0.  1.
         11   -1    0    0    0    0 -0.00000000000E+00 -0.00000000000E+00 -0.45593999997E+02  0.45594000000E+02  0.51100000000E-03 0. -1.
    9900012    2    1    2    0    0  0.41552795080E+02  0.12214738919E+02  0.27907491981E+01  0.47787275273E+02  0.20000019278E+02 0.  0.
        -12    1    1    2    0    0 -0.41552795080E+02 -0.12214738919E+02 -0.27907491981E+01  0.43400724727E+02  0.00000000000E+00 0.  1.
         11    1    3    3    0    0  0.71319027640E+01  0.73162630536E+01  0.10004919410E+01  0.10266095971E+02  0.51100000000E-03 0. -1.
        -11    1    3    3    0    0  0.22358562088E+02  0.55509736488E+01  0.74076314039E+01  0.24199000194E+02  0.51100000000E-03 0.  1.
         12    1    3    3    0    0  0.12062330227E+02 -0.65249778373E+00 -0.56173741469E+01  0.13322179108E+02  0.00000000000E+00 0. -1.
</event>
<event>
 7    1  0.2294216E-010  0.4778727E+02  0.7816164E-02  0.1312668E+00
        -11   -1    0    0    0    0  0.00000000000E+00  0.00000000000E+00  0.45593999997E+02  0.45594000000E+02  0.51100000000E-03 0.  1.
         11   -1    0    0    0    0 -0.00000000000E+00 -0.00000000000E+00 -0.45593999997E+02  0.45594000000E+02  0.51100000000E-03 0. -1.
    9900012    2    1    2    0    0  0.74433213436E+01  0.29290110129E+02 -0.31149791078E+02  0.47787273414E+02  0.20000010805E+02 0.  0.
        -12    1    1    2    0    0 -0.74433213436E+01 -0.29290110129E+02  0.31149791078E+02  0.43400726586E+02  0.00000000000E+00 0.  1.
         11    1    3    3    0    0  0.21803594605E+01  0.53394000074E+01 -0.10074768197E+02  0.11608794696E+02  0.51100000000E-03 0. -1.
        -11    1    3    3    0    0  0.11096935622E+02  0.15964415592E+02 -0.12741580434E+02  0.23245481660E+02  0.51100000000E-03 0.  1.
         12    1    3    3    0    0 -0.58339737387E+01  0.79862945296E+01 -0.83334424469E+01  0.12932997058E+02  0.00000000000E+00 0. -1.
</event>
<event>
 7    1  0.2294216E-010  0.4778728E+02  0.7816164E-02  0.1312668E+00
        -11   -1    0    0    0    0  0.00000000000E+00  0.00000000000E+00  0.45593999997E+02  0.45594000000E+02  0.51100000000E-03 0.  1.
         11   -1    0    0    0    0 -0.00000000000E+00 -0.00000000000E+00 -0.45593999997E+02  0.45594000000E+02  0.51100000000E-03 0. -1.
    9900012    2    1    2    0    0 -0.10878944969E+01  0.92320690468E+01 -0.42393488791E+02  0.47787279900E+02  0.20000040377E+02 0.  0.
        -12    1    1    2    0    0  0.10878944969E+01 -0.92320690468E+01  0.42393488791E+02  0.43400720100E+02  0.00000000000E+00 0.  1.
         11    1    3    3    0    0 -0.15904327711E+01 -0.23064917538E+01 -0.42674493075E+01  0.51049490166E+01  0.51100000000E-03 0. -1.
        -11    1    3    3    0    0 -0.61847522400E+01  0.78366448225E+00 -0.92912009045E+01  0.11188909902E+02  0.51100000000E-03 0.  1.
        -12    1    3    3    0    0  0.66872905142E+01  0.10754896318E+02 -0.28834838579E+02  0.31493420981E+02  0.00000000000E+00 0.  1.
</event>
<event>
 7    1  0.2294216E-010  0.4778726E+02  0.7816164E-02  0.1312668E+00
        -11   -1    0    0    0    0  0.00000000000E+00  0.00000000000E+00  0.45593999997E+02  0.45594000000E+02  0.51100000000E-03 0. -1.
         11   -1    0    0    0    0 -0.00000000000E+00 -0.00000000000E+00 -0.45593999997E+02  0.45594000000E+02  0.51100000000E-03 0.  1.
    9900012    2    1    2    0    0  0.18077116399E+02 -0.35665238582E+02  0.16876989365E+02  0.47787260946E+02  0.19999953955E+02 0.  0.
        -12    1    1    2    0    0 -0.18077116399E+02  0.35665238582E+02 -0.16876989365E+02  0.43400739054E+02  0.00000000000E+00 0.  1.
         11    1    3    3    0    0  0.40819498078E+01 -0.10110400941E+02  0.40329908123E+01  0.11625297268E+02  0.51100000000E-03 0. -1.
        -11    1    3    3    0    0 -0.15405144247E+01 -0.20885482240E+01  0.69359599388E+01  0.74055897071E+01  0.51100000000E-03 0.  1.
        -12    1    3    3    0    0  0.15535681016E+02 -0.23466289418E+02  0.59080386143E+01  0.28756373971E+02  0.00000000000E+00 0.  1.
</event>
<event>
 7    1  0.2294216E-010  0.4778727E+02  0.7816164E-02  0.1312668E+00
        -11   -1    0    0    0    0  0.00000000000E+00  0.00000000000E+00  0.45593999997E+02  0.45594000000E+02  0.51100000000E-03 0. -1.
         11   -1    0    0    0    0 -0.00000000000E+00 -0.00000000000E+00 -0.45593999997E+02  0.45594000000E+02  0.51100000000E-03 0.  1.
    9900012    2    1    2    0    0  0.35877350574E+02 -0.12365379993E+02  0.21060305268E+02  0.47787269999E+02  0.19999995235E+02 0.  0.
        -12    1    1    2    0    0 -0.35877350574E+02  0.12365379993E+02 -0.21060305268E+02  0.43400730001E+02  0.00000000000E+00 0.  1.
         11    1    3    3    0    0  0.33579454198E+02 -0.93757807662E+01  0.13151675888E+02  0.37261932158E+02  0.51100000000E-03 0. -1.
        -11    1    3    3    0    0  0.37156313020E+00  0.86547878058E+00 -0.50757105543E+00  0.10699258464E+01  0.51100000000E-03 0.  1.
         12    1    3    3    0    0  0.19263332454E+01 -0.38550780074E+01  0.84162004359E+01  0.94554119949E+01  0.00000000000E+00 0. -1.
</event>
<event>
 7    1  0.2294216E-010  0.4778727E+02  0.7816164E-02  0.1312668E+00
        -11   -1    0    0    0    0  0.00000000000E+00  0.00000000000E+00  0.45593999997E+02  0.45594000000E+02  0.51100000000E-03 0.  1.
         11   -1    0    0    0    0 -0.00000000000E+00 -0.00000000000E+00 -0.45593999997E+02  0.45594000000E+02  0.51100000000E-03 0. -1.
    9900012    2    1    2    0    0 -0.30807886607E+02 -0.14275239961E+02 -0.27031743045E+02  0.47787268610E+02  0.19999988900E+02 0.  0.
        -12    1    1    2    0    0  0.30807886607E+02  0.14275239961E+02  0.27031743045E+02  0.43400731390E+02  0.00000000000E+00 0.  1.
         11    1    3    3    0    0 -0.45729964423E+01  0.64267885543E-01 -0.52244576450E+00  0.46031920078E+01  0.51100000000E-03 0.  1.
        -11    1    3    3    0    0 -0.70773806025E+01 -0.10822249780E+02 -0.42623096826E+01  0.13615347612E+02  0.51100000000E-03 0. -1.
         12    1    3    3    0    0 -0.19157509562E+02 -0.35172580670E+01 -0.22246987598E+02  0.29568728991E+02  0.00000000000E+00 0. -1.
</event>
<event>
 7    1  0.2294216E-010  0.4778727E+02  0.7816164E-02  0.1312668E+00
        -11   -1    0    0    0    0  0.00000000000E+00  0.00000000000E+00  0.45593999997E+02  0.45594000000E+02  0.51100000000E-03 0. -1.
         11   -1    0    0    0    0 -0.00000000000E+00 -0.00000000000E+00 -0.45593999997E+02  0.45594000000E+02  0.51100000000E-03 0.  1.
    9900012    2    1    2    0    0 -0.14127151106E+02  0.40206549482E+02 -0.82146357475E+01  0.47787271203E+02  0.20000000723E+02 0.  0.
        -12    1    1    2    0    0  0.14127151106E+02 -0.40206549482E+02  0.82146357475E+01  0.43400728797E+02  0.00000000000E+00 0.  1.
         11    1    3    3    0    0 -0.92006715974E+01  0.14721442834E+02 -0.53230362594E+01  0.18157861995E+02  0.51100000000E-03 0. -1.
        -11    1    3    3    0    0 -0.63639063900E+01  0.31403444919E+01 -0.62435939699E+00  0.71239660995E+01  0.51100000000E-03 0.  1.
        -12    1    3    3    0    0  0.14374268818E+01  0.22344762157E+02 -0.22672400911E+01  0.22505443109E+02  0.00000000000E+00 0.  1.
</event>
<event>
 7    1  0.2294216E-010  0.4778727E+02  0.7816164E-02  0.1312668E+00
        -11   -1    0    0    0    0  0.00000000000E+00  0.00000000000E+00  0.45593999997E+02  0.45594000000E+02  0.51100000000E-03 0.  1.
         11   -1    0    0    0    0 -0.00000000000E+00 -0.00000000000E+00 -0.45593999997E+02  0.45594000000E+02  0.51100000000E-03 0. -1.
    9900012    2    1    2    0    0  0.91409154795E+01 -0.69516061219E+01 -0.41853818255E+02  0.47787271135E+02  0.20000000412E+02 0.  0.
        -12    1    1    2    0    0 -0.91409154795E+01  0.69516061219E+01  0.41853818255E+02  0.43400728865E+02  0.00000000000E+00 0.  1.
         11    1    3    3    0    0  0.68897279336E+01 -0.78028888380E+01 -0.14942378812E+02  0.18210659242E+02  0.51100000000E-03 0. -1.
        -11    1    3    3    0    0 -0.88555798589E+00 -0.42846218194E+01 -0.19719074949E+02  0.20198616641E+02  0.51100000000E-03 0.  1.
        -12    1    3    3    0    0  0.31367455318E+01  0.51359045355E+01 -0.71923644945E+01  0.93779952522E+01  0.00000000000E+00 0.  1.
</event>
<event>
 7    1  0.2294216E-010  0.4778727E+02  0.7816164E-02  0.1312668E+00
        -11   -1    0    0    0    0  0.00000000000E+00  0.00000000000E+00  0.45593999997E+02  0.45594000000E+02  0.51100000000E-03 0. -1.
         11   -1    0    0    0    0 -0.00000000000E+00 -0.00000000000E+00 -0.45593999997E+02  0.45594000000E+02  0.51100000000E-03 0.  1.
    9900012    2    1    2    0    0 -0.50934694184E+01 -0.42436984897E+02  0.75354240929E+01  0.47787265742E+02  0.19999975822E+02 0.  0.
        -12    1    1    2    0    0  0.50934694184E+01  0.42436984897E+02 -0.75354240929E+01  0.43400734258E+02  0.00000000000E+00 0.  1.
         11    1    3    3    0    0 -0.36048178347E+01 -0.21883321861E+02  0.18522602931E+01  0.22255456763E+02  0.51100000000E-03 0. -1.
        -11    1    3    3    0    0  0.20206142624E+00 -0.14116067053E+02 -0.31569174468E+01  0.14466177999E+02  0.51100000000E-03 0.  1.
        -12    1    3    3    0    0 -0.16907130099E+01 -0.64375959837E+01  0.88400812466E+01  0.11065630980E+02  0.00000000000E+00 0.  1.
</event>
<event>
 7    1  0.2294216E-010  0.4778727E+02  0.7816164E-02  0.1312668E+00
        -11   -1    0    0    0    0  0.00000000000E+00  0.00000000000E+00  0.45593999997E+02  0.45594000000E+02  0.51100000000E-03 0.  1.
         11   -1    0    0    0    0 -0.00000000000E+00 -0.00000000000E+00 -0.45593999997E+02  0.45594000000E+02  0.51100000000E-03 0. -1.
    9900012    2    1    2    0    0 -0.39571313064E+02  0.11372280471E+02 -0.13726094542E+02  0.47787271296E+02  0.20000001145E+02 0.  0.
        -12    1    1    2    0    0  0.39571313064E+02 -0.11372280471E+02  0.13726094542E+02  0.43400728704E+02  0.00000000000E+00 0.  1.
         11    1    3    3    0    0 -0.74177373800E+01  0.68457166472E+01 -0.26732799787E-01  0.10093927836E+02  0.51100000000E-03 0. -1.
        -11    1    3    3    0    0 -0.13830601479E+01 -0.30217785786E+01 -0.45746240593E+00  0.33545898803E+01  0.51100000000E-03 0.  1.
         12    1    3    3    0    0 -0.30770515536E+02  0.75483424021E+01 -0.13241899336E+02  0.34338753580E+02  0.00000000000E+00 0. -1.
</event>
<event>
 7    1  0.2294216E-010  0.4778726E+02  0.7816164E-02  0.1312668E+00
        -11   -1    0    0    0    0  0.00000000000E+00  0.00000000000E+00  0.45593999997E+02  0.45594000000E+02  0.51100000000E-03 0.  1.
         11   -1    0    0    0    0 -0.00000000000E+00 -0.00000000000E+00 -0.45593999997E+02  0.45594000000E+02  0.51100000000E-03 0. -1.
    9900012    2    1    2    0    0  0.23669660192E+02  0.32500980815E+02 -0.16341887101E+02  0.47787264504E+02  0.19999970181E+02 0.  0.
        -12    1    1    2    0    0 -0.23669660192E+02 -0.32500980815E+02  0.16341887101E+02  0.43400735496E+02  0.00000000000E+00 0.  1.
         11    1    3    3    0    0  0.19489823088E+02  0.28784647736E+02 -0.10119681516E+02  0.36205208238E+02  0.51100000000E-03 0. -1.
        -11    1    3    3    0    0  0.16690231182E+01  0.60855162495E+01 -0.38209307929E+01  0.73769003367E+01  0.51100000000E-03 0.  1.
        -12    1    3    3    0    0  0.25108139859E+01 -0.23691831707E+01 -0.24012747920E+01  0.42051559299E+01  0.00000000000E+00 0.  1.
</event>
<event>
 7    1  0.2294216E-010  0.4778730E+02  0.7816164E-02  0.1312668E+00
        -11   -1    0    0    0    0  0.00000000000E+00  0.00000000000E+00  0.45593999997E+02  0.45594000000E+02  0.51100000000E-03 0.  1.
         11   -1    0    0    0    0 -0.00000000000E+00 -0.00000000000E+00 -0.45593999997E+02  0.45594000000E+02  0.51100000000E-03 0. -1.
    9900012    2    1    2    0    0 -0.35101810433E+02  0.19446155685E+01 -0.25449997047E+02  0.47787297528E+02  0.20000120747E+02 0.  0.
        -12    1    1    2    0    0  0.35101810433E+02 -0.19446155685E+01  0.25449997047E+02  0.43400702472E+02  0.00000000000E+00 0.  1.
         11    1    3    3    0    0 -0.61192180695E+01  0.62606424729E+01 -0.94882338264E+01  0.12909959541E+02  0.51100000000E-03 0.  1.
        -11    1    3    3    0    0 -0.16846709470E+02 -0.66895898805E+00 -0.14278915613E+02  0.22094038957E+02  0.51100000000E-03 0. -1.
        -12    1    3    3    0    0 -0.12135882894E+02 -0.36470679163E+01 -0.16828476079E+01  0.12783299029E+02  0.00000000000E+00 0.  1.
</event>
<event>
 7    1  0.2294216E-010  0.4778727E+02  0.7816164E-02  0.1312668E+00
        -11   -1    0    0    0    0  0.00000000000E+00  0.00000000000E+00  0.45593999997E+02  0.45594000000E+02  0.51100000000E-03 0.  1.
         11   -1    0    0    0    0 -0.00000000000E+00 -0.00000000000E+00 -0.45593999997E+02  0.45594000000E+02  0.51100000000E-03 0. -1.
    9900012    2    1    2    0    0  0.25956443856E+02 -0.32032401466E+02 -0.13557709833E+02  0.47787271697E+02  0.20000002975E+02 0.  0.
        -12    1    1    2    0    0 -0.25956443856E+02  0.32032401466E+02  0.13557709833E+02  0.43400728303E+02  0.00000000000E+00 0.  1.
         11    1    3    3    0    0  0.51495000516E+01  0.22567429431E+01 -0.17974925063E+01  0.59026450905E+01  0.51100000000E-03 0. -1.
        -11    1    3    3    0    0  0.57012488653E+01 -0.88969076845E+01 -0.43251097478E+01  0.11417783479E+02  0.51100000000E-03 0.  1.
         12    1    3    3    0    0  0.15105694939E+02 -0.25392236725E+02 -0.74351075785E+01  0.30466843128E+02  0.00000000000E+00 0. -1.
</event>
<event>
 7    1  0.2294216E-010  0.4778727E+02  0.7816164E-02  0.1312668E+00
        -11   -1    0    0    0    0  0.00000000000E+00  0.00000000000E+00  0.45593999997E+02  0.45594000000E+02  0.51100000000E-03 0.  1.
         11   -1    0    0    0    0 -0.00000000000E+00 -0.00000000000E+00 -0.45593999997E+02  0.45594000000E+02  0.51100000000E-03 0. -1.
    9900012    2    1    2    0    0 -0.33052042294E+02  0.12808683726E+02  0.25042428110E+02  0.47787273229E+02  0.20000009960E+02 0.  0.
        -12    1    1    2    0    0  0.33052042294E+02 -0.12808683726E+02 -0.25042428110E+02  0.43400726771E+02  0.00000000000E+00 0.  1.
         11    1    3    3    0    0 -0.13618509326E+02  0.10150577389E+02  0.12598387665E+02  0.21147514975E+02  0.51100000000E-03 0. -1.
        -11    1    3    3    0    0 -0.14773448643E+02  0.79265696948E+00  0.14946919769E+02  0.21030775086E+02  0.51100000000E-03 0.  1.
        -12    1    3    3    0    0 -0.46600843256E+01  0.18654493679E+01 -0.25028793246E+01  0.56089831680E+01  0.00000000000E+00 0.  1.
</event>
<event>
 7    1  0.2294216E-010  0.4778727E+02  0.7816164E-02  0.1312668E+00
        -11   -1    0    0    0    0  0.00000000000E+00  0.00000000000E+00  0.45593999997E+02  0.45594000000E+02  0.51100000000E-03 0.  1.
         11   -1    0    0    0    0 -0.00000000000E+00 -0.00000000000E+00 -0.45593999997E+02  0.45594000000E+02  0.51100000000E-03 0. -1.
    9900012    2    1    2    0    0  0.37087289176E+02 -0.15082784300E+02 -0.16753079433E+02  0.47787273380E+02  0.20000010647E+02 0.  0.
        -12    1    1    2    0    0 -0.37087289176E+02  0.15082784300E+02  0.16753079433E+02  0.43400726620E+02  0.00000000000E+00 0.  1.
         11    1    3    3    0    0  0.17320892361E+02 -0.10368921759E+02 -0.32041503387E+01  0.20440020310E+02  0.51100000000E-03 0. -1.
        -11    1    3    3    0    0  0.40440801692E+01 -0.16738131063E+01  0.21899321546E+01  0.48940819193E+01  0.51100000000E-03 0.  1.
         12    1    3    3    0    0  0.15722316646E+02 -0.30400494352E+01 -0.15738861249E+02  0.22453171150E+02  0.00000000000E+00 0. -1.
</event>
<event>
 7    1  0.2294216E-010  0.4778728E+02  0.7816164E-02  0.1312668E+00
        -11   -1    0    0    0    0  0.00000000000E+00  0.00000000000E+00  0.45593999997E+02  0.45594000000E+02  0.51100000000E-03 0. -1.
         11   -1    0    0    0    0 -0.00000000000E+00 -0.00000000000E+00 -0.45593999997E+02  0.45594000000E+02  0.51100000000E-03 0.  1.
    9900012    2    1    2    0    0 -0.31224420022E+02 -0.95269848825E+01  0.28598859590E+02  0.47787278618E+02  0.20000034531E+02 0.  0.
        -12    1    1    2    0    0  0.31224420022E+02  0.95269848825E+01 -0.28598859590E+02  0.43400721382E+02  0.00000000000E+00 0.  1.
         11    1    3    3    0    0 -0.27692519487E+01  0.14365830957E+01  0.41425405179E+01  0.51858624692E+01  0.51100000000E-03 0. -1.
        -11    1    3    3    0    0 -0.19689448435E+01 -0.31377268079E+01 -0.21241682184E+01  0.42701480301E+01  0.51100000000E-03 0.  1.
         12    1    3    3    0    0 -0.26486223230E+02 -0.78258411703E+01  0.26580487290E+02  0.38331268119E+02  0.00000000000E+00 0. -1.
</event>
<event>
 7    1  0.2294216E-010  0.4778727E+02  0.7816164E-02  0.1312668E+00
        -11   -1    0    0    0    0  0.00000000000E+00  0.00000000000E+00  0.45593999997E+02  0.45594000000E+02  0.51100000000E-03 0. -1.
         11   -1    0    0    0    0 -0.00000000000E+00 -0.00000000000E+00 -0.45593999997E+02  0.45594000000E+02  0.51100000000E-03 0.  1.
    9900012    2    1    2    0    0 -0.50668890892E+01 -0.76093790701E+01  0.42426963556E+02  0.47787271302E+02  0.20000001176E+02 0.  0.
        -12    1    1    2    0    0  0.50668890892E+01  0.76093790701E+01 -0.42426963556E+02  0.43400728698E+02  0.00000000000E+00 0.  1.
         11    1    3    3    0    0 -0.54960916542E+00 -0.23092012420E+01  0.20040438314E+01  0.31065531623E+01  0.51100000000E-03 0. -1.
        -11    1    3    3    0    0  0.37258134062E+01  0.22319957938E+01  0.26401533875E+02  0.26756391423E+02  0.51100000000E-03 0.  1.
        -12    1    3    3    0    0 -0.82430933299E+01 -0.75321736219E+01  0.14021385850E+02  0.17924326717E+02  0.00000000000E+00 0.  1.
</event>
<event>
 7    1  0.2294216E-010  0.4778727E+02  0.7816164E-02  0.1312668E+00
        -11   -1    0    0    0    0  0.00000000000E+00  0.00000000000E+00  0.45593999997E+02  0.45594000000E+02  0.51100000000E-03 0.  1.
         11   -1    0    0    0    0 -0.00000000000E+00 -0.00000000000E+00 -0.45593999997E+02  0.45594000000E+02  0.51100000000E-03 0. -1.
    9900012    2    1    2    0    0 -0.57202160842E+01  0.67996519949E+01 -0.42481376257E+02  0.47787268808E+02  0.19999989805E+02 0.  0.
        -12    1    1    2    0    0  0.57202160842E+01 -0.67996519949E+01  0.42481376257E+02  0.43400731192E+02  0.00000000000E+00 0.  1.
         11    1    3    3    0    0 -0.80574020851E+00  0.36194655582E+01 -0.14496046674E+01  0.39813442659E+01  0.51100000000E-03 0. -1.
        -11    1    3    3    0    0  0.99682130144E+00 -0.12042668947E+00  0.88953550676E+00  0.13414279606E+01  0.51100000000E-03 0.  1.
         12    1    3    3    0    0 -0.59112971771E+01  0.33006131262E+01 -0.41921307096E+02  0.42464496582E+02  0.00000000000E+00 0. -1.
</event>
<event>
 7    1  0.2294216E-010  0.4778727E+02  0.7816164E-02  0.1312668E+00
        -11   -1    0    0    0    0  0.00000000000E+00  0.00000000000E+00  0.45593999997E+02  0.45594000000E+02  0.51100000000E-03 0.  1.
         11   -1    0    0    0    0 -0.00000000000E+00 -0.00000000000E+00 -0.45593999997E+02  0.45594000000E+02  0.51100000000E-03 0. -1.
    9900012    2    1    2    0    0  0.15807868932E+02  0.22522703242E+02 -0.33562818006E+02  0.47787266895E+02  0.19999981083E+02 0.  0.
        -12    1    1    2    0    0 -0.15807868932E+02 -0.22522703242E+02  0.33562818006E+02  0.43400733105E+02  0.00000000000E+00 0.  1.
         11    1    3    3    0    0  0.76698360622E+01  0.83762521044E+01 -0.91060867921E+01  0.14557087671E+02  0.51100000000E-03 0. -1.
        -11    1    3    3    0    0  0.47448014722E+01  0.15904606000E+02 -0.12790427807E+02  0.20953870210E+02  0.51100000000E-03 0.  1.
         12    1    3    3    0    0  0.33932313979E+01 -0.17581548619E+01 -0.11666303407E+02  0.12276309015E+02  0.00000000000E+00 0. -1.
</event>
<event>
 7    1  0.2294216E-010  0.4778727E+02  0.7816164E-02  0.1312668E+00
        -11   -1    0    0    0    0  0.00000000000E+00  0.00000000000E+00  0.45593999997E+02  0.45594000000E+02  0.51100000000E-03 0. -1.
         11   -1    0    0    0    0 -0.00000000000E+00 -0.00000000000E+00 -0.45593999997E+02  0.45594000000E+02  0.51100000000E-03 0.  1.
    9900012    2    1    2    0    0 -0.51800117594E+01  0.12661590647E+02  0.41188283317E+02  0.47787273253E+02  0.20000010070E+02 0.  0.
        -12    1    1    2    0    0  0.51800117594E+01 -0.12661590647E+02 -0.41188283317E+02  0.43400726747E+02  0.00000000000E+00 0.  1.
         11    1    3    3    0    0 -0.32410809570E+00 -0.35384101210E+01  0.12553963718E+02  0.13047122194E+02  0.51100000000E-03 0. -1.
        -11    1    3    3    0    0 -0.11853623599E+01 -0.47208890314E-01 -0.41284622319E+00  0.12560871263E+01  0.51100000000E-03 0.  1.
        -12    1    3    3    0    0 -0.36705413037E+01  0.16247209659E+02  0.29047165822E+02  0.33484063933E+02  0.00000000000E+00 0.  1.
</event>
<event>
 7    1  0.2294216E-010  0.4778729E+02  0.7816164E-02  0.1312668E+00
        -11   -1    0    0    0    0  0.00000000000E+00  0.00000000000E+00  0.45593999997E+02  0.45594000000E+02  0.51100000000E-03 0.  1.
         11   -1    0    0    0    0 -0.00000000000E+00 -0.00000000000E+00 -0.45593999997E+02  0.45594000000E+02  0.51100000000E-03 0. -1.
    9900012    2    1    2    0    0  0.19603624584E+02  0.36847640688E+02 -0.11898368683E+02  0.47787286891E+02  0.20000072249E+02 0.  0.
        -12    1    1    2    0    0 -0.19603624584E+02 -0.36847640688E+02  0.11898368683E+02  0.43400713109E+02  0.00000000000E+00 0.  1.
         11    1    3    3    0    0  0.86607346384E+01  0.98475520008E+01 -0.23545545232E+01  0.13323908291E+02  0.51100000000E-03 0. -1.
        -11    1    3    3    0    0  0.66879427291E+01  0.11635344834E+01 -0.69434154034E+00  0.68238186433E+01  0.51100000000E-03 0.  1.
        -12    1    3    3    0    0  0.42549472168E+01  0.25836554204E+02 -0.88494726193E+01  0.27639559956E+02  0.00000000000E+00 0.  1.
</event>
<event>
 7    1  0.2294216E-010  0.4778727E+02  0.7816164E-02  0.1312668E+00
        -11   -1    0    0    0    0  0.00000000000E+00  0.00000000000E+00  0.45593999997E+02  0.45594000000E+02  0.51100000000E-03 0.  1.
         11   -1    0    0    0    0 -0.00000000000E+00 -0.00000000000E+00 -0.45593999997E+02  0.45594000000E+02  0.51100000000E-03 0. -1.
    9900012    2    1    2    0    0 -0.20043534447E+02  0.16301125062E+02 -0.34873392361E+02  0.47787269060E+02  0.19999990951E+02 0.  0.
        -12    1    1    2    0    0  0.20043534447E+02 -0.16301125062E+02  0.34873392361E+02  0.43400730940E+02  0.00000000000E+00 0.  1.
         11    1    3    3    0    0 -0.39492048088E+01  0.12305682108E+00 -0.10913278844E+02  0.11606507528E+02  0.51100000000E-03 0. -1.
        -11    1    3    3    0    0 -0.16826299689E+02  0.75391151481E+01 -0.16082690822E+02  0.24466621401E+02  0.51100000000E-03 0.  1.
        -12    1    3    3    0    0  0.73197005118E+00  0.86389530926E+01 -0.78774226953E+01  0.11714140131E+02  0.00000000000E+00 0.  1.
</event>
<event>
 7    1  0.2294216E-010  0.4778727E+02  0.7816164E-02  0.1312668E+00
        -11   -1    0    0    0    0  0.00000000000E+00  0.00000000000E+00  0.45593999997E+02  0.45594000000E+02  0.51100000000E-03 0. -1.
         11   -1    0    0    0    0 -0.00000000000E+00 -0.00000000000E+00 -0.45593999997E+02  0.45594000000E+02  0.51100000000E-03 0.  1.
    9900012    2    1    2    0    0  0.27370105566E+02  0.33334280304E+02  0.48297392048E+01  0.47787270710E+02  0.19999998477E+02 0.  0.
        -12    1    1    2    0    0 -0.27370105566E+02 -0.33334280304E+02 -0.48297392048E+01  0.43400729290E+02  0.00000000000E+00 0.  1.
         11    1    3    3    0    0  0.16610496599E+02  0.22742183053E+02  0.44374190298E+01  0.28509755790E+02  0.51100000000E-03 0. -1.
        -11    1    3    3    0    0  0.10787453135E+02  0.88783591683E+01 -0.40249175521E+01  0.14539407424E+02  0.51100000000E-03 0.  1.
         12    1    3    3    0    0 -0.27844168261E-01  0.17137380828E+01  0.44172377272E+01  0.47381074969E+01  0.00000000000E+00 0. -1.
</event>
<event>
 7    1  0.2294216E-010  0.4778727E+02  0.7816164E-02  0.1312668E+00
        -11   -1    0    0    0    0  0.00000000000E+00  0.00000000000E+00  0.45593999997E+02  0.45594000000E+02  0.51100000000E-03 0. -1.
         11   -1    0    0    0    0 -0.00000000000E+00 -0.00000000000E+00 -0.45593999997E+02  0.45594000000E+02  0.51100000000E-03 0.  1.
    9900012    2    1    2    0    0 -0.31877276661E+01 -0.13309483180E+02  0.41186398353E+02  0.47787270058E+02  0.19999995503E+02 0.  0.
        -12    1    1    2    0    0  0.31877276661E+01  0.13309483180E+02 -0.41186398353E+02  0.43400729942E+02  0.00000000000E+00 0.  1.
         11    1    3    3    0    0 -0.43213763292E+01 -0.44434315186E+01  0.13689471413E+02  0.15027308637E+02  0.51100000000E-03 0. -1.
        -11    1    3    3    0    0  0.59349220321E+01 -0.40381531826E+00  0.35873800742E+01  0.69466295710E+01  0.51100000000E-03 0.  1.
        -12    1    3    3    0    0 -0.48012733690E+01 -0.84622363435E+01  0.23909546866E+02  0.25813331851E+02  0.00000000000E+00 0.  1.
</event>
<event>
 7    1  0.2294216E-010  0.4778727E+02  0.7816164E-02  0.1312668E+00
        -11   -1    0    0    0    0  0.00000000000E+00  0.00000000000E+00  0.45593999997E+02  0.45594000000E+02  0.51100000000E-03 0. -1.
         11   -1    0    0    0    0 -0.00000000000E+00 -0.00000000000E+00 -0.45593999997E+02  0.45594000000E+02  0.51100000000E-03 0.  1.
    9900012    2    1    2    0    0  0.30645213807E+02  0.98954720170E+01  0.29095940267E+02  0.47787271484E+02  0.20000002005E+02 0.  0.
        -12    1    1    2    0    0 -0.30645213807E+02 -0.98954720170E+01 -0.29095940267E+02  0.43400728516E+02  0.00000000000E+00 0.  1.
         11    1    3    3    0    0  0.15438145243E+02  0.22537429500E+01  0.73147742429E+01  0.17231413416E+02  0.51100000000E-03 0.  1.
        -11    1    3    3    0    0  0.26423234189E+01 -0.24550674649E+01  0.98849710401E+01  0.10522446580E+02  0.51100000000E-03 0. -1.
         12    1    3    3    0    0  0.12564745145E+02  0.10096796532E+02  0.11896194984E+02  0.20033411488E+02  0.00000000000E+00 0. -1.
</event>
<event>
 7    1  0.2294216E-010  0.4778727E+02  0.7816164E-02  0.1312668E+00
        -11   -1    0    0    0    0  0.00000000000E+00  0.00000000000E+00  0.45593999997E+02  0.45594000000E+02  0.51100000000E-03 0.  1.
         11   -1    0    0    0    0 -0.00000000000E+00 -0.00000000000E+00 -0.45593999997E+02  0.45594000000E+02  0.51100000000E-03 0. -1.
    9900012    2    1    2    0    0  0.33547644619E+01  0.41428274404E+02 -0.12492670543E+02  0.47787272103E+02  0.20000004826E+02 0.  0.
        -12    1    1    2    0    0 -0.33547644619E+01 -0.41428274404E+02  0.12492670543E+02  0.43400727897E+02  0.00000000000E+00 0.  1.
         11    1    3    3    0    0  0.10213358489E+01 -0.11588700041E+01 -0.64686858879E+00  0.16746778302E+01  0.51100000000E-03 0. -1.
        -11    1    3    3    0    0 -0.43520897794E+01  0.62811473147E+01 -0.17219250463E+01  0.78331681434E+01  0.51100000000E-03 0.  1.
         12    1    3    3    0    0  0.66855183923E+01  0.36305997094E+02 -0.10123876908E+02  0.38279426129E+02  0.00000000000E+00 0. -1.
</event>
<event>
 7    1  0.2294216E-010  0.4778727E+02  0.7816164E-02  0.1312668E+00
        -11   -1    0    0    0    0  0.00000000000E+00  0.00000000000E+00  0.45593999997E+02  0.45594000000E+02  0.51100000000E-03 0.  1.
         11   -1    0    0    0    0 -0.00000000000E+00 -0.00000000000E+00 -0.45593999997E+02  0.45594000000E+02  0.51100000000E-03 0. -1.
    9900012    2    1    2    0    0 -0.34180186146E+02 -0.11030946322E+02 -0.24365058184E+02  0.47787274637E+02  0.20000016378E+02 0.  0.
        -12    1    1    2    0    0  0.34180186146E+02  0.11030946322E+02  0.24365058184E+02  0.43400725363E+02  0.00000000000E+00 0.  1.
         11    1    3    3    0    0 -0.68682456948E+01 -0.86335225185E+01 -0.41963256273E+01  0.11803374900E+02  0.51100000000E-03 0. -1.
        -11    1    3    3    0    0 -0.50193420419E+01  0.13366541568E+01  0.67397762766E+00  0.52378129951E+01  0.51100000000E-03 0.  1.
        -12    1    3    3    0    0 -0.22292598409E+02 -0.37340779606E+01 -0.20842710185E+02  0.30746086741E+02  0.00000000000E+00 0.  1.
</event>
<event>
 7    1  0.2294216E-010  0.4778727E+02  0.7816164E-02  0.1312668E+00
        -11   -1    0    0    0    0  0.00000000000E+00  0.00000000000E+00  0.45593999997E+02  0.45594000000E+02  0.51100000000E-03 0.  1.
         11   -1    0    0    0    0 -0.00000000000E+00 -0.00000000000E+00 -0.45593999997E+02  0.45594000000E+02  0.51100000000E-03 0. -1.
    9900012    2    1    2    0    0 -0.33527300969E+02  0.26281746094E+02 -0.82953687427E+01  0.47787271543E+02  0.20000002272E+02 0.  0.
        -12    1    1    2    0    0  0.33527300969E+02 -0.26281746094E+02  0.82953687427E+01  0.43400728457E+02  0.00000000000E+00 0.  1.
         11    1    3    3    0    0 -0.84700861365E+01  0.10619446981E+02 -0.11039916877E+02  0.17504136033E+02  0.51100000000E-03 0. -1.
        -11    1    3    3    0    0 -0.47976267785E+01  0.60616333484E+01  0.38574039812E+00  0.77401174069E+01  0.51100000000E-03 0.  1.
         12    1    3    3    0    0 -0.20259588054E+02  0.96006657644E+01  0.23588077365E+01  0.22543018103E+02  0.00000000000E+00 0. -1.
</event>
<event>
 7    1  0.2294216E-010  0.4778727E+02  0.7816164E-02  0.1312668E+00
        -11   -1    0    0    0    0  0.00000000000E+00  0.00000000000E+00  0.45593999997E+02  0.45594000000E+02  0.51100000000E-03 0. -1.
         11   -1    0    0    0    0 -0.00000000000E+00 -0.00000000000E+00 -0.45593999997E+02  0.45594000000E+02  0.51100000000E-03 0.  1.
    9900012    2    1    2    0    0  0.35300787012E+02 -0.25053354669E+02  0.31316690572E+01  0.47787268497E+02  0.19999988387E+02 0.  0.
        -12    1    1    2    0    0 -0.35300787012E+02  0.25053354669E+02 -0.31316690572E+01  0.43400731503E+02  0.00000000000E+00 0.  1.
         11    1    3    3    0    0  0.15258339967E+02 -0.12230565948E+02 -0.10830973262E+01  0.19585116340E+02  0.51100000000E-03 0. -1.
        -11    1    3    3    0    0  0.65045884093E+01 -0.67597226481E+00 -0.45949468608E+01  0.79925056016E+01  0.51100000000E-03 0.  1.
         12    1    3    3    0    0  0.13537858636E+02 -0.12146816456E+02  0.88097132443E+01  0.20209646556E+02  0.00000000000E+00 0. -1.
</event>
<event>
 7    1  0.2294216E-010  0.4778727E+02  0.7816164E-02  0.1312668E+00
        -11   -1    0    0    0    0  0.00000000000E+00  0.00000000000E+00  0.45593999997E+02  0.45594000000E+02  0.51100000000E-03 0.  1.
         11   -1    0    0    0    0 -0.00000000000E+00 -0.00000000000E+00 -0.45593999997E+02  0.45594000000E+02  0.51100000000E-03 0. -1.
    9900012    2    1    2    0    0  0.25328586163E+02 -0.27453809066E+02 -0.22099199261E+02  0.47787268240E+02  0.19999987215E+02 0.  0.
        -12    1    1    2    0    0 -0.25328586163E+02  0.27453809066E+02  0.22099199261E+02  0.43400731760E+02  0.00000000000E+00 0.  1.
         11    1    3    3    0    0  0.16550267065E+02 -0.79404894377E+01 -0.13573024807E+02  0.22829579828E+02  0.51100000000E-03 0. -1.
        -11    1    3    3    0    0  0.86657082614E+01 -0.90050962027E+01 -0.21940818849E+01  0.12688587505E+02  0.51100000000E-03 0.  1.
        -12    1    3    3    0    0  0.11261083669E+00 -0.10508223426E+02 -0.63320925694E+01  0.12269100908E+02  0.00000000000E+00 0.  1.
</event>
<event>
 7    1  0.2294216E-010  0.4778727E+02  0.7816164E-02  0.1312668E+00
        -11   -1    0    0    0    0  0.00000000000E+00  0.00000000000E+00  0.45593999997E+02  0.45594000000E+02  0.51100000000E-03 0. -1.
         11   -1    0    0    0    0 -0.00000000000E+00 -0.00000000000E+00 -0.45593999997E+02  0.45594000000E+02  0.51100000000E-03 0.  1.
    9900012    2    1    2    0    0 -0.29470514250E+02  0.27139246827E+02 -0.16690517849E+02  0.47787270575E+02  0.19999997859E+02 0.  0.
        -12    1    1    2    0    0  0.29470514250E+02 -0.27139246827E+02  0.16690517849E+02  0.43400729425E+02  0.00000000000E+00 0.  1.
         11    1    3    3    0    0 -0.13912298339E+02  0.85243502552E+01 -0.18435911118E+01  0.16419970182E+02  0.51100000000E-03 0. -1.
        -11    1    3    3    0    0 -0.17934927906E+02  0.16857739620E+02 -0.12580279354E+02  0.27642511698E+02  0.51100000000E-03 0.  1.
        -12    1    3    3    0    0  0.23767119942E+01  0.17571569524E+01 -0.22666473833E+01  0.37247886946E+01  0.00000000000E+00 0.  1.
</event>
<event>
 7    1  0.2294216E-010  0.4778728E+02  0.7816164E-02  0.1312668E+00
        -11   -1    0    0    0    0  0.00000000000E+00  0.00000000000E+00  0.45593999997E+02  0.45594000000E+02  0.51100000000E-03 0.  1.
         11   -1    0    0    0    0 -0.00000000000E+00 -0.00000000000E+00 -0.45593999997E+02  0.45594000000E+02  0.51100000000E-03 0. -1.
    9900012    2    1    2    0    0  0.33729332527E+02  0.20756284648E+02 -0.17751947800E+02  0.47787275630E+02  0.20000020909E+02 0.  0.
        -12    1    1    2    0    0 -0.33729332527E+02 -0.20756284648E+02  0.17751947800E+02  0.43400724370E+02  0.00000000000E+00 0.  1.
         11    1    3    3    0    0  0.12942792636E+02  0.74015965875E+01 -0.11330020785E+02  0.18726155092E+02  0.51100000000E-03 0. -1.
        -11    1    3    3    0    0  0.19676056981E+02  0.11073483715E+02 -0.99846777641E+01  0.24687305447E+02  0.51100000000E-03 0.  1.
        -12    1    3    3    0    0  0.11104829099E+01  0.22812043452E+01  0.35627507491E+01  0.43738150919E+01  0.00000000000E+00 0.  1.
</event>
<event>
 7    1  0.2294216E-010  0.4778729E+02  0.7816164E-02  0.1312668E+00
        -11   -1    0    0    0    0  0.00000000000E+00  0.00000000000E+00  0.45593999997E+02  0.45594000000E+02  0.51100000000E-03 0.  1.
         11   -1    0    0    0    0 -0.00000000000E+00 -0.00000000000E+00 -0.45593999997E+02  0.45594000000E+02  0.51100000000E-03 0. -1.
    9900012    2    1    2    0    0 -0.14409666349E+02 -0.22317201489E+02 -0.34320917768E+02  0.47787293058E+02  0.20000100368E+02 0.  0.
        -12    1    1    2    0    0  0.14409666349E+02  0.22317201489E+02  0.34320917768E+02  0.43400706942E+02  0.00000000000E+00 0.  1.
         11    1    3    3    0    0 -0.89157287781E+01 -0.43509081778E+01 -0.14119980683E+02  0.17256722643E+02  0.51100000000E-03 0. -1.
        -11    1    3    3    0    0 -0.20457300440E+01 -0.93170783355E+00  0.15189124077E+01  0.27129662849E+01  0.51100000000E-03 0.  1.
        -12    1    3    3    0    0 -0.34482075274E+01 -0.17034585478E+02 -0.21719849493E+02  0.27817604130E+02  0.00000000000E+00 0.  1.
</event>
<event>
 7    1  0.2294216E-010  0.4778729E+02  0.7816164E-02  0.1312668E+00
        -11   -1    0    0    0    0  0.00000000000E+00  0.00000000000E+00  0.45593999997E+02  0.45594000000E+02  0.51100000000E-03 0. -1.
         11   -1    0    0    0    0 -0.00000000000E+00 -0.00000000000E+00 -0.45593999997E+02  0.45594000000E+02  0.51100000000E-03 0.  1.
    9900012    2    1    2    0    0 -0.22839808605E+02  0.24808698590E+02  0.27322029382E+02  0.47787289494E+02  0.20000084120E+02 0.  0.
        -12    1    1    2    0    0  0.22839808605E+02 -0.24808698590E+02 -0.27322029382E+02  0.43400710506E+02  0.00000000000E+00 0.  1.
         11    1    3    3    0    0 -0.27356327639E+01 -0.44326121139E+00  0.36369023585E+00  0.27950738755E+01  0.51100000000E-03 0. -1.
        -11    1    3    3    0    0 -0.43721188817E+01  0.11968224235E+02  0.24371750364E+01  0.12972803756E+02  0.51100000000E-03 0.  1.
         12    1    3    3    0    0 -0.15732056960E+02  0.13283735566E+02  0.24521164110E+02  0.32019411863E+02  0.00000000000E+00 0. -1.
</event>
<event>
 7    1  0.2294216E-010  0.4778727E+02  0.7816164E-02  0.1312668E+00
        -11   -1    0    0    0    0  0.00000000000E+00  0.00000000000E+00  0.45593999997E+02  0.45594000000E+02  0.51100000000E-03 0.  1.
         11   -1    0    0    0    0 -0.00000000000E+00 -0.00000000000E+00 -0.45593999997E+02  0.45594000000E+02  0.51100000000E-03 0. -1.
    9900012    2    1    2    0    0  0.21111655655E+02 -0.37273907891E+02  0.69697069841E+01  0.47787273861E+02  0.20000012840E+02 0.  0.
        -12    1    1    2    0    0 -0.21111655655E+02  0.37273907891E+02 -0.69697069841E+01  0.43400726139E+02  0.00000000000E+00 0.  1.
         11    1    3    3    0    0  0.18991263028E+02 -0.21112167073E+02 -0.90166741656E+00  0.28411347633E+02  0.51100000000E-03 0. -1.
        -11    1    3    3    0    0  0.10512243868E+01  0.21650124316E+00 -0.19001408812E+00  0.10899775752E+01  0.51100000000E-03 0.  1.
         12    1    3    3    0    0  0.10691682398E+01 -0.16378242062E+02  0.80613884887E+01  0.18285948652E+02  0.00000000000E+00 0. -1.
</event>
<event>
 7    1  0.2294216E-010  0.4778727E+02  0.7816164E-02  0.1312668E+00
        -11   -1    0    0    0    0  0.00000000000E+00  0.00000000000E+00  0.45593999997E+02  0.45594000000E+02  0.51100000000E-03 0. -1.
         11   -1    0    0    0    0 -0.00000000000E+00 -0.00000000000E+00 -0.45593999997E+02  0.45594000000E+02  0.51100000000E-03 0.  1.
    9900012    2    1    2    0    0 -0.23397901952E+02  0.31362113891E+02  0.18777095625E+02  0.47787270472E+02  0.19999997389E+02 0.  0.
        -12    1    1    2    0    0  0.23397901952E+02 -0.31362113891E+02 -0.18777095625E+02  0.43400729528E+02  0.00000000000E+00 0.  1.
         11    1    3    3    0    0 -0.55499901063E+00  0.74765744301E+00  0.26059038597E+01  0.27672641256E+01  0.51100000000E-03 0. -1.
        -11    1    3    3    0    0 -0.97025086593E+01  0.17114551307E+01  0.66007827524E+01  0.11859092973E+02  0.51100000000E-03 0.  1.
         12    1    3    3    0    0 -0.13140394282E+02  0.28903001317E+02  0.95704090131E+01  0.33160913373E+02  0.00000000000E+00 0. -1.
</event>
<event>
 7    1  0.2294216E-010  0.4778727E+02  0.7816164E-02  0.1312668E+00
        -11   -1    0    0    0    0  0.00000000000E+00  0.00000000000E+00  0.45593999997E+02  0.45594000000E+02  0.51100000000E-03 0. -1.
         11   -1    0    0    0    0 -0.00000000000E+00 -0.00000000000E+00 -0.45593999997E+02  0.45594000000E+02  0.51100000000E-03 0.  1.
    9900012    2    1    2    0    0 -0.25192014945E+02  0.34396421184E+01  0.35173208288E+02  0.47787270327E+02  0.19999996727E+02 0.  0.
        -12    1    1    2    0    0  0.25192014945E+02 -0.34396421184E+01 -0.35173208288E+02  0.43400729673E+02  0.00000000000E+00 0.  1.
         11    1    3    3    0    0 -0.55445296480E+00 -0.19927376161E+01 -0.82403984379E-01  0.20700753548E+01  0.51100000000E-03 0. -1.
        -11    1    3    3    0    0  0.35472258402E+00 -0.24052770434E+00  0.90600483291E+01  0.90701795834E+01  0.51100000000E-03 0.  1.
         12    1    3    3    0    0 -0.24992284564E+02  0.56729074389E+01  0.26195563943E+02  0.36647015388E+02  0.00000000000E+00 0. -1.
</event>
<event>
 7    1  0.2294216E-010  0.4778726E+02  0.7816164E-02  0.1312668E+00
        -11   -1    0    0    0    0  0.00000000000E+00  0.00000000000E+00  0.45593999997E+02  0.45594000000E+02  0.51100000000E-03 0.  1.
         11   -1    0    0    0    0 -0.00000000000E+00 -0.00000000000E+00 -0.45593999997E+02  0.45594000000E+02  0.51100000000E-03 0. -1.
    9900012    2    1    2    0    0  0.17541231054E+02  0.36131062180E+02 -0.16446148888E+02  0.47787259748E+02  0.19999948497E+02 0.  0.
        -12    1    1    2    0    0 -0.17541231054E+02 -0.36131062180E+02  0.16446148888E+02  0.43400740252E+02  0.00000000000E+00 0.  1.
         11    1    3    3    0    0  0.13530572670E+02  0.21653940159E+02 -0.13073304208E+02  0.28685899051E+02  0.51100000000E-03 0. -1.
        -11    1    3    3    0    0  0.78532687119E+01  0.80081994856E+01 -0.27690370394E+01  0.11553036607E+02  0.51100000000E-03 0.  1.
         12    1    3    3    0    0 -0.38426103282E+01  0.64689225354E+01 -0.60380764096E+00  0.75483240902E+01  0.00000000000E+00 0. -1.
</event>
<event>
 7    1  0.2294216E-010  0.4778728E+02  0.7816164E-02  0.1312668E+00
        -11   -1    0    0    0    0  0.00000000000E+00  0.00000000000E+00  0.45593999997E+02  0.45594000000E+02  0.51100000000E-03 0.  1.
         11   -1    0    0    0    0 -0.00000000000E+00 -0.00000000000E+00 -0.45593999997E+02  0.45594000000E+02  0.51100000000E-03 0. -1.
    9900012    2    1    2    0    0  0.35148813681E+02  0.14018169818E+02 -0.21252630580E+02  0.47787280020E+02  0.20000040923E+02 0.  0.
        -12    1    1    2    0    0 -0.35148813681E+02 -0.14018169818E+02  0.21252630580E+02  0.43400719980E+02  0.00000000000E+00 0.  1.
         11    1    3    3    0    0  0.19263806402E+02  0.96835932383E+01 -0.96252605727E+00  0.21582230464E+02  0.51100000000E-03 0. -1.
        -11    1    3    3    0    0  0.21302866719E+01  0.67699578281E-01 -0.33520865392E+01  0.39723027283E+01  0.51100000000E-03 0.  1.
         12    1    3    3    0    0  0.13754720607E+02  0.42668770011E+01 -0.16938017983E+02  0.22232746828E+02  0.00000000000E+00 0. -1.
</event>
<event>
 7    1  0.2294216E-010  0.4778727E+02  0.7816164E-02  0.1312668E+00
        -11   -1    0    0    0    0  0.00000000000E+00  0.00000000000E+00  0.45593999997E+02  0.45594000000E+02  0.51100000000E-03 0.  1.
         11   -1    0    0    0    0 -0.00000000000E+00 -0.00000000000E+00 -0.45593999997E+02  0.45594000000E+02  0.51100000000E-03 0. -1.
    9900012    2    1    2    0    0 -0.32359888788E+02 -0.27878681520E+02 -0.76967498598E+01  0.47787271388E+02  0.20000001566E+02 0.  0.
        -12    1    1    2    0    0  0.32359888788E+02  0.27878681520E+02  0.76967498598E+01  0.43400728612E+02  0.00000000000E+00 0.  1.
         11    1    3    3    0    0 -0.23433317909E+01 -0.66434720081E+01  0.17787738303E+01  0.72657388341E+01  0.51100000000E-03 0.  1.
        -11    1    3    3    0    0 -0.23376406447E+02 -0.21287060470E+02 -0.39099211214E+01  0.31857225323E+02  0.51100000000E-03 0. -1.
         12    1    3    3    0    0 -0.66401505496E+01  0.51850957518E-01 -0.55656025687E+01  0.86643072311E+01  0.00000000000E+00 0. -1.
</event>
<event>
 7    1  0.2294216E-010  0.4778728E+02  0.7816164E-02  0.1312668E+00
        -11   -1    0    0    0    0  0.00000000000E+00  0.00000000000E+00  0.45593999997E+02  0.45594000000E+02  0.51100000000E-03 0. -1.
         11   -1    0    0    0    0 -0.00000000000E+00 -0.00000000000E+00 -0.45593999997E+02  0.45594000000E+02  0.51100000000E-03 0.  1.
    9900012    2    1    2    0    0  0.19280150235E+02 -0.27144987433E+02  0.27839683490E+02  0.47787279814E+02  0.20000039985E+02 0.  0.
        -12    1    1    2    0    0 -0.19280150235E+02  0.27144987433E+02 -0.27839683490E+02  0.43400720186E+02  0.00000000000E+00 0.  1.
         11    1    3    3    0    0  0.94484017008E+01 -0.20416013564E+02  0.19472782166E+02  0.29753573736E+02  0.51100000000E-03 0.  1.
        -11    1    3    3    0    0  0.33212293853E+01 -0.81394212895E+01  0.69902468287E+01  0.11231397711E+02  0.51100000000E-03 0. -1.
        -12    1    3    3    0    0  0.65105191493E+01  0.14104474205E+01  0.13766544957E+01  0.68023083670E+01  0.00000000000E+00 0.  1.
</event>
<event>
 7    1  0.2294216E-010  0.4778727E+02  0.7816164E-02  0.1312668E+00
        -11   -1    0    0    0    0  0.00000000000E+00  0.00000000000E+00  0.45593999997E+02  0.45594000000E+02  0.51100000000E-03 0.  1.
         11   -1    0    0    0    0 -0.00000000000E+00 -0.00000000000E+00 -0.45593999997E+02  0.45594000000E+02  0.51100000000E-03 0. -1.
    9900012    2    1    2    0    0  0.88186129555E+01 -0.11685486695E+01 -0.42479284707E+02  0.47787273397E+02  0.20000010727E+02 0.  0.
        -12    1    1    2    0    0 -0.88186129555E+01  0.11685486695E+01  0.42479284707E+02  0.43400726603E+02  0.00000000000E+00 0.  1.
         11    1    3    3    0    0  0.26301539547E+01  0.15778877081E+01  0.18099679974E+00  0.30724907725E+01  0.51100000000E-03 0.  1.
        -11    1    3    3    0    0  0.76161879317E+01 -0.18293498706E+01 -0.14307487759E+02  0.16311255187E+02  0.51100000000E-03 0. -1.
        -12    1    3    3    0    0 -0.14277289309E+01 -0.91708650696E+00 -0.28352793748E+02  0.28403527437E+02  0.00000000000E+00 0.  1.
</event>
<event>
 7    1  0.2294216E-010  0.4778727E+02  0.7816164E-02  0.1312668E+00
        -11   -1    0    0    0    0  0.00000000000E+00  0.00000000000E+00  0.45593999997E+02  0.45594000000E+02  0.51100000000E-03 0.  1.
         11   -1    0    0    0    0 -0.00000000000E+00 -0.00000000000E+00 -0.45593999997E+02  0.45594000000E+02  0.51100000000E-03 0. -1.
    9900012    2    1    2    0    0  0.23780480960E+02  0.28436404790E+02 -0.22571721484E+02  0.47787274167E+02  0.20000014237E+02 0.  0.
        -12    1    1    2    0    0 -0.23780480960E+02 -0.28436404790E+02  0.22571721484E+02  0.43400725833E+02  0.00000000000E+00 0.  1.
         11    1    3    3    0    0  0.14371297985E+02  0.20065396685E+02 -0.14591217860E+02  0.28671553652E+02  0.51100000000E-03 0. -1.
        -11    1    3    3    0    0  0.11570393435E+02  0.36144548620E+01 -0.60317912336E+01  0.13539600952E+02  0.51100000000E-03 0.  1.
        -12    1    3    3    0    0 -0.21612104597E+01  0.47565532428E+01 -0.19487123905E+01  0.55761195632E+01  0.00000000000E+00 0.  1.
</event>
<event>
 7    1  0.2294216E-010  0.4778728E+02  0.7816164E-02  0.1312668E+00
        -11   -1    0    0    0    0  0.00000000000E+00  0.00000000000E+00  0.45593999997E+02  0.45594000000E+02  0.51100000000E-03 0. -1.
         11   -1    0    0    0    0 -0.00000000000E+00 -0.00000000000E+00 -0.45593999997E+02  0.45594000000E+02  0.51100000000E-03 0.  1.
    9900012    2    1    2    0    0  0.37123595862E+02  0.12999943883E+02  0.18342917195E+02  0.47787279707E+02  0.20000039498E+02 0.  0.
        -12    1    1    2    0    0 -0.37123595862E+02 -0.12999943883E+02 -0.18342917195E+02  0.43400720293E+02  0.00000000000E+00 0.  1.
         11    1    3    3    0    0 -0.41708626381E+00 -0.10071859196E+01  0.10280587938E+01  0.14984290349E+01  0.51100000000E-03 0. -1.
        -11    1    3    3    0    0  0.18578953381E+02  0.14696794032E+02  0.70497513768E+01  0.24715830116E+02  0.51100000000E-03 0.  1.
         12    1    3    3    0    0  0.18961728745E+02 -0.68966422924E+00  0.10265107024E+02  0.21573020557E+02  0.00000000000E+00 0. -1.
</event>
<event>
 7    1  0.2294216E-010  0.4778727E+02  0.7816164E-02  0.1312668E+00
        -11   -1    0    0    0    0  0.00000000000E+00  0.00000000000E+00  0.45593999997E+02  0.45594000000E+02  0.51100000000E-03 0. -1.
         11   -1    0    0    0    0 -0.00000000000E+00 -0.00000000000E+00 -0.45593999997E+02  0.45594000000E+02  0.51100000000E-03 0.  1.
    9900012    2    1    2    0    0  0.19078108373E+01 -0.39521826283E+02  0.17832802028E+02  0.47787270477E+02  0.19999997414E+02 0.  0.
        -12    1    1    2    0    0 -0.19078108373E+01  0.39521826283E+02 -0.17832802028E+02  0.43400729523E+02  0.00000000000E+00 0.  1.
         11    1    3    3    0    0 -0.14360341454E-01 -0.15915127738E+01  0.31525192517E+01  0.35315006757E+01  0.51100000000E-03 0. -1.
        -11    1    3    3    0    0  0.58953758110E+01 -0.61640295101E+01 -0.10363335239E+01  0.85921303056E+01  0.51100000000E-03 0.  1.
        -12    1    3    3    0    0 -0.39732046323E+01 -0.31766283999E+02  0.15716616300E+02  0.35663639496E+02  0.00000000000E+00 0.  1.
</event>
<event>
 7    1  0.2294216E-010  0.4778727E+02  0.7816164E-02  0.1312668E+00
        -11   -1    0    0    0    0  0.00000000000E+00  0.00000000000E+00  0.45593999997E+02  0.45594000000E+02  0.51100000000E-03 0.  1.
         11   -1    0    0    0    0 -0.00000000000E+00 -0.00000000000E+00 -0.45593999997E+02  0.45594000000E+02  0.51100000000E-03 0. -1.
    9900012    2    1    2    0    0  0.24004780220E+02  0.35727301432E+02 -0.55635954379E+01  0.47787272641E+02  0.20000007281E+02 0.  0.
        -12    1    1    2    0    0 -0.24004780220E+02 -0.35727301432E+02  0.55635954379E+01  0.43400727359E+02  0.00000000000E+00 0.  1.
         11    1    3    3    0    0  0.15005807041E+02  0.26808670004E+02 -0.84905497456E+01  0.31874260267E+02  0.51100000000E-03 0. -1.
        -11    1    3    3    0    0  0.57216968051E+01  0.91792600929E+01 -0.91653296317E+00  0.10855259698E+02  0.51100000000E-03 0.  1.
        -12    1    3    3    0    0  0.32772763747E+01 -0.26062866414E+00  0.38434872708E+01  0.50577526766E+01  0.00000000000E+00 0.  1.
</event>
<event>
 7    1  0.2294216E-010  0.4778728E+02  0.7816164E-02  0.1312668E+00
        -11   -1    0    0    0    0  0.00000000000E+00  0.00000000000E+00  0.45593999997E+02  0.45594000000E+02  0.51100000000E-03 0. -1.
         11   -1    0    0    0    0 -0.00000000000E+00 -0.00000000000E+00 -0.45593999997E+02  0.45594000000E+02  0.51100000000E-03 0.  1.
    9900012    2    1    2    0    0  0.39275858933E+01 -0.34338051361E+02 -0.26250621124E+02  0.47787276370E+02  0.20000024280E+02 0.  0.
        -12    1    1    2    0    0 -0.39275858933E+01  0.34338051361E+02  0.26250621124E+02  0.43400723630E+02  0.00000000000E+00 0.  1.
         11    1    3    3    0    0  0.13960176833E+01 -0.42274199347E+00  0.21366474811E+01  0.25870521612E+01  0.51100000000E-03 0. -1.
        -11    1    3    3    0    0  0.20316698904E+01 -0.28677999985E+01 -0.58772720285E+01  0.68479402840E+01  0.51100000000E-03 0.  1.
        -12    1    3    3    0    0  0.49989831952E+00 -0.31047509369E+02 -0.22509996577E+02  0.38352283925E+02  0.00000000000E+00 0.  1.
</event>
<event>
 7    1  0.2294216E-010  0.4778727E+02  0.7816164E-02  0.1312668E+00
        -11   -1    0    0    0    0  0.00000000000E+00  0.00000000000E+00  0.45593999997E+02  0.45594000000E+02  0.51100000000E-03 0. -1.
         11   -1    0    0    0    0 -0.00000000000E+00 -0.00000000000E+00 -0.45593999997E+02  0.45594000000E+02  0.51100000000E-03 0.  1.
    9900012    2    1    2    0    0 -0.27894500943E+02  0.33041747009E+02  0.37098290114E+01  0.47787273513E+02  0.20000011255E+02 0.  0.
        -12    1    1    2    0    0  0.27894500943E+02 -0.33041747009E+02 -0.37098290114E+01  0.43400726487E+02  0.00000000000E+00 0.  1.
         11    1    3    3    0    0 -0.11503732217E+02  0.16012018227E+02 -0.17011349560E+01  0.19789250694E+02  0.51100000000E-03 0. -1.
        -11    1    3    3    0    0 -0.58893404840E+01  0.91393745637E+01 -0.42695842562E+01  0.11680832536E+02  0.51100000000E-03 0.  1.
         12    1    3    3    0    0 -0.10501428242E+02  0.78903542187E+01  0.96805482236E+01  0.16317190283E+02  0.00000000000E+00 0. -1.
</event>
<event>
 7    1  0.2294216E-010  0.4778728E+02  0.7816164E-02  0.1312668E+00
        -11   -1    0    0    0    0  0.00000000000E+00  0.00000000000E+00  0.45593999997E+02  0.45594000000E+02  0.51100000000E-03 0.  1.
         11   -1    0    0    0    0 -0.00000000000E+00 -0.00000000000E+00 -0.45593999997E+02  0.45594000000E+02  0.51100000000E-03 0. -1.
    9900012    2    1    2    0    0  0.22134228500E+02  0.33809767896E+02 -0.15830290412E+02  0.47787279142E+02  0.20000036918E+02 0.  0.
        -12    1    1    2    0    0 -0.22134228500E+02 -0.33809767896E+02  0.15830290412E+02  0.43400720858E+02  0.00000000000E+00 0.  1.
         11    1    3    3    0    0  0.12279813702E+02  0.12435558576E+02 -0.65168757737E+01  0.18652254871E+02  0.51100000000E-03 0. -1.
        -11    1    3    3    0    0  0.62823775688E+01  0.70940100019E+01  0.30045610144E+01  0.99408567526E+01  0.51100000000E-03 0.  1.
         12    1    3    3    0    0  0.35720372293E+01  0.14280199319E+02 -0.12317975652E+02  0.19194167518E+02  0.00000000000E+00 0. -1.
</event>
<event>
 7    1  0.2294216E-010  0.4778732E+02  0.7816164E-02  0.1312668E+00
        -11   -1    0    0    0    0  0.00000000000E+00  0.00000000000E+00  0.45593999997E+02  0.45594000000E+02  0.51100000000E-03 0.  1.
         11   -1    0    0    0    0 -0.00000000000E+00 -0.00000000000E+00 -0.45593999997E+02  0.45594000000E+02  0.51100000000E-03 0. -1.
    9900012    2    1    2    0    0  0.37334209108E+02  0.19869602560E+02 -0.97455083485E+01  0.47787317879E+02  0.20000213536E+02 0.  0.
        -12    1    1    2    0    0 -0.37334209108E+02 -0.19869602560E+02  0.97455083485E+01  0.43400682121E+02  0.00000000000E+00 0.  1.
         11    1    3    3    0    0  0.28686140943E+01  0.20650273409E+01 -0.36878157129E+01  0.51081571760E+01  0.51100000000E-03 0. -1.
        -11    1    3    3    0    0  0.24641703825E+02  0.20380330680E+02 -0.32509153640E+01  0.32142493634E+02  0.51100000000E-03 0.  1.
        -12    1    3    3    0    0  0.98238911885E+01 -0.25757554608E+01 -0.28067772716E+01  0.10536667069E+02  0.00000000000E+00 0.  1.
</event>
<event>
 7    1  0.2294216E-010  0.4778727E+02  0.7816164E-02  0.1312668E+00
        -11   -1    0    0    0    0  0.00000000000E+00  0.00000000000E+00  0.45593999997E+02  0.45594000000E+02  0.51100000000E-03 0. -1.
         11   -1    0    0    0    0 -0.00000000000E+00 -0.00000000000E+00 -0.45593999997E+02  0.45594000000E+02  0.51100000000E-03 0.  1.
    9900012    2    1    2    0    0 -0.12137230263E+01 -0.41248841410E+02  0.13441844316E+02  0.47787271667E+02  0.20000002838E+02 0.  0.
        -12    1    1    2    0    0  0.12137230263E+01  0.41248841410E+02 -0.13441844316E+02  0.43400728333E+02  0.00000000000E+00 0.  1.
         11    1    3    3    0    0  0.21517839919E+01 -0.11730447853E+02  0.76771120042E+01  0.14183498517E+02  0.51100000000E-03 0. -1.
        -11    1    3    3    0    0  0.41347261515E+01 -0.20606362241E+02  0.10673168099E+01  0.21044174742E+02  0.51100000000E-03 0.  1.
        -12    1    3    3    0    0 -0.75002331697E+01 -0.89120313160E+01  0.46974155017E+01  0.12559598408E+02  0.00000000000E+00 0.  1.
</event>
<event>
 7    1  0.2294216E-010  0.4778727E+02  0.7816164E-02  0.1312668E+00
        -11   -1    0    0    0    0  0.00000000000E+00  0.00000000000E+00  0.45593999997E+02  0.45594000000E+02  0.51100000000E-03 0.  1.
         11   -1    0    0    0    0 -0.00000000000E+00 -0.00000000000E+00 -0.45593999997E+02  0.45594000000E+02  0.51100000000E-03 0. -1.
    9900012    2    1    2    0    0 -0.17056484249E+02  0.12272396490E+02 -0.37974831829E+02  0.47787271631E+02  0.20000002672E+02 0.  0.
        -12    1    1    2    0    0  0.17056484249E+02 -0.12272396490E+02  0.37974831829E+02  0.43400728369E+02  0.00000000000E+00 0.  1.
         11    1    3    3    0    0 -0.11262783373E+01  0.31246893202E+00  0.62064262088E+00  0.13233809922E+01  0.51100000000E-03 0. -1.
        -11    1    3    3    0    0  0.27245898428E+01  0.54614924953E+01 -0.84983279342E+01  0.10462928272E+02  0.51100000000E-03 0.  1.
         12    1    3    3    0    0 -0.18654795754E+02  0.64984350631E+01 -0.30097146516E+02  0.36000962366E+02  0.00000000000E+00 0. -1.
</event>
<event>
 7    1  0.2294216E-010  0.4778727E+02  0.7816164E-02  0.1312668E+00
        -11   -1    0    0    0    0  0.00000000000E+00  0.00000000000E+00  0.45593999997E+02  0.45594000000E+02  0.51100000000E-03 0. -1.
         11   -1    0    0    0    0 -0.00000000000E+00 -0.00000000000E+00 -0.45593999997E+02  0.45594000000E+02  0.51100000000E-03 0.  1.
    9900012    2    1    2    0    0  0.12939434890E+02  0.38132922906E+02  0.16188719538E+02  0.47787269304E+02  0.19999992066E+02 0.  0.
        -12    1    1    2    0    0 -0.12939434890E+02 -0.38132922906E+02 -0.16188719538E+02  0.43400730696E+02  0.00000000000E+00 0.  1.
         11    1    3    3    0    0  0.78147082287E+01  0.61437211751E+01  0.10408312339E+01  0.99949139314E+01  0.51100000000E-03 0. -1.
        -11    1    3    3    0    0  0.51578149002E+00  0.47956483251E+01 -0.21015129539E+01  0.52612384816E+01  0.51100000000E-03 0.  1.
         12    1    3    3    0    0  0.46089451717E+01  0.27193553406E+02  0.17249401258E+02  0.32531116891E+02  0.00000000000E+00 0. -1.
</event>
<event>
 7    1  0.2294216E-010  0.4778727E+02  0.7816164E-02  0.1312668E+00
        -11   -1    0    0    0    0  0.00000000000E+00  0.00000000000E+00  0.45593999997E+02  0.45594000000E+02  0.51100000000E-03 0. -1.
         11   -1    0    0    0    0 -0.00000000000E+00 -0.00000000000E+00 -0.45593999997E+02  0.45594000000E+02  0.51100000000E-03 0.  1.
    9900012    2    1    2    0    0 -0.28183674672E+02 -0.32011746916E+02  0.80344126633E+01  0.47787271372E+02  0.20000001492E+02 0.  0.
        -12    1    1    2    0    0  0.28183674672E+02  0.32011746916E+02 -0.80344126633E+01  0.43400728628E+02  0.00000000000E+00 0.  1.
         11    1    3    3    0    0 -0.11400664940E+02 -0.10958560094E+02  0.72287884098E+01  0.17387368476E+02  0.51100000000E-03 0. -1.
        -11    1    3    3    0    0 -0.54399300934E+01 -0.13056922739E+02  0.62861022014E+01  0.15478732247E+02  0.51100000000E-03 0.  1.
        -12    1    3    3    0    0 -0.11343079638E+02 -0.79962640838E+01 -0.54804779479E+01  0.14921170648E+02  0.00000000000E+00 0.  1.
</event>
<event>
 7    1  0.2294216E-010  0.4778727E+02  0.7816164E-02  0.1312668E+00
        -11   -1    0    0    0    0  0.00000000000E+00  0.00000000000E+00  0.45593999997E+02  0.45594000000E+02  0.51100000000E-03 0. -1.
         11   -1    0    0    0    0 -0.00000000000E+00 -0.00000000000E+00 -0.45593999997E+02  0.45594000000E+02  0.51100000000E-03 0.  1.
    9900012    2    1    2    0    0 -0.30147501162E+02 -0.23317007251E+01  0.31133818111E+02  0.47787270919E+02  0.19999999430E+02 0.  0.
        -12    1    1    2    0    0  0.30147501162E+02  0.23317007251E+01 -0.31133818111E+02  0.43400729081E+02  0.00000000000E+00 0.  1.
         11    1    3    3    0    0  0.16489836476E+01  0.34983253836E-01  0.62412781320E+00  0.17634927520E+01  0.51100000000E-03 0. -1.
        -11    1    3    3    0    0 -0.11915358707E+02  0.22501361210E+01  0.44364964326E+01  0.12912063605E+02  0.51100000000E-03 0.  1.
         12    1    3    3    0    0 -0.19881126102E+02 -0.46168201000E+01  0.26073193865E+02  0.33111714562E+02  0.00000000000E+00 0. -1.
</event>
<event>
 7    1  0.2294216E-010  0.4778727E+02  0.7816164E-02  0.1312668E+00
        -11   -1    0    0    0    0  0.00000000000E+00  0.00000000000E+00  0.45593999997E+02  0.45594000000E+02  0.51100000000E-03 0.  1.
         11   -1    0    0    0    0 -0.00000000000E+00 -0.00000000000E+00 -0.45593999997E+02  0.45594000000E+02  0.51100000000E-03 0. -1.
    9900012    2    1    2    0    0 -0.17916492036E+02 -0.36980962742E+02 -0.13965351686E+02  0.47787270283E+02  0.19999996530E+02 0.  0.
        -12    1    1    2    0    0  0.17916492036E+02  0.36980962742E+02  0.13965351686E+02  0.43400729717E+02  0.00000000000E+00 0.  1.
         11    1    3    3    0    0 -0.18583311312E+01 -0.25429573886E+01 -0.39040746545E+01  0.50161565010E+01  0.51100000000E-03 0. -1.
        -11    1    3    3    0    0 -0.59492133031E+01 -0.28938296344E+02 -0.41500279060E+01  0.29833552690E+02  0.51100000000E-03 0.  1.
        -12    1    3    3    0    0 -0.10108947602E+02 -0.54997090099E+01 -0.59112491252E+01  0.12937561093E+02  0.00000000000E+00 0.  1.
</event>
<event>
 7    1  0.2294216E-010  0.4778727E+02  0.7816164E-02  0.1312668E+00
        -11   -1    0    0    0    0  0.00000000000E+00  0.00000000000E+00  0.45593999997E+02  0.45594000000E+02  0.51100000000E-03 0. -1.
         11   -1    0    0    0    0 -0.00000000000E+00 -0.00000000000E+00 -0.45593999997E+02  0.45594000000E+02  0.51100000000E-03 0.  1.
    9900012    2    1    2    0    0 -0.29650508591E+02 -0.12372201011E+02  0.29178746260E+02  0.47787271310E+02  0.20000001209E+02 0.  0.
        -12    1    1    2    0    0  0.29650508591E+02  0.12372201011E+02 -0.29178746260E+02  0.43400728690E+02  0.00000000000E+00 0.  1.
         11    1    3    3    0    0 -0.15847939766E+02 -0.15322714026E+02  0.15221841644E+02  0.26788938449E+02  0.51100000000E-03 0. -1.
        -11    1    3    3    0    0 -0.40190492684E+01 -0.19407215631E+01  0.23286210273E+01  0.50340474131E+01  0.51100000000E-03 0.  1.
        -12    1    3    3    0    0 -0.97835195570E+01  0.48912345783E+01  0.11628283589E+02  0.15964285447E+02  0.00000000000E+00 0.  1.
</event>
<event>
 7    1  0.2294216E-010  0.4778727E+02  0.7816164E-02  0.1312668E+00
        -11   -1    0    0    0    0  0.00000000000E+00  0.00000000000E+00  0.45593999997E+02  0.45594000000E+02  0.51100000000E-03 0. -1.
         11   -1    0    0    0    0 -0.00000000000E+00 -0.00000000000E+00 -0.45593999997E+02  0.45594000000E+02  0.51100000000E-03 0.  1.
    9900012    2    1    2    0    0  0.34354069500E+01 -0.43028298397E+02 -0.45151597716E+01  0.47787272453E+02  0.20000006423E+02 0.  0.
        -12    1    1    2    0    0 -0.34354069500E+01  0.43028298397E+02  0.45151597716E+01  0.43400727547E+02  0.00000000000E+00 0.  1.
         11    1    3    3    0    0  0.16030525080E+01 -0.19852746899E+01  0.25246138621E+01  0.35895359521E+01  0.51100000000E-03 0.  1.
        -11    1    3    3    0    0  0.17216855286E+01 -0.41368719129E+02 -0.88628637301E+01  0.42342478402E+02  0.51100000000E-03 0. -1.
         12    1    3    3    0    0  0.11066891347E+00  0.32569542200E+00  0.18230900964E+01  0.18552580996E+01  0.00000000000E+00 0. -1.
</event>
<event>
 7    1  0.2294216E-010  0.4778728E+02  0.7816164E-02  0.1312668E+00
        -11   -1    0    0    0    0  0.00000000000E+00  0.00000000000E+00  0.45593999997E+02  0.45594000000E+02  0.51100000000E-03 0. -1.
         11   -1    0    0    0    0 -0.00000000000E+00 -0.00000000000E+00 -0.45593999997E+02  0.45594000000E+02  0.51100000000E-03 0.  1.
    9900012    2    1    2    0    0  0.28368274558E+02 -0.28002479322E+02 -0.17167551694E+02  0.47787277878E+02  0.20000031155E+02 0.  0.
        -12    1    1    2    0    0 -0.28368274558E+02  0.28002479322E+02  0.17167551694E+02  0.43400722122E+02  0.00000000000E+00 0.  1.
         11    1    3    3    0    0  0.49914638803E+00 -0.19642759709E+00 -0.20128656029E+01  0.20831128424E+01  0.51100000000E-03 0. -1.
        -11    1    3    3    0    0  0.13970462134E+02 -0.38028066432E+01 -0.97230723835E+01  0.17440564424E+02  0.51100000000E-03 0.  1.
         12    1    3    3    0    0  0.13898666036E+02 -0.24003245082E+02 -0.54316137074E+01  0.28263600611E+02  0.00000000000E+00 0. -1.
</event>
<event>
 7    1  0.2294216E-010  0.4778727E+02  0.7816164E-02  0.1312668E+00
        -11   -1    0    0    0    0  0.00000000000E+00  0.00000000000E+00  0.45593999997E+02  0.45594000000E+02  0.51100000000E-03 0.  1.
         11   -1    0    0    0    0 -0.00000000000E+00 -0.00000000000E+00 -0.45593999997E+02  0.45594000000E+02  0.51100000000E-03 0. -1.
    9900012    2    1    2    0    0 -0.12110125749E+02  0.22211362792E+02 -0.35265049437E+02  0.47787268503E+02  0.19999988410E+02 0.  0.
        -12    1    1    2    0    0  0.12110125749E+02 -0.22211362792E+02  0.35265049437E+02  0.43400731497E+02  0.00000000000E+00 0.  1.
         11    1    3    3    0    0 -0.25848439991E+01  0.14684799025E+02 -0.22867964812E+02  0.27299607247E+02  0.51100000000E-03 0. -1.
        -11    1    3    3    0    0 -0.18314408669E+01  0.76568412868E+01 -0.93203291236E+01  0.12200406935E+02  0.51100000000E-03 0.  1.
        -12    1    3    3    0    0 -0.76938408834E+01 -0.13027751987E+00 -0.30767555009E+01  0.82872543211E+01  0.00000000000E+00 0.  1.
</event>
<event>
 7    1  0.2294216E-010  0.4778729E+02  0.7816164E-02  0.1312668E+00
        -11   -1    0    0    0    0  0.00000000000E+00  0.00000000000E+00  0.45593999997E+02  0.45594000000E+02  0.51100000000E-03 0.  1.
         11   -1    0    0    0    0 -0.00000000000E+00 -0.00000000000E+00 -0.45593999997E+02  0.45594000000E+02  0.51100000000E-03 0. -1.
    9900012    2    1    2    0    0  0.52456440974E+00 -0.11413429636E+02 -0.41869798328E+02  0.47787290836E+02  0.20000090237E+02 0.  0.
        -12    1    1    2    0    0 -0.52456440974E+00  0.11413429636E+02  0.41869798328E+02  0.43400709164E+02  0.00000000000E+00 0.  1.
         11    1    3    3    0    0 -0.27441913732E+01 -0.15855464098E+02 -0.29885233090E+02  0.33941913399E+02  0.51100000000E-03 0. -1.
        -11    1    3    3    0    0  0.75503728022E+00  0.68397750836E+00 -0.71649394450E+01  0.72370065661E+01  0.51100000000E-03 0.  1.
        -12    1    3    3    0    0  0.25137185027E+01  0.37580569538E+01 -0.48196257936E+01  0.66083708710E+01  0.00000000000E+00 0.  1.
</event>
<event>
 7    1  0.2294216E-010  0.4778726E+02  0.7816164E-02  0.1312668E+00
        -11   -1    0    0    0    0  0.00000000000E+00  0.00000000000E+00  0.45593999997E+02  0.45594000000E+02  0.51100000000E-03 0.  1.
         11   -1    0    0    0    0 -0.00000000000E+00 -0.00000000000E+00 -0.45593999997E+02  0.45594000000E+02  0.51100000000E-03 0. -1.
    9900012    2    1    2    0    0  0.69658711721E+01 -0.15112159014E+02 -0.40083954767E+02  0.47787261054E+02  0.19999954452E+02 0.  0.
        -12    1    1    2    0    0 -0.69658711721E+01  0.15112159014E+02  0.40083954767E+02  0.43400738946E+02  0.00000000000E+00 0.  1.
         11    1    3    3    0    0  0.86476126369E+01 -0.14729501841E+01 -0.17598914314E+02  0.19663991758E+02  0.51100000000E-03 0. -1.
        -11    1    3    3    0    0  0.95908133000E+00 -0.25839225029E+01  0.18604425947E+00  0.27624455155E+01  0.51100000000E-03 0.  1.
         12    1    3    3    0    0 -0.26408227948E+01 -0.11055286327E+02 -0.22671084712E+02  0.25360823781E+02  0.00000000000E+00 0. -1.
</event>
<event>
 7    1  0.2294216E-010  0.4778727E+02  0.7816164E-02  0.1312668E+00
        -11   -1    0    0    0    0  0.00000000000E+00  0.00000000000E+00  0.45593999997E+02  0.45594000000E+02  0.51100000000E-03 0. -1.
         11   -1    0    0    0    0 -0.00000000000E+00 -0.00000000000E+00 -0.45593999997E+02  0.45594000000E+02  0.51100000000E-03 0.  1.
    9900012    2    1    2    0    0 -0.16921087269E+02 -0.33027434675E+02  0.22505300919E+02  0.47787271838E+02  0.20000003616E+02 0.  0.
        -12    1    1    2    0    0  0.16921087269E+02  0.33027434675E+02 -0.22505300919E+02  0.43400728162E+02  0.00000000000E+00 0.  1.
         11    1    3    3    0    0 -0.16955311717E+01 -0.16639071706E+02  0.49241188715E+01  0.17435035994E+02  0.51100000000E-03 0. -1.
        -11    1    3    3    0    0 -0.12846050733E+01  0.50047619387E-02 -0.12235658937E+01  0.17740769429E+01  0.51100000000E-03 0.  1.
         12    1    3    3    0    0 -0.13940951024E+02 -0.16393367731E+02  0.18804747941E+02  0.28578158900E+02  0.00000000000E+00 0. -1.
</event>
<event>
 7    1  0.2294216E-010  0.4778732E+02  0.7816164E-02  0.1312668E+00
        -11   -1    0    0    0    0  0.00000000000E+00  0.00000000000E+00  0.45593999997E+02  0.45594000000E+02  0.51100000000E-03 0. -1.
         11   -1    0    0    0    0 -0.00000000000E+00 -0.00000000000E+00 -0.45593999997E+02  0.45594000000E+02  0.51100000000E-03 0.  1.
    9900012    2    1    2    0    0  0.52928286644E+00 -0.42698533048E+02 -0.77572137665E+01  0.47787317629E+02  0.20000212397E+02 0.  0.
        -12    1    1    2    0    0 -0.52928286644E+00  0.42698533048E+02  0.77572137665E+01  0.43400682371E+02  0.00000000000E+00 0.  1.
         11    1    3    3    0    0 -0.11529670677E+01  0.10362713720E+00  0.20316381180E+01  0.23382953933E+01  0.51100000000E-03 0. -1.
        -11    1    3    3    0    0  0.27052712132E+01 -0.44207808008E+01 -0.41553062149E+01  0.66429184269E+01  0.51100000000E-03 0.  1.
         12    1    3    3    0    0 -0.10230212791E+01 -0.38381379385E+02 -0.56335456696E+01  0.38806103809E+02  0.00000000000E+00 0. -1.
</event>
<event>
 7    1  0.2294216E-010  0.4778727E+02  0.7816164E-02  0.1312668E+00
        -11   -1    0    0    0    0  0.00000000000E+00  0.00000000000E+00  0.45593999997E+02  0.45594000000E+02  0.51100000000E-03 0.  1.
         11   -1    0    0    0    0 -0.00000000000E+00 -0.00000000000E+00 -0.45593999997E+02  0.45594000000E+02  0.51100000000E-03 0. -1.
    9900012    2    1    2    0    0 -0.16631025071E+02 -0.36746732808E+02 -0.16022173834E+02  0.47787269346E+02  0.19999992255E+02 0.  0.
        -12    1    1    2    0    0  0.16631025071E+02  0.36746732808E+02  0.16022173834E+02  0.43400730654E+02  0.00000000000E+00 0.  1.
         11    1    3    3    0    0 -0.10921720495E+02 -0.17424759395E+02 -0.14174272086E+02  0.24976312938E+02  0.51100000000E-03 0. -1.
        -11    1    3    3    0    0  0.16201068416E+01 -0.92239675712E+01 -0.39381736368E+01  0.10159504702E+02  0.51100000000E-03 0.  1.
        -12    1    3    3    0    0 -0.73294114176E+01 -0.10098005842E+02  0.20902718881E+01  0.12651451706E+02  0.00000000000E+00 0.  1.
</event>
<event>
 7    1  0.2294216E-010  0.4778727E+02  0.7816164E-02  0.1312668E+00
        -11   -1    0    0    0    0  0.00000000000E+00  0.00000000000E+00  0.45593999997E+02  0.45594000000E+02  0.51100000000E-03 0.  1.
         11   -1    0    0    0    0 -0.00000000000E+00 -0.00000000000E+00 -0.45593999997E+02  0.45594000000E+02  0.51100000000E-03 0. -1.
    9900012    2    1    2    0    0 -0.31155684158E+02 -0.29414394485E+02  0.69094298747E+01  0.47787268675E+02  0.19999989198E+02 0.  0.
        -12    1    1    2    0    0  0.31155684158E+02  0.29414394485E+02 -0.69094298747E+01  0.43400731325E+02  0.00000000000E+00 0.  1.
         11    1    3    3    0    0 -0.23753169294E+02 -0.13792534168E+02  0.46994083871E+01  0.27866314606E+02  0.51100000000E-03 0. -1.
        -11    1    3    3    0    0 -0.66076671293E+01 -0.32083559674E+01  0.46335395646E+00  0.73599938896E+01  0.51100000000E-03 0.  1.
        -12    1    3    3    0    0 -0.79484773549E+00 -0.12413504350E+02  0.17466675311E+01  0.12560960180E+02  0.00000000000E+00 0.  1.
</event>
<event>
 7    1  0.2294216E-010  0.4778727E+02  0.7816164E-02  0.1312668E+00
        -11   -1    0    0    0    0  0.00000000000E+00  0.00000000000E+00  0.45593999997E+02  0.45594000000E+02  0.51100000000E-03 0.  1.
         11   -1    0    0    0    0 -0.00000000000E+00 -0.00000000000E+00 -0.45593999997E+02  0.45594000000E+02  0.51100000000E-03 0. -1.
    9900012    2    1    2    0    0  0.82076206614E+01  0.23335811885E+02 -0.35660874901E+02  0.47787272449E+02  0.20000006404E+02 0.  0.
        -12    1    1    2    0    0 -0.82076206614E+01 -0.23335811885E+02  0.35660874901E+02  0.43400727551E+02  0.00000000000E+00 0.  1.
         11    1    3    3    0    0  0.71197476920E+01  0.16593446440E+02 -0.13921581950E+02  0.22800081496E+02  0.51100000000E-03 0. -1.
        -11    1    3    3    0    0  0.33478699909E+01 -0.15642654417E+01 -0.71113502809E+01  0.80141414342E+01  0.51100000000E-03 0.  1.
        -12    1    3    3    0    0 -0.22599970216E+01  0.83066308865E+01 -0.14627942670E+02  0.16973049519E+02  0.00000000000E+00 0.  1.
</event>
<event>
 7    1  0.2294216E-010  0.4778727E+02  0.7816164E-02  0.1312668E+00
        -11   -1    0    0    0    0  0.00000000000E+00  0.00000000000E+00  0.45593999997E+02  0.45594000000E+02  0.51100000000E-03 0.  1.
         11   -1    0    0    0    0 -0.00000000000E+00 -0.00000000000E+00 -0.45593999997E+02  0.45594000000E+02  0.51100000000E-03 0. -1.
    9900012    2    1    2    0    0  0.70778248085E+00  0.15394557124E+02 -0.40572528115E+02  0.47787269790E+02  0.19999994280E+02 0.  0.
        -12    1    1    2    0    0 -0.70778248085E+00 -0.15394557124E+02  0.40572528115E+02  0.43400730210E+02  0.00000000000E+00 0.  1.
         11    1    3    3    0    0  0.61360598297E+01  0.40919521137E+01 -0.10029002490E+02  0.12448943471E+02  0.51100000000E-03 0. -1.
        -11    1    3    3    0    0 -0.24982721381E+01 -0.25477606083E+01 -0.51541260406E+01  0.62687688821E+01  0.51100000000E-03 0.  1.
         12    1    3    3    0    0 -0.29300052107E+01  0.13850365619E+02 -0.25389399584E+02  0.29069557437E+02  0.00000000000E+00 0. -1.
</event>
<event>
 7    1  0.2294216E-010  0.4778728E+02  0.7816164E-02  0.1312668E+00
        -11   -1    0    0    0    0  0.00000000000E+00  0.00000000000E+00  0.45593999997E+02  0.45594000000E+02  0.51100000000E-03 0.  1.
         11   -1    0    0    0    0 -0.00000000000E+00 -0.00000000000E+00 -0.45593999997E+02  0.45594000000E+02  0.51100000000E-03 0. -1.
    9900012    2    1    2    0    0  0.31191863277E+01  0.43056206689E+02 -0.44784384492E+01  0.47787278016E+02  0.20000031787E+02 0.  0.
        -12    1    1    2    0    0 -0.31191863277E+01 -0.43056206689E+02  0.44784384492E+01  0.43400721984E+02  0.00000000000E+00 0.  1.
         11    1    3    3    0    0  0.53858491352E+01  0.60947793232E+01  0.21243629828E+01  0.84063442857E+01  0.51100000000E-03 0. -1.
        -11    1    3    3    0    0  0.35906865528E+01  0.16190341256E+02  0.69769082956E+00  0.16598402112E+02  0.51100000000E-03 0.  1.
        -12    1    3    3    0    0 -0.58573493603E+01  0.20771086109E+02 -0.73004922615E+01  0.22782531619E+02  0.00000000000E+00 0.  1.
</event>
<event>
 7    1  0.2294216E-010  0.4778727E+02  0.7816164E-02  0.1312668E+00
        -11   -1    0    0    0    0  0.00000000000E+00  0.00000000000E+00  0.45593999997E+02  0.45594000000E+02  0.51100000000E-03 0. -1.
         11   -1    0    0    0    0 -0.00000000000E+00 -0.00000000000E+00 -0.45593999997E+02  0.45594000000E+02  0.51100000000E-03 0.  1.
    9900012    2    1    2    0    0  0.52888797223E+01  0.37679539567E+02  0.20878304471E+02  0.47787267884E+02  0.19999985588E+02 0.  0.
        -12    1    1    2    0    0 -0.52888797223E+01 -0.37679539567E+02 -0.20878304471E+02  0.43400732116E+02  0.00000000000E+00 0.  1.
         11    1    3    3    0    0 -0.54541508591E+01  0.18346169401E+02  0.12206861872E+02  0.22701038970E+02  0.51100000000E-03 0. -1.
        -11    1    3    3    0    0 -0.99086737380E+00  0.13107855394E+00  0.96129771947E-01  0.10041120126E+01  0.51100000000E-03 0.  1.
        -12    1    3    3    0    0  0.11733897955E+02  0.19202291612E+02  0.85753128267E+01  0.24082116901E+02  0.00000000000E+00 0.  1.
</event>
<event>
 7    1  0.2294216E-010  0.4778727E+02  0.7816164E-02  0.1312668E+00
        -11   -1    0    0    0    0  0.00000000000E+00  0.00000000000E+00  0.45593999997E+02  0.45594000000E+02  0.51100000000E-03 0. -1.
         11   -1    0    0    0    0 -0.00000000000E+00 -0.00000000000E+00 -0.45593999997E+02  0.45594000000E+02  0.51100000000E-03 0.  1.
    9900012    2    1    2    0    0 -0.10056846559E+02  0.14428064504E+02  0.39677627384E+02  0.47787270480E+02  0.19999997426E+02 0.  0.
        -12    1    1    2    0    0  0.10056846559E+02 -0.14428064504E+02 -0.39677627384E+02  0.43400729520E+02  0.00000000000E+00 0.  1.
         11    1    3    3    0    0  0.40096184368E+01  0.72494448063E+01  0.53547790528E+01  0.98643372293E+01  0.51100000000E-03 0.  1.
        -11    1    3    3    0    0 -0.23775236107E+01  0.93293168701E+00  0.31885885832E+01  0.40853491242E+01  0.51100000000E-03 0. -1.
        -12    1    3    3    0    0 -0.11688941385E+02  0.62456880105E+01  0.31134259748E+02  0.33837584126E+02  0.00000000000E+00 0.  1.
</event>
<event>
 7    1  0.2294216E-010  0.4778727E+02  0.7816164E-02  0.1312668E+00
        -11   -1    0    0    0    0  0.00000000000E+00  0.00000000000E+00  0.45593999997E+02  0.45594000000E+02  0.51100000000E-03 0. -1.
         11   -1    0    0    0    0 -0.00000000000E+00 -0.00000000000E+00 -0.45593999997E+02  0.45594000000E+02  0.51100000000E-03 0.  1.
    9900012    2    1    2    0    0 -0.11081732564E+02 -0.25263476312E+02  0.33504853545E+02  0.47787271399E+02  0.20000001618E+02 0.  0.
        -12    1    1    2    0    0  0.11081732564E+02  0.25263476312E+02 -0.33504853545E+02  0.43400728601E+02  0.00000000000E+00 0.  1.
         11    1    3    3    0    0 -0.79580964191E+01 -0.19396956874E+02  0.20591192302E+02  0.29386568960E+02  0.51100000000E-03 0. -1.
        -11    1    3    3    0    0 -0.24834560252E+01 -0.40378468676E+01 -0.57357485776E+00  0.47750130401E+01  0.51100000000E-03 0.  1.
         12    1    3    3    0    0 -0.64018011991E+00 -0.18286725708E+01  0.13487236101E+02  0.13625689399E+02  0.00000000000E+00 0. -1.
</event>
<event>
 7    1  0.2294216E-010  0.4778727E+02  0.7816164E-02  0.1312668E+00
        -11   -1    0    0    0    0  0.00000000000E+00  0.00000000000E+00  0.45593999997E+02  0.45594000000E+02  0.51100000000E-03 0. -1.
         11   -1    0    0    0    0 -0.00000000000E+00 -0.00000000000E+00 -0.45593999997E+02  0.45594000000E+02  0.51100000000E-03 0.  1.
    9900012    2    1    2    0    0  0.38038869852E+02  0.20011644088E+02  0.60168001950E+01  0.47787269554E+02  0.19999993203E+02 0.  0.
        -12    1    1    2    0    0 -0.38038869852E+02 -0.20011644088E+02 -0.60168001950E+01  0.43400730446E+02  0.00000000000E+00 0.  1.
         11    1    3    3    0    0  0.12282714228E+02  0.83555430351E+01  0.64332656479E+01  0.16188485889E+02  0.51100000000E-03 0. -1.
        -11    1    3    3    0    0  0.94525728986E+01  0.11826689047E+02 -0.17448571296E+01  0.15240283294E+02  0.51100000000E-03 0.  1.
        -12    1    3    3    0    0  0.16303582725E+02 -0.17058799393E+00  0.13283916767E+01  0.16358500371E+02  0.00000000000E+00 0.  1.
</event>
<event>
 7    1  0.2294216E-010  0.4778727E+02  0.7816164E-02  0.1312668E+00
        -11   -1    0    0    0    0  0.00000000000E+00  0.00000000000E+00  0.45593999997E+02  0.45594000000E+02  0.51100000000E-03 0.  1.
         11   -1    0    0    0    0 -0.00000000000E+00 -0.00000000000E+00 -0.45593999997E+02  0.45594000000E+02  0.51100000000E-03 0. -1.
    9900012    2    1    2    0    0 -0.36460192569E+02  0.28186773636E+01 -0.23373767210E+02  0.47787267542E+02  0.19999984032E+02 0.  0.
        -12    1    1    2    0    0  0.36460192569E+02 -0.28186773636E+01  0.23373767210E+02  0.43400732458E+02  0.00000000000E+00 0.  1.
         11    1    3    3    0    0 -0.85955222713E+01  0.38122495006E+01 -0.60206463295E+01  0.11165322739E+02  0.51100000000E-03 0. -1.
        -11    1    3    3    0    0 -0.15498419300E+02  0.19573941205E+01 -0.65559271557E+00  0.15635286841E+02  0.51100000000E-03 0.  1.
         12    1    3    3    0    0 -0.12366250998E+02 -0.29509662575E+01 -0.16697528165E+02  0.20986657962E+02  0.00000000000E+00 0. -1.
</event>
<event>
 7    1  0.2294216E-010  0.4778727E+02  0.7816164E-02  0.1312668E+00
        -11   -1    0    0    0    0  0.00000000000E+00  0.00000000000E+00  0.45593999997E+02  0.45594000000E+02  0.51100000000E-03 0. -1.
         11   -1    0    0    0    0 -0.00000000000E+00 -0.00000000000E+00 -0.45593999997E+02  0.45594000000E+02  0.51100000000E-03 0.  1.
    9900012    2    1    2    0    0 -0.10577865354E+02 -0.20955077553E+02  0.36505025465E+02  0.47787269651E+02  0.19999993645E+02 0.  0.
        -12    1    1    2    0    0  0.10577865354E+02  0.20955077553E+02 -0.36505025465E+02  0.43400730349E+02  0.00000000000E+00 0.  1.
         11    1    3    3    0    0  0.48948953039E+01 -0.43100679923E+01  0.30969707058E+01  0.72199663398E+01  0.51100000000E-03 0. -1.
        -11    1    3    3    0    0 -0.44023206199E+01 -0.57666369647E+01  0.80536585003E+01  0.10839554614E+02  0.51100000000E-03 0.  1.
         12    1    3    3    0    0 -0.11070440038E+02 -0.10878372596E+02  0.25354396258E+02  0.29727748697E+02  0.00000000000E+00 0. -1.
</event>
<event>
 7    1  0.2294216E-010  0.4778733E+02  0.7816164E-02  0.1312668E+00
        -11   -1    0    0    0    0  0.00000000000E+00  0.00000000000E+00  0.45593999997E+02  0.45594000000E+02  0.51100000000E-03 0.  1.
         11   -1    0    0    0    0 -0.00000000000E+00 -0.00000000000E+00 -0.45593999997E+02  0.45594000000E+02  0.51100000000E-03 0. -1.
    9900012    2    1    2    0    0 -0.20391407445E+02 -0.30232229224E+02 -0.23533404870E+02  0.47787328044E+02  0.20000259881E+02 0.  0.
        -12    1    1    2    0    0  0.20391407445E+02  0.30232229224E+02  0.23533404870E+02  0.43400671956E+02  0.00000000000E+00 0.  1.
         11    1    3    3    0    0 -0.20677980084E+01 -0.78985291088E+01 -0.10547450577E+02  0.13338338151E+02  0.51100000000E-03 0. -1.
        -11    1    3    3    0    0 -0.15954329338E+02 -0.13749996867E+02 -0.14286131323E+02  0.25449883829E+02  0.51100000000E-03 0.  1.
        -12    1    3    3    0    0 -0.23692800992E+01 -0.85837032480E+01  0.13001770304E+01  0.89991060638E+01  0.00000000000E+00 0.  1.
</event>
<event>
 7    1  0.2294216E-010  0.4778727E+02  0.7816164E-02  0.1312668E+00
        -11   -1    0    0    0    0  0.00000000000E+00  0.00000000000E+00  0.45593999997E+02  0.45594000000E+02  0.51100000000E-03 0.  1.
         11   -1    0    0    0    0 -0.00000000000E+00 -0.00000000000E+00 -0.45593999997E+02  0.45594000000E+02  0.51100000000E-03 0. -1.
    9900012    2    1    2    0    0  0.76936183080E+01 -0.12541638946E+02 -0.40830613157E+02  0.47787269120E+02  0.19999991226E+02 0.  0.
        -12    1    1    2    0    0 -0.76936183080E+01  0.12541638946E+02  0.40830613157E+02  0.43400730880E+02  0.00000000000E+00 0.  1.
         11    1    3    3    0    0 -0.22415550150E+01 -0.12219891985E+02 -0.22871110229E+02  0.26027639393E+02  0.51100000000E-03 0.  1.
        -11    1    3    3    0    0  0.35846461937E+01 -0.27500515139E+01 -0.32832060564E+01  0.55849721515E+01  0.51100000000E-03 0. -1.
        -12    1    3    3    0    0  0.63505271293E+01  0.24283045525E+01 -0.14676296872E+02  0.16174657576E+02  0.00000000000E+00 0.  1.
</event>
<event>
 7    1  0.2294216E-010  0.4778727E+02  0.7816164E-02  0.1312668E+00
        -11   -1    0    0    0    0  0.00000000000E+00  0.00000000000E+00  0.45593999997E+02  0.45594000000E+02  0.51100000000E-03 0.  1.
         11   -1    0    0    0    0 -0.00000000000E+00 -0.00000000000E+00 -0.45593999997E+02  0.45594000000E+02  0.51100000000E-03 0. -1.
    9900012    2    1    2    0    0  0.17029211433E+02 -0.24877653141E+02 -0.31220691798E+02  0.47787271156E+02  0.20000000510E+02 0.  0.
        -12    1    1    2    0    0 -0.17029211433E+02  0.24877653141E+02  0.31220691798E+02  0.43400728844E+02  0.00000000000E+00 0.  1.
         11    1    3    3    0    0  0.22728656535E+01  0.90466976905E+00  0.82629085753E+00  0.25820732972E+01  0.51100000000E-03 0.  1.
        -11    1    3    3    0    0 -0.16537010366E+01 -0.48365259186E+00 -0.19144161089E+01  0.25755846418E+01  0.51100000000E-03 0. -1.
         12    1    3    3    0    0  0.16410046817E+02 -0.25298670318E+02 -0.30132566546E+02  0.42629613217E+02  0.00000000000E+00 0. -1.
</event>
<event>
 7    1  0.2294216E-010  0.4778727E+02  0.7816164E-02  0.1312668E+00
        -11   -1    0    0    0    0  0.00000000000E+00  0.00000000000E+00  0.45593999997E+02  0.45594000000E+02  0.51100000000E-03 0.  1.
         11   -1    0    0    0    0 -0.00000000000E+00 -0.00000000000E+00 -0.45593999997E+02  0.45594000000E+02  0.51100000000E-03 0. -1.
    9900012    2    1    2    0    0  0.21730629936E+02 -0.36650978235E+02 -0.82528103497E+01  0.47787270032E+02  0.19999995386E+02 0.  0.
        -12    1    1    2    0    0 -0.21730629936E+02  0.36650978235E+02  0.82528103497E+01  0.43400729968E+02  0.00000000000E+00 0.  1.
         11    1    3    3    0    0  0.11657367318E+01 -0.30745373449E+01 -0.14548080061E+00  0.32913351299E+01  0.51100000000E-03 0. -1.
        -11    1    3    3    0    0 -0.67646910302E+00 -0.16037350757E+02 -0.47854155708E+01  0.16749759169E+02  0.51100000000E-03 0.  1.
        -12    1    3    3    0    0  0.21241362308E+02 -0.17539090133E+02 -0.33219139783E+01  0.27746175734E+02  0.00000000000E+00 0.  1.
</event>
<event>
 7    1  0.2294216E-010  0.4778727E+02  0.7816164E-02  0.1312668E+00
        -11   -1    0    0    0    0  0.00000000000E+00  0.00000000000E+00  0.45593999997E+02  0.45594000000E+02  0.51100000000E-03 0.  1.
         11   -1    0    0    0    0 -0.00000000000E+00 -0.00000000000E+00 -0.45593999997E+02  0.45594000000E+02  0.51100000000E-03 0. -1.
    9900012    2    1    2    0    0 -0.29112917447E+02 -0.84533761318E+01 -0.31058039104E+02  0.47787270475E+02  0.19999997405E+02 0.  0.
        -12    1    1    2    0    0  0.29112917447E+02  0.84533761318E+01  0.31058039104E+02  0.43400729525E+02  0.00000000000E+00 0.  1.
         11    1    3    3    0    0 -0.74010319622E+01 -0.31133246472E+01 -0.28144130180E+00  0.80341318094E+01  0.51100000000E-03 0. -1.
        -11    1    3    3    0    0  0.21699989534E+00  0.19030411581E+00  0.83570747246E+00  0.88414470067E+00  0.51100000000E-03 0.  1.
         12    1    3    3    0    0 -0.21928885380E+02 -0.55303556005E+01 -0.31612305275E+02  0.38868993965E+02  0.00000000000E+00 0. -1.
</event>
<event>
 7    1  0.2294216E-010  0.4778727E+02  0.7816164E-02  0.1312668E+00
        -11   -1    0    0    0    0  0.00000000000E+00  0.00000000000E+00  0.45593999997E+02  0.45594000000E+02  0.51100000000E-03 0.  1.
         11   -1    0    0    0    0 -0.00000000000E+00 -0.00000000000E+00 -0.45593999997E+02  0.45594000000E+02  0.51100000000E-03 0. -1.
    9900012    2    1    2    0    0  0.16289285205E+02  0.14037098528E+02 -0.37699372711E+02  0.47787266707E+02  0.19999980223E+02 0.  0.
        -12    1    1    2    0    0 -0.16289285205E+02 -0.14037098528E+02  0.37699372711E+02  0.43400733293E+02  0.00000000000E+00 0.  1.
         11    1    3    3    0    0  0.14676768187E+01  0.23678698459E+01 -0.48875029458E+01  0.56257060141E+01  0.51100000000E-03 0. -1.
        -11    1    3    3    0    0  0.10382447132E+02  0.41064298096E+01 -0.37071236283E+01  0.11764384391E+02  0.51100000000E-03 0.  1.
        -12    1    3    3    0    0  0.44391612542E+01  0.75627988724E+01 -0.29104746137E+02  0.30397176302E+02  0.00000000000E+00 0.  1.
</event>
<event>
 7    1  0.2294216E-010  0.4778727E+02  0.7816164E-02  0.1312668E+00
        -11   -1    0    0    0    0  0.00000000000E+00  0.00000000000E+00  0.45593999997E+02  0.45594000000E+02  0.51100000000E-03 0.  1.
         11   -1    0    0    0    0 -0.00000000000E+00 -0.00000000000E+00 -0.45593999997E+02  0.45594000000E+02  0.51100000000E-03 0. -1.
    9900012    2    1    2    0    0 -0.24502278213E+02  0.31619460461E+01 -0.35682820751E+02  0.47787271468E+02  0.20000001930E+02 0.  0.
        -12    1    1    2    0    0  0.24502278213E+02 -0.31619460461E+01  0.35682820751E+02  0.43400728532E+02  0.00000000000E+00 0.  1.
         11    1    3    3    0    0 -0.13249055388E+02  0.18114049646E+01 -0.11433124276E+02  0.17593606441E+02  0.51100000000E-03 0. -1.
        -11    1    3    3    0    0 -0.10432277193E+02 -0.45301629094E+01 -0.11736765104E+02  0.16343391288E+02  0.51100000000E-03 0.  1.
        -12    1    3    3    0    0 -0.82094563108E+00  0.58807039908E+01 -0.12512931370E+02  0.13850273738E+02  0.00000000000E+00 0.  1.
</event>
<event>
 7    1  0.2294216E-010  0.4778727E+02  0.7816164E-02  0.1312668E+00
        -11   -1    0    0    0    0  0.00000000000E+00  0.00000000000E+00  0.45593999997E+02  0.45594000000E+02  0.51100000000E-03 0.  1.
         11   -1    0    0    0    0 -0.00000000000E+00 -0.00000000000E+00 -0.45593999997E+02  0.45594000000E+02  0.51100000000E-03 0. -1.
    9900012    2    1    2    0    0 -0.10363216171E+02  0.99591646877E+01 -0.40951705965E+02  0.47787269222E+02  0.19999991690E+02 0.  0.
        -12    1    1    2    0    0  0.10363216171E+02 -0.99591646877E+01  0.40951705965E+02  0.43400730778E+02  0.00000000000E+00 0.  1.
         11    1    3    3    0    0  0.39555967708E+01  0.46848943212E+01 -0.12712064833E+02  0.14113524478E+02  0.51100000000E-03 0. -1.
        -11    1    3    3    0    0 -0.97447208683E+00 -0.64755620957E+00  0.62543688919E+00  0.13266862689E+01  0.51100000000E-03 0.  1.
        -12    1    3    3    0    0 -0.13344340854E+02  0.59218265761E+01 -0.28865078020E+02  0.32347058475E+02  0.00000000000E+00 0.  1.
</event>
<event>
 7    1  0.2294216E-010  0.4778727E+02  0.7816164E-02  0.1312668E+00
        -11   -1    0    0    0    0  0.00000000000E+00  0.00000000000E+00  0.45593999997E+02  0.45594000000E+02  0.51100000000E-03 0. -1.
         11   -1    0    0    0    0 -0.00000000000E+00 -0.00000000000E+00 -0.45593999997E+02  0.45594000000E+02  0.51100000000E-03 0.  1.
    9900012    2    1    2    0    0  0.21768391241E+02 -0.25812314067E+02  0.27266920661E+02  0.47787269855E+02  0.19999994578E+02 0.  0.
        -12    1    1    2    0    0 -0.21768391241E+02  0.25812314067E+02 -0.27266920661E+02  0.43400730145E+02  0.00000000000E+00 0.  1.
         11    1    3    3    0    0  0.22721032789E+01 -0.87588083580E+01  0.54900327091E+01  0.10583932944E+02  0.51100000000E-03 0. -1.
        -11    1    3    3    0    0  0.82317124925E+01 -0.11867704524E+02  0.20008749483E+02  0.24676984365E+02  0.51100000000E-03 0.  1.
         12    1    3    3    0    0  0.11264575470E+02 -0.51858011857E+01  0.17681384689E+01  0.12526352546E+02  0.00000000000E+00 0. -1.
</event>
<event>
 7    1  0.2294216E-010  0.4778727E+02  0.7816164E-02  0.1312668E+00
        -11   -1    0    0    0    0  0.00000000000E+00  0.00000000000E+00  0.45593999997E+02  0.45594000000E+02  0.51100000000E-03 0. -1.
         11   -1    0    0    0    0 -0.00000000000E+00 -0.00000000000E+00 -0.45593999997E+02  0.45594000000E+02  0.51100000000E-03 0.  1.
    9900012    2    1    2    0    0  0.23910542500E+02 -0.36047999839E+02 -0.35286044398E+01  0.47787269772E+02  0.19999994196E+02 0.  0.
        -12    1    1    2    0    0 -0.23910542500E+02  0.36047999839E+02  0.35286044398E+01  0.43400730228E+02  0.00000000000E+00 0.  1.
         11    1    3    3    0    0  0.11816605700E+02 -0.17096724632E+02 -0.49266536555E+01  0.21358887610E+02  0.51100000000E-03 0. -1.
        -11    1    3    3    0    0  0.29576303354E+00 -0.13153989991E+02 -0.38202628254E+00  0.13162859598E+02  0.51100000000E-03 0.  1.
        -12    1    3    3    0    0  0.11798173767E+02 -0.57972852157E+01  0.17800754983E+01  0.13265522564E+02  0.00000000000E+00 0.  1.
</event>
<event>
 7    1  0.2294216E-010  0.4778727E+02  0.7816164E-02  0.1312668E+00
        -11   -1    0    0    0    0  0.00000000000E+00  0.00000000000E+00  0.45593999997E+02  0.45594000000E+02  0.51100000000E-03 0.  1.
         11   -1    0    0    0    0 -0.00000000000E+00 -0.00000000000E+00 -0.45593999997E+02  0.45594000000E+02  0.51100000000E-03 0. -1.
    9900012    2    1    2    0    0 -0.38072317687E+02  0.16663222549E+02 -0.12508351765E+02  0.47787271623E+02  0.20000002638E+02 0.  0.
        -12    1    1    2    0    0  0.38072317687E+02 -0.16663222549E+02  0.12508351765E+02  0.43400728377E+02  0.00000000000E+00 0.  1.
         11    1    3    3    0    0 -0.53963218930E+01  0.43929599536E+01 -0.64201348884E+01  0.94676564879E+01  0.51100000000E-03 0. -1.
        -11    1    3    3    0    0 -0.85637324326E+01 -0.32116125825E+01 -0.79997863348E+00  0.91810639162E+01  0.51100000000E-03 0.  1.
         12    1    3    3    0    0 -0.24112263361E+02  0.15481875178E+02 -0.52882382427E+01  0.29138551219E+02  0.00000000000E+00 0. -1.
</event>
<event>
 7    1  0.2294216E-010  0.4778727E+02  0.7816164E-02  0.1312668E+00
        -11   -1    0    0    0    0  0.00000000000E+00  0.00000000000E+00  0.45593999997E+02  0.45594000000E+02  0.51100000000E-03 0.  1.
         11   -1    0    0    0    0 -0.00000000000E+00 -0.00000000000E+00 -0.45593999997E+02  0.45594000000E+02  0.51100000000E-03 0. -1.
    9900012    2    1    2    0    0  0.70271530003E+01  0.23550149848E+01 -0.42763259667E+02  0.47787270142E+02  0.19999995886E+02 0.  0.
        -12    1    1    2    0    0 -0.70271530003E+01 -0.23550149848E+01  0.42763259667E+02  0.43400729858E+02  0.00000000000E+00 0.  1.
         11    1    3    3    0    0  0.76924314829E+01  0.29555948029E+01 -0.15862442171E+02  0.17875293414E+02  0.51100000000E-03 0. -1.
        -11    1    3    3    0    0  0.51525106149E+01 -0.10226679809E+00 -0.20951264305E+02  0.21575780412E+02  0.51100000000E-03 0.  1.
        -12    1    3    3    0    0 -0.58177890976E+01 -0.49831302000E+00 -0.59495531908E+01  0.83361963160E+01  0.00000000000E+00 0.  1.
</event>
<event>
 7    1  0.2294216E-010  0.4778727E+02  0.7816164E-02  0.1312668E+00
        -11   -1    0    0    0    0  0.00000000000E+00  0.00000000000E+00  0.45593999997E+02  0.45594000000E+02  0.51100000000E-03 0.  1.
         11   -1    0    0    0    0 -0.00000000000E+00 -0.00000000000E+00 -0.45593999997E+02  0.45594000000E+02  0.51100000000E-03 0. -1.
    9900012    2    1    2    0    0  0.16036780368E+02 -0.29289834649E+02 -0.27722741638E+02  0.47787272560E+02  0.20000006911E+02 0.  0.
        -12    1    1    2    0    0 -0.16036780368E+02  0.29289834649E+02  0.27722741638E+02  0.43400727440E+02  0.00000000000E+00 0.  1.
         11    1    3    3    0    0  0.41317801700E+01 -0.12999218174E+02 -0.37333654914E+01  0.14141757269E+02  0.51100000000E-03 0. -1.
        -11    1    3    3    0    0  0.10566292792E+02 -0.11411545220E+02 -0.93265139981E+01  0.18134325774E+02  0.51100000000E-03 0.  1.
        -12    1    3    3    0    0  0.13387074063E+01 -0.48790712557E+01 -0.14662862149E+02  0.15511189517E+02  0.00000000000E+00 0.  1.
</event>
<event>
 7    1  0.2294216E-010  0.4778728E+02  0.7816164E-02  0.1312668E+00
        -11   -1    0    0    0    0  0.00000000000E+00  0.00000000000E+00  0.45593999997E+02  0.45594000000E+02  0.51100000000E-03 0.  1.
         11   -1    0    0    0    0 -0.00000000000E+00 -0.00000000000E+00 -0.45593999997E+02  0.45594000000E+02  0.51100000000E-03 0. -1.
    9900012    2    1    2    0    0 -0.14083745212E+02 -0.29907105165E+02 -0.28121803004E+02  0.47787278546E+02  0.20000034201E+02 0.  0.
        -12    1    1    2    0    0  0.14083745212E+02  0.29907105165E+02  0.28121803004E+02  0.43400721454E+02  0.00000000000E+00 0.  1.
         11    1    3    3    0    0 -0.79034084396E+01 -0.38095024325E+01 -0.25504308011E+01  0.91367867042E+01  0.51100000000E-03 0. -1.
        -11    1    3    3    0    0 -0.72128438511E+01 -0.79878862846E+01 -0.10932692536E+02  0.15341291017E+02  0.51100000000E-03 0.  1.
         12    1    3    3    0    0  0.10325070784E+01 -0.18109716448E+02 -0.14638679667E+02  0.23309200825E+02  0.00000000000E+00 0. -1.
</event>
<event>
 7    1  0.2294216E-010  0.4778728E+02  0.7816164E-02  0.1312668E+00
        -11   -1    0    0    0    0  0.00000000000E+00  0.00000000000E+00  0.45593999997E+02  0.45594000000E+02  0.51100000000E-03 0.  1.
         11   -1    0    0    0    0 -0.00000000000E+00 -0.00000000000E+00 -0.45593999997E+02  0.45594000000E+02  0.51100000000E-03 0. -1.
    9900012    2    1    2    0    0 -0.21288425943E+02  0.36823432112E+02 -0.86290442793E+01  0.47787278384E+02  0.20000033464E+02 0.  0.
        -12    1    1    2    0    0  0.21288425943E+02 -0.36823432112E+02  0.86290442793E+01  0.43400721616E+02  0.00000000000E+00 0.  1.
         11    1    3    3    0    0 -0.56302775397E+01  0.47653735383E+01  0.28074693526E+01  0.78924454107E+01  0.51100000000E-03 0. -1.
        -11    1    3    3    0    0 -0.39842644572E+01  0.13016258458E+02 -0.11087880385E+02  0.17556720628E+02  0.51100000000E-03 0.  1.
         12    1    3    3    0    0 -0.11673883946E+02  0.19041800115E+02 -0.34863324713E+00  0.22338112345E+02  0.00000000000E+00 0. -1.
</event>
<event>
 7    1  0.2294216E-010  0.4778727E+02  0.7816164E-02  0.1312668E+00
        -11   -1    0    0    0    0  0.00000000000E+00  0.00000000000E+00  0.45593999997E+02  0.45594000000E+02  0.51100000000E-03 0. -1.
         11   -1    0    0    0    0 -0.00000000000E+00 -0.00000000000E+00 -0.45593999997E+02  0.45594000000E+02  0.51100000000E-03 0.  1.
    9900012    2    1    2    0    0 -0.52988686148E+01  0.24246261122E+02  0.35604272682E+02  0.47787269359E+02  0.19999992314E+02 0.  0.
        -12    1    1    2    0    0  0.52988686148E+01 -0.24246261122E+02 -0.35604272682E+02  0.43400730641E+02  0.00000000000E+00 0.  1.
         11    1    3    3    0    0  0.14891515377E+01  0.30679067722E+01 -0.10150765261E+01  0.35580900607E+01  0.51100000000E-03 0.  1.
        -11    1    3    3    0    0 -0.22004268711E+01  0.12570233575E+02  0.11115196733E+02  0.16923364004E+02  0.51100000000E-03 0. -1.
         12    1    3    3    0    0 -0.45875932814E+01  0.86081207750E+01  0.25504152475E+02  0.27305815294E+02  0.00000000000E+00 0. -1.
</event>
<event>
 7    1  0.2294216E-010  0.4778727E+02  0.7816164E-02  0.1312668E+00
        -11   -1    0    0    0    0  0.00000000000E+00  0.00000000000E+00  0.45593999997E+02  0.45594000000E+02  0.51100000000E-03 0.  1.
         11   -1    0    0    0    0 -0.00000000000E+00 -0.00000000000E+00 -0.45593999997E+02  0.45594000000E+02  0.51100000000E-03 0. -1.
    9900012    2    1    2    0    0 -0.80991314263E+01  0.26206345632E+00 -0.42637529534E+02  0.47787268072E+02  0.19999986447E+02 0.  0.
        -12    1    1    2    0    0  0.80991314263E+01 -0.26206345632E+00  0.42637529534E+02  0.43400731928E+02  0.00000000000E+00 0.  1.
         11    1    3    3    0    0  0.20984456193E+01 -0.80759481159E-01 -0.19409170731E+01  0.28595726004E+01  0.51100000000E-03 0. -1.
        -11    1    3    3    0    0 -0.90212864830E+01  0.60495967509E+00 -0.76063777723E+01  0.11815522379E+02  0.51100000000E-03 0.  1.
        -12    1    3    3    0    0 -0.11762905626E+01 -0.26213673761E+00 -0.33090234689E+02  0.33112173092E+02  0.00000000000E+00 0.  1.
</event>
<event>
 7    1  0.2294216E-010  0.4778728E+02  0.7816164E-02  0.1312668E+00
        -11   -1    0    0    0    0  0.00000000000E+00  0.00000000000E+00  0.45593999997E+02  0.45594000000E+02  0.51100000000E-03 0.  1.
         11   -1    0    0    0    0 -0.00000000000E+00 -0.00000000000E+00 -0.45593999997E+02  0.45594000000E+02  0.51100000000E-03 0. -1.
    9900012    2    1    2    0    0 -0.32082706144E+01 -0.18748591794E+02 -0.39010514281E+02  0.47787275132E+02  0.20000018639E+02 0.  0.
        -12    1    1    2    0    0  0.32082706144E+01  0.18748591794E+02  0.39010514281E+02  0.43400724868E+02  0.00000000000E+00 0.  1.
         11    1    3    3    0    0  0.19919296735E+01 -0.86815595995E+00 -0.68148725281E+01  0.71528991626E+01  0.51100000000E-03 0. -1.
        -11    1    3    3    0    0 -0.91789155324E+01 -0.13524883570E+02 -0.30318020290E+02  0.34443538153E+02  0.51100000000E-03 0.  1.
        -12    1    3    3    0    0  0.39787152445E+01 -0.43555522637E+01 -0.18776214627E+01  0.61908378170E+01  0.00000000000E+00 0.  1.
</event>
<event>
 7    1  0.2294216E-010  0.4778726E+02  0.7816164E-02  0.1312668E+00
        -11   -1    0    0    0    0  0.00000000000E+00  0.00000000000E+00  0.45593999997E+02  0.45594000000E+02  0.51100000000E-03 0.  1.
         11   -1    0    0    0    0 -0.00000000000E+00 -0.00000000000E+00 -0.45593999997E+02  0.45594000000E+02  0.51100000000E-03 0. -1.
    9900012    2    1    2    0    0  0.61871432009E+01  0.81264209536E+01 -0.42181803879E+02  0.47787262253E+02  0.19999959918E+02 0.  0.
        -12    1    1    2    0    0 -0.61871432009E+01 -0.81264209536E+01  0.42181803879E+02  0.43400737747E+02  0.00000000000E+00 0.  1.
         11    1    3    3    0    0 -0.45063532498E+01 -0.22683289103E+00 -0.95888718176E+01  0.10597411748E+02  0.51100000000E-03 0. -1.
        -11    1    3    3    0    0 -0.11942387546E+01 -0.15925845484E+01 -0.69226271398E+01  0.72031450440E+01  0.51100000000E-03 0.  1.
         12    1    3    3    0    0  0.11887735205E+02  0.99458383931E+01 -0.25670304921E+02  0.29986705461E+02  0.00000000000E+00 0. -1.
</event>
<event>
 7    1  0.2294216E-010  0.4778727E+02  0.7816164E-02  0.1312668E+00
        -11   -1    0    0    0    0  0.00000000000E+00  0.00000000000E+00  0.45593999997E+02  0.45594000000E+02  0.51100000000E-03 0. -1.
         11   -1    0    0    0    0 -0.00000000000E+00 -0.00000000000E+00 -0.45593999997E+02  0.45594000000E+02  0.51100000000E-03 0.  1.
    9900012    2    1    2    0    0 -0.23222196577E+02 -0.23594073757E+02  0.28065505367E+02  0.47787270492E+02  0.19999997482E+02 0.  0.
        -12    1    1    2    0    0  0.23222196577E+02  0.23594073757E+02 -0.28065505367E+02  0.43400729508E+02  0.00000000000E+00 0.  1.
         11    1    3    3    0    0 -0.62017149450E+00 -0.27397409287E+01 -0.53440371514E+00  0.28594371178E+01  0.51100000000E-03 0. -1.
        -11    1    3    3    0    0 -0.10459732413E+02 -0.33436316351E+01  0.25509032581E+01  0.11273552339E+02  0.51100000000E-03 0.  1.
         12    1    3    3    0    0 -0.12142292670E+02 -0.17510701193E+02  0.26049005824E+02  0.33654281035E+02  0.00000000000E+00 0. -1.
</event>
<event>
 7    1  0.2294216E-010  0.4778727E+02  0.7816164E-02  0.1312668E+00
        -11   -1    0    0    0    0  0.00000000000E+00  0.00000000000E+00  0.45593999997E+02  0.45594000000E+02  0.51100000000E-03 0.  1.
         11   -1    0    0    0    0 -0.00000000000E+00 -0.00000000000E+00 -0.45593999997E+02  0.45594000000E+02  0.51100000000E-03 0. -1.
    9900012    2    1    2    0    0 -0.28358063826E+02 -0.23880008025E+02 -0.22565210393E+02  0.47787270890E+02  0.19999999294E+02 0.  0.
        -12    1    1    2    0    0  0.28358063826E+02  0.23880008025E+02  0.22565210393E+02  0.43400729110E+02  0.00000000000E+00 0.  1.
         11    1    3    3    0    0 -0.97962449342E+01 -0.33815351076E+00 -0.57210517952E+01  0.11349502038E+02  0.51100000000E-03 0. -1.
        -11    1    3    3    0    0  0.65558125579E+00 -0.41097453663E+01  0.30538229220E+00  0.41728949621E+01  0.51100000000E-03 0.  1.
        -12    1    3    3    0    0 -0.19217400148E+02 -0.19432109148E+02 -0.17149540889E+02  0.32264873890E+02  0.00000000000E+00 0.  1.
</event>
<event>
 7    1  0.2294216E-010  0.4778727E+02  0.7816164E-02  0.1312668E+00
        -11   -1    0    0    0    0  0.00000000000E+00  0.00000000000E+00  0.45593999997E+02  0.45594000000E+02  0.51100000000E-03 0.  1.
         11   -1    0    0    0    0 -0.00000000000E+00 -0.00000000000E+00 -0.45593999997E+02  0.45594000000E+02  0.51100000000E-03 0. -1.
    9900012    2    1    2    0    0  0.34138712406E+02  0.50028646981E+01 -0.26327609755E+02  0.47787269876E+02  0.19999994673E+02 0.  0.
        -12    1    1    2    0    0 -0.34138712406E+02 -0.50028646981E+01  0.26327609755E+02  0.43400730124E+02  0.00000000000E+00 0.  1.
         11    1    3    3    0    0  0.51176899062E+01  0.16735006753E+01 -0.11526872986E+02  0.12722427267E+02  0.51100000000E-03 0. -1.
        -11    1    3    3    0    0  0.15672890406E+02 -0.23351283705E+01 -0.12915154744E+02  0.20442444583E+02  0.51100000000E-03 0.  1.
        -12    1    3    3    0    0  0.13348132093E+02  0.56644923933E+01 -0.18855820246E+01  0.14622398026E+02  0.00000000000E+00 0.  1.
</event>
<event>
 7    1  0.2294216E-010  0.4778728E+02  0.7816164E-02  0.1312668E+00
        -11   -1    0    0    0    0  0.00000000000E+00  0.00000000000E+00  0.45593999997E+02  0.45594000000E+02  0.51100000000E-03 0.  1.
         11   -1    0    0    0    0 -0.00000000000E+00 -0.00000000000E+00 -0.45593999997E+02  0.45594000000E+02  0.51100000000E-03 0. -1.
    9900012    2    1    2    0    0 -0.13285056406E+02 -0.39969823839E+02 -0.10466289909E+02  0.47787276897E+02  0.20000026682E+02 0.  0.
        -12    1    1    2    0    0  0.13285056406E+02  0.39969823839E+02  0.10466289909E+02  0.43400723103E+02  0.00000000000E+00 0.  1.
         11    1    3    3    0    0 -0.26869866787E+01 -0.10959875414E+01 -0.41664741436E+01  0.50774593207E+01  0.51100000000E-03 0. -1.
        -11    1    3    3    0    0 -0.21171201639E+01 -0.66276878754E+00  0.16562062815E+01  0.27684796842E+01  0.51100000000E-03 0.  1.
         12    1    3    3    0    0 -0.84809495636E+01 -0.38211067510E+02 -0.79560220472E+01  0.39941337892E+02  0.00000000000E+00 0. -1.
</event>
<event>
 7    1  0.2294216E-010  0.4778727E+02  0.7816164E-02  0.1312668E+00
        -11   -1    0    0    0    0  0.00000000000E+00  0.00000000000E+00  0.45593999997E+02  0.45594000000E+02  0.51100000000E-03 0.  1.
         11   -1    0    0    0    0 -0.00000000000E+00 -0.00000000000E+00 -0.45593999997E+02  0.45594000000E+02  0.51100000000E-03 0. -1.
    9900012    2    1    2    0    0 -0.20710626673E+01 -0.32646042399E+02 -0.28523151277E+02  0.47787267936E+02  0.19999985826E+02 0.  0.
        -12    1    1    2    0    0  0.20710626673E+01  0.32646042399E+02  0.28523151277E+02  0.43400732064E+02  0.00000000000E+00 0.  1.
         11    1    3    3    0    0  0.10648315539E+01 -0.11853742187E+02 -0.12389712275E+02  0.17179931333E+02  0.51100000000E-03 0. -1.
        -11    1    3    3    0    0 -0.75025184545E+01 -0.13912814950E+02 -0.15951912114E+02  0.22457019022E+02  0.51100000000E-03 0.  1.
         12    1    3    3    0    0  0.43666242333E+01 -0.68794852623E+01 -0.18152688895E+00  0.81503175816E+01  0.00000000000E+00 0. -1.
</event>
<event>
 7    1  0.2294216E-010  0.4778727E+02  0.7816164E-02  0.1312668E+00
        -11   -1    0    0    0    0  0.00000000000E+00  0.00000000000E+00  0.45593999997E+02  0.45594000000E+02  0.51100000000E-03 0.  1.
         11   -1    0    0    0    0 -0.00000000000E+00 -0.00000000000E+00 -0.45593999997E+02  0.45594000000E+02  0.51100000000E-03 0. -1.
    9900012    2    1    2    0    0 -0.19480905661E+02  0.12064334780E+02 -0.36858777504E+02  0.47787270304E+02  0.19999996624E+02 0.  0.
        -12    1    1    2    0    0  0.19480905661E+02 -0.12064334780E+02  0.36858777504E+02  0.43400729696E+02  0.00000000000E+00 0.  1.
         11    1    3    3    0    0 -0.84025601038E+01  0.10258516519E+01 -0.20663283534E+02  0.22329950170E+02  0.51100000000E-03 0. -1.
        -11    1    3    3    0    0 -0.29522533066E+00 -0.11117192430E+01 -0.63677558733E+01  0.64708108298E+01  0.51100000000E-03 0.  1.
         12    1    3    3    0    0 -0.10783120227E+02  0.12150202371E+02 -0.98277380966E+01  0.18986509305E+02  0.00000000000E+00 0. -1.
</event>
<event>
 7    1  0.2294216E-010  0.4778726E+02  0.7816164E-02  0.1312668E+00
        -11   -1    0    0    0    0  0.00000000000E+00  0.00000000000E+00  0.45593999997E+02  0.45594000000E+02  0.51100000000E-03 0. -1.
         11   -1    0    0    0    0 -0.00000000000E+00 -0.00000000000E+00 -0.45593999997E+02  0.45594000000E+02  0.51100000000E-03 0.  1.
    9900012    2    1    2    0    0  0.14123991219E+02 -0.18310539221E+02  0.36726844117E+02  0.47787262065E+02  0.19999959059E+02 0.  0.
        -12    1    1    2    0    0 -0.14123991219E+02  0.18310539221E+02 -0.36726844117E+02  0.43400737935E+02  0.00000000000E+00 0.  1.
         11    1    3    3    0    0  0.16206413007E+02 -0.13158613273E+02  0.20513573031E+02  0.29267791249E+02  0.51100000000E-03 0. -1.
        -11    1    3    3    0    0  0.22360635798E+01 -0.63034990831E-01  0.48513321278E+01  0.53422258861E+01  0.51100000000E-03 0.  1.
        -12    1    3    3    0    0 -0.43184853684E+01 -0.50888909572E+01  0.11361938958E+02  0.13177244930E+02  0.00000000000E+00 0.  1.
</event>
<event>
 7    1  0.2294216E-010  0.4778727E+02  0.7816164E-02  0.1312668E+00
        -11   -1    0    0    0    0  0.00000000000E+00  0.00000000000E+00  0.45593999997E+02  0.45594000000E+02  0.51100000000E-03 0. -1.
         11   -1    0    0    0    0 -0.00000000000E+00 -0.00000000000E+00 -0.45593999997E+02  0.45594000000E+02  0.51100000000E-03 0.  1.
    9900012    2    1    2    0    0 -0.46344784295E+01 -0.19077525610E+02  0.38706499144E+02  0.47787269019E+02  0.19999990764E+02 0.  0.
        -12    1    1    2    0    0  0.46344784295E+01  0.19077525610E+02 -0.38706499144E+02  0.43400730981E+02  0.00000000000E+00 0.  1.
         11    1    3    3    0    0  0.22460573749E+01 -0.10735648869E+02  0.69670839969E+01  0.12993813530E+02  0.51100000000E-03 0.  1.
        -11    1    3    3    0    0 -0.50698742120E+01 -0.74254941691E+01  0.12233340262E+02  0.15182101383E+02  0.51100000000E-03 0. -1.
        -12    1    3    3    0    0 -0.18106615924E+01 -0.91638257137E+00  0.19506074885E+02  0.19611354106E+02  0.00000000000E+00 0.  1.
</event>
<event>
 7    1  0.2294216E-010  0.4778727E+02  0.7816164E-02  0.1312668E+00
        -11   -1    0    0    0    0  0.00000000000E+00  0.00000000000E+00  0.45593999997E+02  0.45594000000E+02  0.51100000000E-03 0. -1.
         11   -1    0    0    0    0 -0.00000000000E+00 -0.00000000000E+00 -0.45593999997E+02  0.45594000000E+02  0.51100000000E-03 0.  1.
    9900012    2    1    2    0    0 -0.11155732768E+02 -0.14061490027E+02  0.39515154680E+02  0.47787270458E+02  0.19999997328E+02 0.  0.
        -12    1    1    2    0    0  0.11155732768E+02  0.14061490027E+02 -0.39515154680E+02  0.43400729542E+02  0.00000000000E+00 0.  1.
         11    1    3    3    0    0 -0.48484655576E+01 -0.26067484655E+01  0.10479981198E+02  0.11837768455E+02  0.51100000000E-03 0. -1.
        -11    1    3    3    0    0 -0.55074619046E+01 -0.33587427921E+01  0.26724888236E+02  0.27492416068E+02  0.51100000000E-03 0.  1.
        -12    1    3    3    0    0 -0.79980530539E+00 -0.80959987692E+01  0.23102852459E+01  0.84570859352E+01  0.00000000000E+00 0.  1.
</event>
<event>
 7    1  0.2294216E-010  0.4778727E+02  0.7816164E-02  0.1312668E+00
        -11   -1    0    0    0    0  0.00000000000E+00  0.00000000000E+00  0.45593999997E+02  0.45594000000E+02  0.51100000000E-03 0.  1.
         11   -1    0    0    0    0 -0.00000000000E+00 -0.00000000000E+00 -0.45593999997E+02  0.45594000000E+02  0.51100000000E-03 0. -1.
    9900012    2    1    2    0    0  0.36733071950E+02  0.78413242315E+01 -0.21744393663E+02  0.47787267329E+02  0.19999983059E+02 0.  0.
        -12    1    1    2    0    0 -0.36733071950E+02 -0.78413242315E+01  0.21744393663E+02  0.43400732671E+02  0.00000000000E+00 0.  1.
         11    1    3    3    0    0  0.22815385462E+02  0.58634818465E+01 -0.13140844310E+02  0.26974136178E+02  0.51100000000E-03 0. -1.
        -11    1    3    3    0    0  0.78850154941E+01  0.58743652970E+01 -0.30346144510E+00  0.98373637776E+01  0.51100000000E-03 0.  1.
        -12    1    3    3    0    0  0.60326709944E+01 -0.38965229119E+01 -0.83000879089E+01  0.10975767373E+02  0.00000000000E+00 0.  1.
</event>
<event>
 7    1  0.2294216E-010  0.4778727E+02  0.7816164E-02  0.1312668E+00
        -11   -1    0    0    0    0  0.00000000000E+00  0.00000000000E+00  0.45593999997E+02  0.45594000000E+02  0.51100000000E-03 0.  1.
         11   -1    0    0    0    0 -0.00000000000E+00 -0.00000000000E+00 -0.45593999997E+02  0.45594000000E+02  0.51100000000E-03 0. -1.
    9900012    2    1    2    0    0  0.36633960046E+02  0.14617853753E+02 -0.18107865033E+02  0.47787268980E+02  0.19999990586E+02 0.  0.
        -12    1    1    2    0    0 -0.36633960046E+02 -0.14617853753E+02  0.18107865033E+02  0.43400731020E+02  0.00000000000E+00 0.  1.
         11    1    3    3    0    0  0.65884922256E+01 -0.44130220095E+01 -0.20876574247E+01  0.82000796854E+01  0.51100000000E-03 0. -1.
        -11    1    3    3    0    0  0.40390783227E+01  0.24202561868E+01  0.22452465460E+00  0.47140434118E+01  0.51100000000E-03 0.  1.
        -12    1    3    3    0    0  0.26006389498E+02  0.16610619576E+02 -0.16244732263E+02  0.34873145882E+02  0.00000000000E+00 0.  1.
</event>
<event>
 7    1  0.2294216E-010  0.4778727E+02  0.7816164E-02  0.1312668E+00
        -11   -1    0    0    0    0  0.00000000000E+00  0.00000000000E+00  0.45593999997E+02  0.45594000000E+02  0.51100000000E-03 0.  1.
         11   -1    0    0    0    0 -0.00000000000E+00 -0.00000000000E+00 -0.45593999997E+02  0.45594000000E+02  0.51100000000E-03 0. -1.
    9900012    2    1    2    0    0  0.94415921094E+01 -0.35940837945E+02 -0.22421769926E+02  0.47787271200E+02  0.20000000707E+02 0.  0.
        -12    1    1    2    0    0 -0.94415921094E+01  0.35940837945E+02  0.22421769926E+02  0.43400728800E+02  0.00000000000E+00 0.  1.
         11    1    3    3    0    0 -0.32105867352E+01 -0.70241151254E+01 -0.10810118932E+02  0.13285508348E+02  0.51100000000E-03 0. -1.
        -11    1    3    3    0    0  0.23078873148E+01 -0.38763848712E+01  0.99447531928E+00  0.46197061540E+01  0.51100000000E-03 0.  1.
         12    1    3    3    0    0  0.10344291530E+02 -0.25040337949E+02 -0.12606126314E+02  0.29882056698E+02  0.00000000000E+00 0. -1.
</event>
<event>
 7    1  0.2294216E-010  0.4778727E+02  0.7816164E-02  0.1312668E+00
        -11   -1    0    0    0    0  0.00000000000E+00  0.00000000000E+00  0.45593999997E+02  0.45594000000E+02  0.51100000000E-03 0. -1.
         11   -1    0    0    0    0 -0.00000000000E+00 -0.00000000000E+00 -0.45593999997E+02  0.45594000000E+02  0.51100000000E-03 0.  1.
    9900012    2    1    2    0    0 -0.43078105361E+02  0.51214218647E+01 -0.12927017962E+01  0.47787271880E+02  0.20000003808E+02 0.  0.
        -12    1    1    2    0    0  0.43078105361E+02 -0.51214218647E+01  0.12927017962E+01  0.43400728120E+02  0.00000000000E+00 0.  1.
         11    1    3    3    0    0 -0.20829801548E+02 -0.38841412708E+01  0.37173121179E+01  0.21512452106E+02  0.51100000000E-03 0. -1.
        -11    1    3    3    0    0 -0.86060672699E+01 -0.12889977783E+01 -0.16582419785E+01  0.88586497756E+01  0.51100000000E-03 0.  1.
        -12    1    3    3    0    0 -0.13642236543E+02  0.10294560914E+02 -0.33517719356E+01  0.17416169999E+02  0.00000000000E+00 0.  1.
</event>
<event>
 7    1  0.2294216E-010  0.4778727E+02  0.7816164E-02  0.1312668E+00
        -11   -1    0    0    0    0  0.00000000000E+00  0.00000000000E+00  0.45593999997E+02  0.45594000000E+02  0.51100000000E-03 0. -1.
         11   -1    0    0    0    0 -0.00000000000E+00 -0.00000000000E+00 -0.45593999997E+02  0.45594000000E+02  0.51100000000E-03 0.  1.
    9900012    2    1    2    0    0  0.33078301828E+02  0.26305517409E+02  0.98726365609E+01  0.47787271312E+02  0.20000001221E+02 0.  0.
        -12    1    1    2    0    0 -0.33078301828E+02 -0.26305517409E+02 -0.98726365609E+01  0.43400728688E+02  0.00000000000E+00 0.  1.
         11    1    3    3    0    0  0.23253646302E+02  0.11211752829E+02  0.11341770944E+02  0.28197007577E+02  0.51100000000E-03 0. -1.
        -11    1    3    3    0    0  0.40868029907E+00 -0.43073326635E+00  0.11024970052E+01  0.12522182881E+01  0.51100000000E-03 0.  1.
        -12    1    3    3    0    0  0.94159752261E+01  0.15524497846E+02 -0.25716313885E+01  0.18338045447E+02  0.00000000000E+00 0.  1.
</event>
<event>
 7    1  0.2294216E-010  0.4778727E+02  0.7816164E-02  0.1312668E+00
        -11   -1    0    0    0    0  0.00000000000E+00  0.00000000000E+00  0.45593999997E+02  0.45594000000E+02  0.51100000000E-03 0.  1.
         11   -1    0    0    0    0 -0.00000000000E+00 -0.00000000000E+00 -0.45593999997E+02  0.45594000000E+02  0.51100000000E-03 0. -1.
    9900012    2    1    2    0    0 -0.38646684607E+02 -0.19516938955E+01 -0.19653185446E+02  0.47787273758E+02  0.20000012371E+02 0.  0.
        -12    1    1    2    0    0  0.38646684607E+02  0.19516938955E+01  0.19653185446E+02  0.43400726242E+02  0.00000000000E+00 0.  1.
         11    1    3    3    0    0 -0.14448462665E+02  0.68835051822E+01 -0.14059738150E+02  0.21302979934E+02  0.51100000000E-03 0. -1.
        -11    1    3    3    0    0 -0.42743152716E+01 -0.10467887723E+01 -0.11631599352E+00  0.44021662220E+01  0.51100000000E-03 0.  1.
         12    1    3    3    0    0 -0.19923906670E+02 -0.77884103054E+01 -0.54771313025E+01  0.22082127601E+02  0.00000000000E+00 0. -1.
</event>
<event>
 7    1  0.2294216E-010  0.4778727E+02  0.7816164E-02  0.1312668E+00
        -11   -1    0    0    0    0  0.00000000000E+00  0.00000000000E+00  0.45593999997E+02  0.45594000000E+02  0.51100000000E-03 0. -1.
         11   -1    0    0    0    0 -0.00000000000E+00 -0.00000000000E+00 -0.45593999997E+02  0.45594000000E+02  0.51100000000E-03 0.  1.
    9900012    2    1    2    0    0  0.37794539387E+02  0.74217834287E+01  0.20002826548E+02  0.47787272510E+02  0.20000006684E+02 0.  0.
        -12    1    1    2    0    0 -0.37794539387E+02 -0.74217834287E+01 -0.20002826548E+02  0.43400727490E+02  0.00000000000E+00 0.  1.
         11    1    3    3    0    0  0.11856187260E+02  0.85868739519E+01  0.64322845067E+01  0.15989930108E+02  0.51100000000E-03 0. -1.
        -11    1    3    3    0    0  0.12155555750E+02  0.54741835270E+01  0.48387537352E+01  0.14182304427E+02  0.51100000000E-03 0.  1.
        -12    1    3    3    0    0  0.13782796377E+02 -0.66392740501E+01  0.87317883060E+01  0.17615037976E+02  0.00000000000E+00 0.  1.
</event>
<event>
 7    1  0.2294216E-010  0.4778727E+02  0.7816164E-02  0.1312668E+00
        -11   -1    0    0    0    0  0.00000000000E+00  0.00000000000E+00  0.45593999997E+02  0.45594000000E+02  0.51100000000E-03 0.  1.
         11   -1    0    0    0    0 -0.00000000000E+00 -0.00000000000E+00 -0.45593999997E+02  0.45594000000E+02  0.51100000000E-03 0. -1.
    9900012    2    1    2    0    0  0.16429521239E+02  0.20889529074E+02 -0.34312118854E+02  0.47787273125E+02  0.20000009485E+02 0.  0.
        -12    1    1    2    0    0 -0.16429521239E+02 -0.20889529074E+02  0.34312118854E+02  0.43400726875E+02  0.00000000000E+00 0.  1.
         11    1    3    3    0    0  0.43538790185E+01  0.33438697208E+01 -0.64031786908E+01  0.84343597757E+01  0.51100000000E-03 0. -1.
        -11    1    3    3    0    0 -0.30666247746E+01  0.63977985876E+01 -0.20588900101E+01  0.73874923086E+01  0.51100000000E-03 0.  1.
        -12    1    3    3    0    0  0.15142266995E+02  0.11147860765E+02 -0.25850050153E+02  0.31965421041E+02  0.00000000000E+00 0.  1.
</event>
<event>
 7    1  0.2294216E-010  0.4778727E+02  0.7816164E-02  0.1312668E+00
        -11   -1    0    0    0    0  0.00000000000E+00  0.00000000000E+00  0.45593999997E+02  0.45594000000E+02  0.51100000000E-03 0.  1.
         11   -1    0    0    0    0 -0.00000000000E+00 -0.00000000000E+00 -0.45593999997E+02  0.45594000000E+02  0.51100000000E-03 0. -1.
    9900012    2    1    2    0    0 -0.29707918374E+02 -0.10666558640E+02 -0.29787370610E+02  0.47787270338E+02  0.19999996778E+02 0.  0.
        -12    1    1    2    0    0  0.29707918374E+02  0.10666558640E+02  0.29787370610E+02  0.43400729662E+02  0.00000000000E+00 0.  1.
         11    1    3    3    0    0 -0.14522628006E+02  0.29523198749E-01 -0.72654777925E+01  0.16238681093E+02  0.51100000000E-03 0. -1.
        -11    1    3    3    0    0 -0.68966171932E+01  0.11950549423E+00 -0.25145225203E+01  0.73416914972E+01  0.51100000000E-03 0.  1.
         12    1    3    3    0    0 -0.82886731748E+01 -0.10815587333E+02 -0.20007370297E+02  0.24206897748E+02  0.00000000000E+00 0. -1.
</event>
<event>
 7    1  0.2294216E-010  0.4778727E+02  0.7816164E-02  0.1312668E+00
        -11   -1    0    0    0    0  0.00000000000E+00  0.00000000000E+00  0.45593999997E+02  0.45594000000E+02  0.51100000000E-03 0. -1.
         11   -1    0    0    0    0 -0.00000000000E+00 -0.00000000000E+00 -0.45593999997E+02  0.45594000000E+02  0.51100000000E-03 0.  1.
    9900012    2    1    2    0    0  0.15797183150E+02 -0.27332004930E+02 -0.29783120306E+02  0.47787265627E+02  0.19999975300E+02 0.  0.
        -12    1    1    2    0    0 -0.15797183150E+02  0.27332004930E+02  0.29783120306E+02  0.43400734373E+02  0.00000000000E+00 0.  1.
         11    1    3    3    0    0  0.12024861684E+02 -0.22306421009E+02 -0.20155839779E+02  0.32379493421E+02  0.51100000000E-03 0. -1.
        -11    1    3    3    0    0  0.66996298163E+01 -0.36583259426E+01 -0.33260434604E+01  0.83265211067E+01  0.51100000000E-03 0.  1.
        -12    1    3    3    0    0 -0.29273083512E+01 -0.13672579791E+01 -0.63012370667E+01  0.70812510996E+01  0.00000000000E+00 0.  1.
</event>
<event>
 7    1  0.2294216E-010  0.4778727E+02  0.7816164E-02  0.1312668E+00
        -11   -1    0    0    0    0  0.00000000000E+00  0.00000000000E+00  0.45593999997E+02  0.45594000000E+02  0.51100000000E-03 0.  1.
         11   -1    0    0    0    0 -0.00000000000E+00 -0.00000000000E+00 -0.45593999997E+02  0.45594000000E+02  0.51100000000E-03 0. -1.
    9900012    2    1    2    0    0  0.29648073278E+02  0.80018230857E+01 -0.30668969276E+02  0.47787273068E+02  0.20000009225E+02 0.  0.
        -12    1    1    2    0    0 -0.29648073278E+02 -0.80018230857E+01  0.30668969276E+02  0.43400726932E+02  0.00000000000E+00 0.  1.
         11    1    3    3    0    0 -0.26397051789E+00  0.52459498204E+00 -0.29801726641E+00  0.65855514704E+00  0.51100000000E-03 0. -1.
        -11    1    3    3    0    0  0.13283152206E+02 -0.27347648692E+01 -0.36565770573E+01  0.14046053804E+02  0.51100000000E-03 0.  1.
         12    1    3    3    0    0  0.16628891590E+02  0.10211992973E+02 -0.26714374952E+02  0.33082664117E+02  0.00000000000E+00 0. -1.
</event>
<event>
 7    1  0.2294216E-010  0.4778725E+02  0.7816164E-02  0.1312668E+00
        -11   -1    0    0    0    0  0.00000000000E+00  0.00000000000E+00  0.45593999997E+02  0.45594000000E+02  0.51100000000E-03 0.  1.
         11   -1    0    0    0    0 -0.00000000000E+00 -0.00000000000E+00 -0.45593999997E+02  0.45594000000E+02  0.51100000000E-03 0. -1.
    9900012    2    1    2    0    0 -0.10771918298E+02 -0.37580099990E+02 -0.18850121093E+02  0.47787248805E+02  0.19999898601E+02 0.  0.
        -12    1    1    2    0    0  0.10771918298E+02  0.37580099990E+02  0.18850121093E+02  0.43400751195E+02  0.00000000000E+00 0.  1.
         11    1    3    3    0    0 -0.18806864900E+00 -0.12218760054E+02 -0.22434122557E+01  0.12424426179E+02  0.51100000000E-03 0. -1.
        -11    1    3    3    0    0  0.11133742464E+01 -0.15421858633E+02 -0.54799465829E+01  0.16404363466E+02  0.51100000000E-03 0.  1.
         12    1    3    3    0    0 -0.11697223896E+02 -0.99394813026E+01 -0.11126762255E+02  0.18958459160E+02  0.00000000000E+00 0. -1.
</event>
<event>
 7    1  0.2294216E-010  0.4778727E+02  0.7816164E-02  0.1312668E+00
        -11   -1    0    0    0    0  0.00000000000E+00  0.00000000000E+00  0.45593999997E+02  0.45594000000E+02  0.51100000000E-03 0.  1.
         11   -1    0    0    0    0 -0.00000000000E+00 -0.00000000000E+00 -0.45593999997E+02  0.45594000000E+02  0.51100000000E-03 0. -1.
    9900012    2    1    2    0    0  0.17811897620E+01 -0.37131798545E+02 -0.22398214674E+02  0.47787272808E+02  0.20000008042E+02 0.  0.
        -12    1    1    2    0    0 -0.17811897620E+01  0.37131798545E+02  0.22398214674E+02  0.43400727192E+02  0.00000000000E+00 0.  1.
         11    1    3    3    0    0  0.61751853645E+01 -0.19989708843E+02 -0.14658754780E+02  0.25546045993E+02  0.51100000000E-03 0. -1.
        -11    1    3    3    0    0  0.10945414297E+01  0.82601718295E+00 -0.23072607278E+01  0.26839854052E+01  0.51100000000E-03 0.  1.
         12    1    3    3    0    0 -0.54885370322E+01 -0.17968106885E+02 -0.54321991662E+01  0.19557241410E+02  0.00000000000E+00 0. -1.
</event>
<event>
 7    1  0.2294216E-010  0.4778727E+02  0.7816164E-02  0.1312668E+00
        -11   -1    0    0    0    0  0.00000000000E+00  0.00000000000E+00  0.45593999997E+02  0.45594000000E+02  0.51100000000E-03 0.  1.
         11   -1    0    0    0    0 -0.00000000000E+00 -0.00000000000E+00 -0.45593999997E+02  0.45594000000E+02  0.51100000000E-03 0. -1.
    9900012    2    1    2    0    0 -0.14077782889E+02 -0.34993866601E+02 -0.21467857756E+02  0.47787267432E+02  0.19999983531E+02 0.  0.
        -12    1    1    2    0    0  0.14077782889E+02  0.34993866601E+02  0.21467857756E+02  0.43400732568E+02  0.00000000000E+00 0.  1.
         11    1    3    3    0    0 -0.10470939640E+01 -0.27400497659E-01 -0.53791163741E+00  0.11774997866E+01  0.51100000000E-03 0. -1.
        -11    1    3    3    0    0 -0.10488336821E+02 -0.31339964359E+02 -0.24319930593E+02  0.41032396952E+02  0.51100000000E-03 0.  1.
        -12    1    3    3    0    0 -0.25423521037E+01 -0.36265017441E+01  0.33899844742E+01  0.55773706936E+01  0.00000000000E+00 0.  1.
</event>
<event>
 7    1  0.2294216E-010  0.4778727E+02  0.7816164E-02  0.1312668E+00
        -11   -1    0    0    0    0  0.00000000000E+00  0.00000000000E+00  0.45593999997E+02  0.45594000000E+02  0.51100000000E-03 0.  1.
         11   -1    0    0    0    0 -0.00000000000E+00 -0.00000000000E+00 -0.45593999997E+02  0.45594000000E+02  0.51100000000E-03 0. -1.
    9900012    2    1    2    0    0 -0.54688235422E+01  0.41929912529E+02  0.97773975423E+01  0.47787273067E+02  0.20000009222E+02 0.  0.
        -12    1    1    2    0    0  0.54688235422E+01 -0.41929912529E+02 -0.97773975423E+01  0.43400726933E+02  0.00000000000E+00 0.  1.
         11    1    3    3    0    0 -0.49119164388E+00  0.12950659110E+00 -0.84120930683E+00  0.98268741071E+00  0.51100000000E-03 0. -1.
        -11    1    3    3    0    0 -0.50260848985E+01  0.84113696541E+01  0.91134342101E+01  0.13381604994E+02  0.51100000000E-03 0.  1.
         12    1    3    3    0    0  0.48453000187E-01  0.33389036284E+02  0.15051726390E+01  0.33422980662E+02  0.00000000000E+00 0. -1.
</event>
<event>
 7    1  0.2294216E-010  0.4778727E+02  0.7816164E-02  0.1312668E+00
        -11   -1    0    0    0    0  0.00000000000E+00  0.00000000000E+00  0.45593999997E+02  0.45594000000E+02  0.51100000000E-03 0.  1.
         11   -1    0    0    0    0 -0.00000000000E+00 -0.00000000000E+00 -0.45593999997E+02  0.45594000000E+02  0.51100000000E-03 0. -1.
    9900012    2    1    2    0    0 -0.27245016862E+02  0.12104730509E+02 -0.31540569212E+02  0.47787274767E+02  0.20000016974E+02 0.  0.
        -12    1    1    2    0    0  0.27245016862E+02 -0.12104730509E+02  0.31540569212E+02  0.43400725233E+02  0.00000000000E+00 0.  1.
         11    1    3    3    0    0 -0.13400064730E+02  0.18485526792E+01 -0.14494092692E+02  0.19825680443E+02  0.51100000000E-03 0. -1.
        -11    1    3    3    0    0 -0.11279052261E+02  0.26626688831E+01 -0.33013054885E+01  0.12050122144E+02  0.51100000000E-03 0.  1.
         12    1    3    3    0    0 -0.25658998701E+01  0.75935089469E+01 -0.13745171032E+02  0.15911472181E+02  0.00000000000E+00 0. -1.
</event>
<event>
 7    1  0.2294216E-010  0.4778727E+02  0.7816164E-02  0.1312668E+00
        -11   -1    0    0    0    0  0.00000000000E+00  0.00000000000E+00  0.45593999997E+02  0.45594000000E+02  0.51100000000E-03 0.  1.
         11   -1    0    0    0    0 -0.00000000000E+00 -0.00000000000E+00 -0.45593999997E+02  0.45594000000E+02  0.51100000000E-03 0. -1.
    9900012    2    1    2    0    0 -0.19589924770E+02 -0.48241903755E+01 -0.38426358006E+02  0.47787274719E+02  0.20000016754E+02 0.  0.
        -12    1    1    2    0    0  0.19589924770E+02  0.48241903755E+01  0.38426358006E+02  0.43400725281E+02  0.00000000000E+00 0.  1.
         11    1    3    3    0    0 -0.26934629704E+01 -0.20938259831E+01 -0.30143963650E+01  0.45525197119E+01  0.51100000000E-03 0. -1.
        -11    1    3    3    0    0 -0.70706402970E+01  0.20014830204E+01 -0.30321758343E+02  0.31199501883E+02  0.51100000000E-03 0.  1.
        -12    1    3    3    0    0 -0.98258215025E+01 -0.47318474129E+01 -0.50902032983E+01  0.12035253124E+02  0.00000000000E+00 0.  1.
</event>
<event>
 7    1  0.2294216E-010  0.4778727E+02  0.7816164E-02  0.1312668E+00
        -11   -1    0    0    0    0  0.00000000000E+00  0.00000000000E+00  0.45593999997E+02  0.45594000000E+02  0.51100000000E-03 0. -1.
         11   -1    0    0    0    0 -0.00000000000E+00 -0.00000000000E+00 -0.45593999997E+02  0.45594000000E+02  0.51100000000E-03 0.  1.
    9900012    2    1    2    0    0 -0.18541696036E+02  0.48004260059E+01  0.38945921293E+02  0.47787269971E+02  0.19999995105E+02 0.  0.
        -12    1    1    2    0    0  0.18541696036E+02 -0.48004260059E+01 -0.38945921293E+02  0.43400730029E+02  0.00000000000E+00 0.  1.
         11    1    3    3    0    0 -0.11651225971E+02  0.32671785172E+01  0.36895730363E+02  0.38829376011E+02  0.51100000000E-03 0. -1.
        -11    1    3    3    0    0 -0.59508206771E+01  0.26910544945E+01  0.30030185511E+01  0.71883351134E+01  0.51100000000E-03 0.  1.
        -12    1    3    3    0    0 -0.93964938801E+00 -0.11578070058E+01 -0.95282762163E+00  0.17695588466E+01  0.00000000000E+00 0.  1.
</event>
<event>
 7    1  0.2294216E-010  0.4778727E+02  0.7816164E-02  0.1312668E+00
        -11   -1    0    0    0    0  0.00000000000E+00  0.00000000000E+00  0.45593999997E+02  0.45594000000E+02  0.51100000000E-03 0.  1.
         11   -1    0    0    0    0 -0.00000000000E+00 -0.00000000000E+00 -0.45593999997E+02  0.45594000000E+02  0.51100000000E-03 0. -1.
    9900012    2    1    2    0    0  0.21642850516E+02 -0.14277557415E+02 -0.34804620317E+02  0.47787271669E+02  0.20000002849E+02 0.  0.
        -12    1    1    2    0    0 -0.21642850516E+02  0.14277557415E+02  0.34804620317E+02  0.43400728331E+02  0.00000000000E+00 0.  1.
         11    1    3    3    0    0  0.11957724899E+02 -0.10402302539E+02 -0.16617027675E+02  0.22963464283E+02  0.51100000000E-03 0. -1.
        -11    1    3    3    0    0  0.55793718480E+01 -0.35623433187E+01 -0.19426855077E+02  0.20523702848E+02  0.51100000000E-03 0.  1.
        -12    1    3    3    0    0  0.41057537691E+01 -0.31291155689E+00  0.12392624349E+01  0.43001045380E+01  0.00000000000E+00 0.  1.
</event>
<event>
 7    1  0.2294216E-010  0.4778727E+02  0.7816164E-02  0.1312668E+00
        -11   -1    0    0    0    0  0.00000000000E+00  0.00000000000E+00  0.45593999997E+02  0.45594000000E+02  0.51100000000E-03 0.  1.
         11   -1    0    0    0    0 -0.00000000000E+00 -0.00000000000E+00 -0.45593999997E+02  0.45594000000E+02  0.51100000000E-03 0. -1.
    9900012    2    1    2    0    0 -0.19003941154E+02  0.36438152227E+02 -0.13954737551E+02  0.47787269393E+02  0.19999992472E+02 0.  0.
        -12    1    1    2    0    0  0.19003941154E+02 -0.36438152227E+02  0.13954737551E+02  0.43400730607E+02  0.00000000000E+00 0.  1.
         11    1    3    3    0    0 -0.37158929393E+00  0.12688615699E+02 -0.44341278435E+01  0.13446209018E+02  0.51100000000E-03 0. -1.
        -11    1    3    3    0    0 -0.93032239660E+01  0.12082084237E+02 -0.11731928741E+02  0.19239669642E+02  0.51100000000E-03 0.  1.
        -12    1    3    3    0    0 -0.93291278939E+01  0.11667452290E+02  0.22113190340E+01  0.15101390733E+02  0.00000000000E+00 0.  1.
</event>
<event>
 7    1  0.2294216E-010  0.4778727E+02  0.7816164E-02  0.1312668E+00
        -11   -1    0    0    0    0  0.00000000000E+00  0.00000000000E+00  0.45593999997E+02  0.45594000000E+02  0.51100000000E-03 0.  1.
         11   -1    0    0    0    0 -0.00000000000E+00 -0.00000000000E+00 -0.45593999997E+02  0.45594000000E+02  0.51100000000E-03 0. -1.
    9900012    2    1    2    0    0  0.68083831842E+01  0.33088493519E+02 -0.27247399906E+02  0.47787270898E+02  0.19999999335E+02 0.  0.
        -12    1    1    2    0    0 -0.68083831842E+01 -0.33088493519E+02  0.27247399906E+02  0.43400729102E+02  0.00000000000E+00 0.  1.
         11    1    3    3    0    0  0.27537639373E+01  0.77776651003E+01 -0.43628240800E+01  0.93332483332E+01  0.51100000000E-03 0. -1.
        -11    1    3    3    0    0  0.50098032824E+00  0.21188694995E+02 -0.24856044536E+02  0.32665497503E+02  0.51100000000E-03 0.  1.
        -12    1    3    3    0    0  0.35536389186E+01  0.41221334238E+01  0.19714687101E+01  0.57885250628E+01  0.00000000000E+00 0.  1.
</event>
<event>
 7    1  0.2294216E-010  0.4778727E+02  0.7816164E-02  0.1312668E+00
        -11   -1    0    0    0    0  0.00000000000E+00  0.00000000000E+00  0.45593999997E+02  0.45594000000E+02  0.51100000000E-03 0.  1.
         11   -1    0    0    0    0 -0.00000000000E+00 -0.00000000000E+00 -0.45593999997E+02  0.45594000000E+02  0.51100000000E-03 0. -1.
    9900012    2    1    2    0    0 -0.40648612865E+02 -0.11918411529E+02 -0.94480045134E+01  0.47787273618E+02  0.20000011732E+02 0.  0.
        -12    1    1    2    0    0  0.40648612865E+02  0.11918411529E+02  0.94480045134E+01  0.43400726382E+02  0.00000000000E+00 0.  1.
         11    1    3    3    0    0 -0.82200385997E+01  0.27941473753E+01 -0.30577085820E+01  0.92046659998E+01  0.51100000000E-03 0. -1.
        -11    1    3    3    0    0 -0.13778420365E+01  0.19996360915E+01  0.87168448029E+00  0.25800828030E+01  0.51100000000E-03 0.  1.
         12    1    3    3    0    0 -0.31050732229E+02 -0.16712194996E+02 -0.72619804116E+01  0.36002524815E+02  0.00000000000E+00 0. -1.
</event>
<event>
 7    1  0.2294216E-010  0.4778725E+02  0.7816164E-02  0.1312668E+00
        -11   -1    0    0    0    0  0.00000000000E+00  0.00000000000E+00  0.45593999997E+02  0.45594000000E+02  0.51100000000E-03 0.  1.
         11   -1    0    0    0    0 -0.00000000000E+00 -0.00000000000E+00 -0.45593999997E+02  0.45594000000E+02  0.51100000000E-03 0. -1.
    9900012    2    1    2    0    0 -0.26809126973E+02 -0.98506610405E+01 -0.32678131308E+02  0.47787250263E+02  0.19999905248E+02 0.  0.
        -12    1    1    2    0    0  0.26809126973E+02  0.98506610405E+01  0.32678131308E+02  0.43400749737E+02  0.00000000000E+00 0.  1.
         11    1    3    3    0    0 -0.42858802944E+01 -0.60959873366E+01 -0.26978233334E+01  0.79251550462E+01  0.51100000000E-03 0. -1.
        -11    1    3    3    0    0 -0.39549166285E+01 -0.78949559252E+00  0.48408197323E+00  0.40618966564E+01  0.51100000000E-03 0.  1.
        -12    1    3    3    0    0 -0.18568330050E+02 -0.29651781113E+01 -0.30464389947E+02  0.35800198560E+02  0.00000000000E+00 0.  1.
</event>
<event>
 7    1  0.2294216E-010  0.4778727E+02  0.7816164E-02  0.1312668E+00
        -11   -1    0    0    0    0  0.00000000000E+00  0.00000000000E+00  0.45593999997E+02  0.45594000000E+02  0.51100000000E-03 0.  1.
         11   -1    0    0    0    0 -0.00000000000E+00 -0.00000000000E+00 -0.45593999997E+02  0.45594000000E+02  0.51100000000E-03 0. -1.
    9900012    2    1    2    0    0 -0.20625450080E+02  0.20738980710E+02 -0.32064133962E+02  0.47787271911E+02  0.20000003953E+02 0.  0.
        -12    1    1    2    0    0  0.20625450080E+02 -0.20738980710E+02  0.32064133962E+02  0.43400728089E+02  0.00000000000E+00 0.  1.
         11    1    3    3    0    0  0.21947808655E+01  0.78575725835E+00 -0.40268510898E+01  0.46529568532E+01  0.51100000000E-03 0. -1.
        -11    1    3    3    0    0 -0.23717564626E+01  0.53960678083E+01 -0.11939047746E+02  0.13314790191E+02  0.51100000000E-03 0.  1.
         12    1    3    3    0    0 -0.20448474482E+02  0.14557155644E+02 -0.16098235127E+02  0.29819524867E+02  0.00000000000E+00 0. -1.
</event>
<event>
 7    1  0.2294216E-010  0.4778727E+02  0.7816164E-02  0.1312668E+00
        -11   -1    0    0    0    0  0.00000000000E+00  0.00000000000E+00  0.45593999997E+02  0.45594000000E+02  0.51100000000E-03 0.  1.
         11   -1    0    0    0    0 -0.00000000000E+00 -0.00000000000E+00 -0.45593999997E+02  0.45594000000E+02  0.51100000000E-03 0. -1.
    9900012    2    1    2    0    0  0.28816292232E+02 -0.89129099109E+01 -0.31205850225E+02  0.47787265567E+02  0.19999975026E+02 0.  0.
        -12    1    1    2    0    0 -0.28816292232E+02  0.89129099109E+01  0.31205850225E+02  0.43400734433E+02  0.00000000000E+00 0.  1.
         11    1    3    3    0    0  0.12700455403E+02  0.66348421046E+00 -0.14013250858E+02  0.18923873246E+02  0.51100000000E-03 0. -1.
        -11    1    3    3    0    0  0.18460608964E+02 -0.74625044575E+01 -0.15771810109E+02  0.25401437961E+02  0.51100000000E-03 0.  1.
        -12    1    3    3    0    0 -0.23447721354E+01 -0.21138896639E+01 -0.14207892580E+01  0.34619543605E+01  0.00000000000E+00 0.  1.
</event>
<event>
 7    1  0.2294216E-010  0.4778727E+02  0.7816164E-02  0.1312668E+00
        -11   -1    0    0    0    0  0.00000000000E+00  0.00000000000E+00  0.45593999997E+02  0.45594000000E+02  0.51100000000E-03 0. -1.
         11   -1    0    0    0    0 -0.00000000000E+00 -0.00000000000E+00 -0.45593999997E+02  0.45594000000E+02  0.51100000000E-03 0.  1.
    9900012    2    1    2    0    0  0.41011674177E+02 -0.13010040322E+02  0.56925265315E+01  0.47787269289E+02  0.19999991995E+02 0.  0.
        -12    1    1    2    0    0 -0.41011674177E+02  0.13010040322E+02 -0.56925265315E+01  0.43400730711E+02  0.00000000000E+00 0.  1.
         11    1    3    3    0    0  0.16104022802E+02 -0.25685459244E+01 -0.82273730302E+00  0.16328315146E+02  0.51100000000E-03 0. -1.
        -11    1    3    3    0    0  0.18134504133E+02 -0.79062319830E+00  0.74725954420E+01  0.19629697096E+02  0.51100000000E-03 0.  1.
         12    1    3    3    0    0  0.67731472422E+01 -0.96508711994E+01 -0.95733160754E+00  0.11829257047E+02  0.00000000000E+00 0. -1.
</event>
<event>
 7    1  0.2294216E-010  0.4778727E+02  0.7816164E-02  0.1312668E+00
        -11   -1    0    0    0    0  0.00000000000E+00  0.00000000000E+00  0.45593999997E+02  0.45594000000E+02  0.51100000000E-03 0.  1.
         11   -1    0    0    0    0 -0.00000000000E+00 -0.00000000000E+00 -0.45593999997E+02  0.45594000000E+02  0.51100000000E-03 0. -1.
    9900012    2    1    2    0    0 -0.18195858455E+02  0.31538225689E+02 -0.23619362339E+02  0.47787271644E+02  0.20000002733E+02 0.  0.
        -12    1    1    2    0    0  0.18195858455E+02 -0.31538225689E+02  0.23619362339E+02  0.43400728356E+02  0.00000000000E+00 0.  1.
         11    1    3    3    0    0 -0.51026305047E+01  0.20240793169E+02 -0.15948917027E+02  0.26269649803E+02  0.51100000000E-03 0.  1.
        -11    1    3    3    0    0 -0.17498128205E+01  0.72708218094E+01 -0.55083631441E+01  0.92880977320E+01  0.51100000000E-03 0. -1.
        -12    1    3    3    0    0 -0.11343415130E+02  0.40266107110E+01 -0.21620821682E+01  0.12229524109E+02  0.00000000000E+00 0.  1.
</event>
<event>
 7    1  0.2294216E-010  0.4778727E+02  0.7816164E-02  0.1312668E+00
        -11   -1    0    0    0    0  0.00000000000E+00  0.00000000000E+00  0.45593999997E+02  0.45594000000E+02  0.51100000000E-03 0.  1.
         11   -1    0    0    0    0 -0.00000000000E+00 -0.00000000000E+00 -0.45593999997E+02  0.45594000000E+02  0.51100000000E-03 0. -1.
    9900012    2    1    2    0    0  0.11435160118E+02  0.22898526291E+02 -0.35050218913E+02  0.47787271445E+02  0.20000001827E+02 0.  0.
        -12    1    1    2    0    0 -0.11435160118E+02 -0.22898526291E+02  0.35050218913E+02  0.43400728555E+02  0.00000000000E+00 0.  1.
         11    1    3    3    0    0  0.98153272557E+01  0.10041660263E+02 -0.97104276139E+01  0.17072433766E+02  0.51100000000E-03 0. -1.
        -11    1    3    3    0    0 -0.63407496177E+00  0.87340797087E+01 -0.55335281923E+01  0.10358867406E+02  0.51100000000E-03 0.  1.
         12    1    3    3    0    0  0.22539078241E+01  0.41227863185E+01 -0.19806263107E+02  0.20355970274E+02  0.00000000000E+00 0. -1.
</event>
<event>
 7    1  0.2294216E-010  0.4778727E+02  0.7816164E-02  0.1312668E+00
        -11   -1    0    0    0    0  0.00000000000E+00  0.00000000000E+00  0.45593999997E+02  0.45594000000E+02  0.51100000000E-03 0.  1.
         11   -1    0    0    0    0 -0.00000000000E+00 -0.00000000000E+00 -0.45593999997E+02  0.45594000000E+02  0.51100000000E-03 0. -1.
    9900012    2    1    2    0    0  0.15098963380E+02 -0.35958979349E+02 -0.19041965713E+02  0.47787270177E+02  0.19999996044E+02 0.  0.
        -12    1    1    2    0    0 -0.15098963380E+02  0.35958979349E+02  0.19041965713E+02  0.43400729823E+02  0.00000000000E+00 0.  1.
         11    1    3    3    0    0  0.73555379400E+01 -0.75632080531E+01 -0.10139746784E+02  0.14632857532E+02  0.51100000000E-03 0. -1.
        -11    1    3    3    0    0  0.79602368455E+01 -0.22450268570E+02 -0.11748110625E+02  0.26559330433E+02  0.51100000000E-03 0.  1.
        -12    1    3    3    0    0 -0.21681140594E+00 -0.59455027255E+01  0.28458916957E+01  0.65950822124E+01  0.00000000000E+00 0.  1.
</event>
<event>
 7    1  0.2294216E-010  0.4778726E+02  0.7816164E-02  0.1312668E+00
        -11   -1    0    0    0    0  0.00000000000E+00  0.00000000000E+00  0.45593999997E+02  0.45594000000E+02  0.51100000000E-03 0. -1.
         11   -1    0    0    0    0 -0.00000000000E+00 -0.00000000000E+00 -0.45593999997E+02  0.45594000000E+02  0.51100000000E-03 0.  1.
    9900012    2    1    2    0    0 -0.37957123463E+02 -0.22503135877E+01  0.20924085262E+02  0.47787257186E+02  0.19999936812E+02 0.  0.
        -12    1    1    2    0    0  0.37957123463E+02  0.22503135877E+01 -0.20924085262E+02  0.43400742814E+02  0.00000000000E+00 0.  1.
         11    1    3    3    0    0 -0.65944781697E+01  0.40262630954E+01  0.44117424987E+01  0.88972697486E+01  0.51100000000E-03 0. -1.
        -11    1    3    3    0    0 -0.60983008177E+01  0.46421318216E+01  0.30163539885E+01  0.82363251731E+01  0.51100000000E-03 0.  1.
        -12    1    3    3    0    0 -0.25264344475E+02 -0.10918708505E+02  0.13495988775E+02  0.30653662264E+02  0.00000000000E+00 0.  1.
</event>
<event>
 7    1  0.2294216E-010  0.4778727E+02  0.7816164E-02  0.1312668E+00
        -11   -1    0    0    0    0  0.00000000000E+00  0.00000000000E+00  0.45593999997E+02  0.45594000000E+02  0.51100000000E-03 0.  1.
         11   -1    0    0    0    0 -0.00000000000E+00 -0.00000000000E+00 -0.45593999997E+02  0.45594000000E+02  0.51100000000E-03 0. -1.
    9900012    2    1    2    0    0 -0.20389504249E+02  0.36343764552E+02 -0.12125284332E+02  0.47787266993E+02  0.19999981530E+02 0.  0.
        -12    1    1    2    0    0  0.20389504249E+02 -0.36343764552E+02  0.12125284332E+02  0.43400733007E+02  0.00000000000E+00 0.  1.
         11    1    3    3    0    0 -0.10042588075E+02  0.21374635992E+02 -0.97337737146E+01  0.25543589999E+02  0.51100000000E-03 0. -1.
        -11    1    3    3    0    0 -0.27633024698E+01  0.14214441855E+02 -0.12022125630E+01  0.14530365209E+02  0.51100000000E-03 0.  1.
        -12    1    3    3    0    0 -0.75836137048E+01  0.75468670509E+00 -0.11892980543E+01  0.77133117860E+01  0.00000000000E+00 0.  1.
</event>
<event>
 7    1  0.2294216E-010  0.4778726E+02  0.7816164E-02  0.1312668E+00
        -11   -1    0    0    0    0  0.00000000000E+00  0.00000000000E+00  0.45593999997E+02  0.45594000000E+02  0.51100000000E-03 0.  1.
         11   -1    0    0    0    0 -0.00000000000E+00 -0.00000000000E+00 -0.45593999997E+02  0.45594000000E+02  0.51100000000E-03 0. -1.
    9900012    2    1    2    0    0  0.35305069174E+02  0.23460847817E+02  0.93147513606E+01  0.47787264032E+02  0.19999968026E+02 0.  0.
        -12    1    1    2    0    0 -0.35305069174E+02 -0.23460847817E+02 -0.93147513606E+01  0.43400735968E+02  0.00000000000E+00 0.  1.
         11    1    3    3    0    0  0.99690636508E+01  0.55207656206E+01  0.13936072419E+00  0.11396512834E+02  0.51100000000E-03 0. -1.
        -11    1    3    3    0    0  0.11550927718E+02  0.17063650968E+02  0.16768892709E+01  0.20673753249E+02  0.51100000000E-03 0.  1.
         12    1    3    3    0    0  0.13785077805E+02  0.87643122869E+00  0.74985013655E+01  0.15716997948E+02  0.00000000000E+00 0. -1.
</event>
<event>
 7    1  0.2294216E-010  0.4778727E+02  0.7816164E-02  0.1312668E+00
        -11   -1    0    0    0    0  0.00000000000E+00  0.00000000000E+00  0.45593999997E+02  0.45594000000E+02  0.51100000000E-03 0.  1.
         11   -1    0    0    0    0 -0.00000000000E+00 -0.00000000000E+00 -0.45593999997E+02  0.45594000000E+02  0.51100000000E-03 0. -1.
    9900012    2    1    2    0    0 -0.22321263679E+02  0.13763273108E+02 -0.34582606345E+02  0.47787272351E+02  0.20000005955E+02 0.  0.
        -12    1    1    2    0    0  0.22321263679E+02 -0.13763273108E+02  0.34582606345E+02  0.43400727649E+02  0.00000000000E+00 0.  1.
         11    1    3    3    0    0 -0.58721882115E+00  0.39698997121E+01 -0.76112092869E+00  0.40846340102E+01  0.51100000000E-03 0. -1.
        -11    1    3    3    0    0  0.18316284104E+01 -0.41776338703E+00 -0.14089310246E+01  0.23482920973E+01  0.51100000000E-03 0.  1.
         12    1    3    3    0    0 -0.23565673268E+02  0.10211136783E+02 -0.32412554392E+02  0.41354346243E+02  0.00000000000E+00 0. -1.
</event>
<event>
 7    1  0.2294216E-010  0.4778727E+02  0.7816164E-02  0.1312668E+00
        -11   -1    0    0    0    0  0.00000000000E+00  0.00000000000E+00  0.45593999997E+02  0.45594000000E+02  0.51100000000E-03 0.  1.
         11   -1    0    0    0    0 -0.00000000000E+00 -0.00000000000E+00 -0.45593999997E+02  0.45594000000E+02  0.51100000000E-03 0. -1.
    9900012    2    1    2    0    0  0.86694415240E+01 -0.30770333255E+02 -0.29353886582E+02  0.47787270945E+02  0.19999999548E+02 0.  0.
        -12    1    1    2    0    0 -0.86694415240E+01  0.30770333255E+02  0.29353886582E+02  0.43400729055E+02  0.00000000000E+00 0.  1.
         11    1    3    3    0    0  0.46639126889E+01 -0.27371420636E+02 -0.17589890634E+02  0.32868693342E+02  0.51100000000E-03 0. -1.
        -11    1    3    3    0    0 -0.46107180909E+00 -0.97950156520E+00  0.81339171320E+00  0.13541110994E+01  0.51100000000E-03 0.  1.
         12    1    3    3    0    0  0.44666006442E+01 -0.24194110542E+01 -0.12577387661E+02  0.13564466504E+02  0.00000000000E+00 0. -1.
</event>
<event>
 7    1  0.2294216E-010  0.4778726E+02  0.7816164E-02  0.1312668E+00
        -11   -1    0    0    0    0  0.00000000000E+00  0.00000000000E+00  0.45593999997E+02  0.45594000000E+02  0.51100000000E-03 0.  1.
         11   -1    0    0    0    0 -0.00000000000E+00 -0.00000000000E+00 -0.45593999997E+02  0.45594000000E+02  0.51100000000E-03 0. -1.
    9900012    2    1    2    0    0  0.73458791190E+01  0.37426279333E+02 -0.20710771234E+02  0.47787258418E+02  0.19999942431E+02 0.  0.
        -12    1    1    2    0    0 -0.73458791190E+01 -0.37426279333E+02  0.20710771234E+02  0.43400741582E+02  0.00000000000E+00 0.  1.
         11    1    3    3    0    0 -0.41423494951E+01  0.67230678425E+01  0.11427262202E+00  0.78975793157E+01  0.51100000000E-03 0. -1.
        -11    1    3    3    0    0  0.13039050215E+01  0.34859456395E+01  0.62029941356E+00  0.37731627224E+01  0.51100000000E-03 0.  1.
        -12    1    3    3    0    0  0.10184323593E+02  0.27217265851E+02 -0.21445343269E+02  0.36116516380E+02  0.00000000000E+00 0.  1.
</event>
<event>
 7    1  0.2294216E-010  0.4778727E+02  0.7816164E-02  0.1312668E+00
        -11   -1    0    0    0    0  0.00000000000E+00  0.00000000000E+00  0.45593999997E+02  0.45594000000E+02  0.51100000000E-03 0. -1.
         11   -1    0    0    0    0 -0.00000000000E+00 -0.00000000000E+00 -0.45593999997E+02  0.45594000000E+02  0.51100000000E-03 0.  1.
    9900012    2    1    2    0    0 -0.57606199918E+01 -0.42877771771E+02  0.34547853933E+01  0.47787267323E+02  0.19999983034E+02 0.  0.
        -12    1    1    2    0    0  0.57606199918E+01  0.42877771771E+02 -0.34547853933E+01  0.43400732677E+02  0.00000000000E+00 0.  1.
         11    1    3    3    0    0 -0.88187698776E+01 -0.20151245899E+02 -0.20289026811E+01  0.22089813484E+02  0.51100000000E-03 0.  1.
        -11    1    3    3    0    0  0.19853318182E+01 -0.73872218126E+01 -0.29036975774E+01  0.81819342713E+01  0.51100000000E-03 0. -1.
         12    1    3    3    0    0  0.10728180677E+01 -0.15339304060E+02  0.83873856518E+01  0.17515519568E+02  0.00000000000E+00 0. -1.
</event>
<event>
 7    1  0.2294216E-010  0.4778727E+02  0.7816164E-02  0.1312668E+00
        -11   -1    0    0    0    0  0.00000000000E+00  0.00000000000E+00  0.45593999997E+02  0.45594000000E+02  0.51100000000E-03 0.  1.
         11   -1    0    0    0    0 -0.00000000000E+00 -0.00000000000E+00 -0.45593999997E+02  0.45594000000E+02  0.51100000000E-03 0. -1.
    9900012    2    1    2    0    0 -0.28136697856E+02  0.21207183694E+02 -0.25341759261E+02  0.47787272254E+02  0.20000005513E+02 0.  0.
        -12    1    1    2    0    0  0.28136697856E+02 -0.21207183694E+02  0.25341759261E+02  0.43400727746E+02  0.00000000000E+00 0.  1.
         11    1    3    3    0    0 -0.20426425564E+02  0.55347390423E+01 -0.10108197830E+02  0.23453099181E+02  0.51100000000E-03 0. -1.
        -11    1    3    3    0    0 -0.18415955805E+01  0.73261473582E+00 -0.47918629119E+01  0.51855712376E+01  0.51100000000E-03 0.  1.
        -12    1    3    3    0    0 -0.58686767116E+01  0.14939829916E+02 -0.10441698519E+02  0.19148601835E+02  0.00000000000E+00 0.  1.
</event>
<event>
 7    1  0.2294216E-010  0.4778723E+02  0.7816164E-02  0.1312668E+00
        -11   -1    0    0    0    0  0.00000000000E+00  0.00000000000E+00  0.45593999997E+02  0.45594000000E+02  0.51100000000E-03 0.  1.
         11   -1    0    0    0    0 -0.00000000000E+00 -0.00000000000E+00 -0.45593999997E+02  0.45594000000E+02  0.51100000000E-03 0. -1.
    9900012    2    1    2    0    0 -0.12872026637E+02  0.38425710289E+02 -0.15537130000E+02  0.47787231694E+02  0.19999820584E+02 0.  0.
        -12    1    1    2    0    0  0.12872026637E+02 -0.38425710289E+02  0.15537130000E+02  0.43400768306E+02  0.00000000000E+00 0.  1.
         11    1    3    3    0    0  0.17694526914E+01  0.30561197164E+01  0.39528207203E+00  0.35534601061E+01  0.51100000000E-03 0. -1.
        -11    1    3    3    0    0 -0.13259121205E+01  0.69859332620E+00  0.23892744909E+01  0.28204092683E+01  0.51100000000E-03 0.  1.
         12    1    3    3    0    0 -0.13315567208E+02  0.34670997246E+02 -0.18321686563E+02  0.41413362319E+02  0.00000000000E+00 0. -1.
</event>
<event>
 7    1  0.2294216E-010  0.4778727E+02  0.7816164E-02  0.1312668E+00
        -11   -1    0    0    0    0  0.00000000000E+00  0.00000000000E+00  0.45593999997E+02  0.45594000000E+02  0.51100000000E-03 0.  1.
         11   -1    0    0    0    0 -0.00000000000E+00 -0.00000000000E+00 -0.45593999997E+02  0.45594000000E+02  0.51100000000E-03 0. -1.
    9900012    2    1    2    0    0  0.28536828641E+02 -0.72867170574E+01 -0.31877519282E+02  0.47787273394E+02  0.20000010712E+02 0.  0.
        -12    1    1    2    0    0 -0.28536828641E+02  0.72867170574E+01  0.31877519282E+02  0.43400726606E+02  0.00000000000E+00 0.  1.
         11    1    3    3    0    0  0.54720470112E+01  0.26206476819E+00 -0.79545796585E+01  0.96585358228E+01  0.51100000000E-03 0. -1.
        -11    1    3    3    0    0  0.33529044135E+01 -0.42379488960E+01  0.16693766468E+01  0.56558816732E+01  0.51100000000E-03 0.  1.
        -12    1    3    3    0    0  0.19711877216E+02 -0.33108329296E+01 -0.25592316271E+02  0.32472855898E+02  0.00000000000E+00 0.  1.
</event>
<event>
 7    1  0.2294216E-010  0.4778727E+02  0.7816164E-02  0.1312668E+00
        -11   -1    0    0    0    0  0.00000000000E+00  0.00000000000E+00  0.45593999997E+02  0.45594000000E+02  0.51100000000E-03 0.  1.
         11   -1    0    0    0    0 -0.00000000000E+00 -0.00000000000E+00 -0.45593999997E+02  0.45594000000E+02  0.51100000000E-03 0. -1.
    9900012    2    1    2    0    0  0.63380182390E+01 -0.22803885377E+02 -0.36379057213E+02  0.47787268818E+02  0.19999989848E+02 0.  0.
        -12    1    1    2    0    0 -0.63380182390E+01  0.22803885377E+02  0.36379057213E+02  0.43400731182E+02  0.00000000000E+00 0.  1.
         11    1    3    3    0    0  0.92919856681E+00 -0.63018528854E+01 -0.57778233781E+01  0.86000001753E+01  0.51100000000E-03 0.  1.
        -11    1    3    3    0    0  0.53993927173E+01 -0.17983149528E+02 -0.16462614240E+02  0.24971279033E+02  0.51100000000E-03 0. -1.
         12    1    3    3    0    0  0.94269548754E-02  0.14811170367E+01 -0.14138619594E+02  0.14215989610E+02  0.00000000000E+00 0. -1.
</event>
<event>
 7    1  0.2294216E-010  0.4778728E+02  0.7816164E-02  0.1312668E+00
        -11   -1    0    0    0    0  0.00000000000E+00  0.00000000000E+00  0.45593999997E+02  0.45594000000E+02  0.51100000000E-03 0.  1.
         11   -1    0    0    0    0 -0.00000000000E+00 -0.00000000000E+00 -0.45593999997E+02  0.45594000000E+02  0.51100000000E-03 0. -1.
    9900012    2    1    2    0    0  0.55334760793E+00 -0.42584691804E+02  0.83582264206E+01  0.47787284355E+02  0.20000060687E+02 0.  0.
        -12    1    1    2    0    0 -0.55334760793E+00  0.42584691804E+02 -0.83582264206E+01  0.43400715645E+02  0.00000000000E+00 0.  1.
         11    1    3    3    0    0 -0.10493661787E+01 -0.71074054570E+01  0.36976500695E+01  0.80801607660E+01  0.51100000000E-03 0. -1.
        -11    1    3    3    0    0  0.10826750897E+01 -0.26283145540E+02  0.11015160143E+02  0.28518584784E+02  0.51100000000E-03 0.  1.
         12    1    3    3    0    0  0.52003869689E+00 -0.91941408072E+01 -0.63545837918E+01  0.11188538805E+02  0.00000000000E+00 0. -1.
</event>
<event>
 7    1  0.2294216E-010  0.4778726E+02  0.7816164E-02  0.1312668E+00
        -11   -1    0    0    0    0  0.00000000000E+00  0.00000000000E+00  0.45593999997E+02  0.45594000000E+02  0.51100000000E-03 0.  1.
         11   -1    0    0    0    0 -0.00000000000E+00 -0.00000000000E+00 -0.45593999997E+02  0.45594000000E+02  0.51100000000E-03 0. -1.
    9900012    2    1    2    0    0 -0.71983047249E+01  0.28103176161E+02 -0.32280331851E+02  0.47787263536E+02  0.19999965765E+02 0.  0.
        -12    1    1    2    0    0  0.71983047249E+01 -0.28103176161E+02  0.32280331851E+02  0.43400736464E+02  0.00000000000E+00 0.  1.
         11    1    3    3    0    0 -0.98988911687E+01  0.99570012777E+01 -0.72330584798E+01  0.15793892999E+02  0.51100000000E-03 0. -1.
        -11    1    3    3    0    0  0.35924572760E+00 -0.44301823501E-01 -0.42455501701E+01  0.42609525522E+01  0.51100000000E-03 0.  1.
         12    1    3    3    0    0  0.23413407162E+01  0.18190476707E+02 -0.20801723201E+02  0.27732417985E+02  0.00000000000E+00 0. -1.
</event>
<event>
 7    1  0.2294216E-010  0.4778727E+02  0.7816164E-02  0.1312668E+00
        -11   -1    0    0    0    0  0.00000000000E+00  0.00000000000E+00  0.45593999997E+02  0.45594000000E+02  0.51100000000E-03 0.  1.
         11   -1    0    0    0    0 -0.00000000000E+00 -0.00000000000E+00 -0.45593999997E+02  0.45594000000E+02  0.51100000000E-03 0. -1.
    9900012    2    1    2    0    0 -0.54681166940E+01 -0.31621589589E+02 -0.29219829162E+02  0.47787266774E+02  0.19999980529E+02 0.  0.
        -12    1    1    2    0    0  0.54681166940E+01  0.31621589589E+02  0.29219829162E+02  0.43400733226E+02  0.00000000000E+00 0.  1.
         11    1    3    3    0    0 -0.81278027724E+01 -0.11178971987E+02 -0.10792335294E+02  0.17535823162E+02  0.51100000000E-03 0. -1.
        -11    1    3    3    0    0 -0.49258877795E+01 -0.71858097102E+01 -0.70054580361E+01  0.11179296676E+02  0.51100000000E-03 0.  1.
        -12    1    3    3    0    0  0.75855738579E+01 -0.13256807892E+02 -0.11422035832E+02  0.19072146937E+02  0.00000000000E+00 0.  1.
</event>
<event>
 7    1  0.2294216E-010  0.4778727E+02  0.7816164E-02  0.1312668E+00
        -11   -1    0    0    0    0  0.00000000000E+00  0.00000000000E+00  0.45593999997E+02  0.45594000000E+02  0.51100000000E-03 0.  1.
         11   -1    0    0    0    0 -0.00000000000E+00 -0.00000000000E+00 -0.45593999997E+02  0.45594000000E+02  0.51100000000E-03 0. -1.
    9900012    2    1    2    0    0  0.29720552556E+02  0.62309299625E+01 -0.31007862760E+02  0.47787270912E+02  0.19999999396E+02 0.  0.
        -12    1    1    2    0    0 -0.29720552556E+02 -0.62309299625E+01  0.31007862760E+02  0.43400729088E+02  0.00000000000E+00 0.  1.
         11    1    3    3    0    0  0.96074140039E+01 -0.39344200531E+01 -0.24712764889E+01  0.10671891713E+02  0.51100000000E-03 0. -1.
        -11    1    3    3    0    0  0.62682377044E+01  0.58656346219E+00 -0.11810187496E+02  0.13383399776E+02  0.51100000000E-03 0.  1.
         12    1    3    3    0    0  0.13844900848E+02  0.95787865534E+01 -0.16726398774E+02  0.23731979422E+02  0.00000000000E+00 0. -1.
</event>
<event>
 7    1  0.2294216E-010  0.4778727E+02  0.7816164E-02  0.1312668E+00
        -11   -1    0    0    0    0  0.00000000000E+00  0.00000000000E+00  0.45593999997E+02  0.45594000000E+02  0.51100000000E-03 0.  1.
         11   -1    0    0    0    0 -0.00000000000E+00 -0.00000000000E+00 -0.45593999997E+02  0.45594000000E+02  0.51100000000E-03 0. -1.
    9900012    2    1    2    0    0 -0.68443372755E+01  0.55135833932E+01 -0.42501517528E+02  0.47787267900E+02  0.19999985665E+02 0.  0.
        -12    1    1    2    0    0  0.68443372755E+01 -0.55135833932E+01  0.42501517528E+02  0.43400732100E+02  0.00000000000E+00 0.  1.
         11    1    3    3    0    0 -0.67205961074E+01 -0.23621107984E+01 -0.30162150961E+02  0.30991955897E+02  0.51100000000E-03 0. -1.
        -11    1    3    3    0    0 -0.39427698535E+01  0.26333535849E+01 -0.38242779561E+01  0.60913945339E+01  0.51100000000E-03 0.  1.
        -12    1    3    3    0    0  0.38190286854E+01  0.52423406067E+01 -0.85150886112E+01  0.10703917469E+02  0.00000000000E+00 0.  1.
</event>
<event>
 7    1  0.2294216E-010  0.4778727E+02  0.7816164E-02  0.1312668E+00
        -11   -1    0    0    0    0  0.00000000000E+00  0.00000000000E+00  0.45593999997E+02  0.45594000000E+02  0.51100000000E-03 0.  1.
         11   -1    0    0    0    0 -0.00000000000E+00 -0.00000000000E+00 -0.45593999997E+02  0.45594000000E+02  0.51100000000E-03 0. -1.
    9900012    2    1    2    0    0  0.39270610247E+02  0.13005287939E+02 -0.13126487168E+02  0.47787274097E+02  0.20000013917E+02 0.  0.
        -12    1    1    2    0    0 -0.39270610247E+02 -0.13005287939E+02  0.13126487168E+02  0.43400725903E+02  0.00000000000E+00 0.  1.
         11    1    3    3    0    0  0.16568071824E+02  0.11219493062E+02 -0.97732391712E+01  0.22268682779E+02  0.51100000000E-03 0. -1.
        -11    1    3    3    0    0  0.16089031227E+02  0.61718204465E+01 -0.10908805627E+01  0.17266682198E+02  0.51100000000E-03 0.  1.
        -12    1    3    3    0    0  0.66135071955E+01 -0.43860255696E+01 -0.22623674336E+01  0.82519091201E+01  0.00000000000E+00 0.  1.
</event>
<event>
 7    1  0.2294216E-010  0.4778728E+02  0.7816164E-02  0.1312668E+00
        -11   -1    0    0    0    0  0.00000000000E+00  0.00000000000E+00  0.45593999997E+02  0.45594000000E+02  0.51100000000E-03 0.  1.
         11   -1    0    0    0    0 -0.00000000000E+00 -0.00000000000E+00 -0.45593999997E+02  0.45594000000E+02  0.51100000000E-03 0. -1.
    9900012    2    1    2    0    0 -0.31021106335E+02 -0.14530390861E+02 -0.26649228927E+02  0.47787277665E+02  0.20000030186E+02 0.  0.
        -12    1    1    2    0    0  0.31021106335E+02  0.14530390861E+02  0.26649228927E+02  0.43400722335E+02  0.00000000000E+00 0.  1.
         11    1    3    3    0    0 -0.86813346182E+00 -0.22979722676E+01  0.10289378044E+01  0.26632772136E+01  0.51100000000E-03 0.  1.
        -11    1    3    3    0    0 -0.16742980470E+02 -0.14343329226E+02 -0.16459793802E+02  0.27513329508E+02  0.51100000000E-03 0. -1.
         12    1    3    3    0    0 -0.13409992402E+02  0.21109106322E+01 -0.11218372929E+02  0.17610670944E+02  0.00000000000E+00 0. -1.
</event>
<event>
 7    1  0.2294216E-010  0.4778727E+02  0.7816164E-02  0.1312668E+00
        -11   -1    0    0    0    0  0.00000000000E+00  0.00000000000E+00  0.45593999997E+02  0.45594000000E+02  0.51100000000E-03 0.  1.
         11   -1    0    0    0    0 -0.00000000000E+00 -0.00000000000E+00 -0.45593999997E+02  0.45594000000E+02  0.51100000000E-03 0. -1.
    9900012    2    1    2    0    0  0.18439230177E+02 -0.24449099461E+02 -0.30754835384E+02  0.47787267593E+02  0.19999984265E+02 0.  0.
        -12    1    1    2    0    0 -0.18439230177E+02  0.24449099461E+02  0.30754835384E+02  0.43400732407E+02  0.00000000000E+00 0.  1.
         11    1    3    3    0    0  0.80742959166E+01 -0.97211989939E+00 -0.92441699319E+01  0.12312349477E+02  0.51100000000E-03 0. -1.
        -11    1    3    3    0    0 -0.20611793598E+01 -0.47709114507E+01 -0.70731642627E+01  0.87772267472E+01  0.51100000000E-03 0.  1.
         12    1    3    3    0    0  0.12426113620E+02 -0.18706068111E+02 -0.14437501189E+02  0.26697691369E+02  0.00000000000E+00 0. -1.
</event>
<event>
 7    1  0.2294216E-010  0.4778727E+02  0.7816164E-02  0.1312668E+00
        -11   -1    0    0    0    0  0.00000000000E+00  0.00000000000E+00  0.45593999997E+02  0.45594000000E+02  0.51100000000E-03 0.  1.
         11   -1    0    0    0    0 -0.00000000000E+00 -0.00000000000E+00 -0.45593999997E+02  0.45594000000E+02  0.51100000000E-03 0. -1.
    9900012    2    1    2    0    0 -0.35156429645E+02  0.19244160779E+02 -0.16652657650E+02  0.47787271017E+02  0.19999999877E+02 0.  0.
        -12    1    1    2    0    0  0.35156429645E+02 -0.19244160779E+02  0.16652657650E+02  0.43400728983E+02  0.00000000000E+00 0.  1.
         11    1    3    3    0    0 -0.20816360912E+00  0.47442500940E+00 -0.13665523944E+01  0.14614639528E+01  0.51100000000E-03 0. -1.
        -11    1    3    3    0    0 -0.20245125175E+02  0.20499959415E+02 -0.84951958421E+01  0.30038005627E+02  0.51100000000E-03 0.  1.
        -12    1    3    3    0    0 -0.14703140860E+02 -0.17302236458E+01 -0.67909094132E+01  0.16287801438E+02  0.00000000000E+00 0.  1.
</event>
<event>
 7    1  0.2294216E-010  0.4778727E+02  0.7816164E-02  0.1312668E+00
        -11   -1    0    0    0    0  0.00000000000E+00  0.00000000000E+00  0.45593999997E+02  0.45594000000E+02  0.51100000000E-03 0. -1.
         11   -1    0    0    0    0 -0.00000000000E+00 -0.00000000000E+00 -0.45593999997E+02  0.45594000000E+02  0.51100000000E-03 0.  1.
    9900012    2    1    2    0    0 -0.51187069117E+01 -0.27424244283E+02  0.33246546574E+02  0.47787271964E+02  0.20000004193E+02 0.  0.
        -12    1    1    2    0    0  0.51187069117E+01  0.27424244283E+02 -0.33246546574E+02  0.43400728036E+02  0.00000000000E+00 0.  1.
         11    1    3    3    0    0 -0.33275093960E+01 -0.82327372483E+00  0.47115749898E+01  0.58265802622E+01  0.51100000000E-03 0. -1.
        -11    1    3    3    0    0 -0.22327852743E+01  0.14786725233E+01  0.23116094332E+01  0.35377027779E+01  0.51100000000E-03 0.  1.
         12    1    3    3    0    0  0.44158775857E+00 -0.28079643081E+02  0.26223362151E+02  0.38422988924E+02  0.00000000000E+00 0. -1.
</event>
<event>
 7    1  0.2294216E-010  0.4778727E+02  0.7816164E-02  0.1312668E+00
        -11   -1    0    0    0    0  0.00000000000E+00  0.00000000000E+00  0.45593999997E+02  0.45594000000E+02  0.51100000000E-03 0. -1.
         11   -1    0    0    0    0 -0.00000000000E+00 -0.00000000000E+00 -0.45593999997E+02  0.45594000000E+02  0.51100000000E-03 0.  1.
    9900012    2    1    2    0    0 -0.30314143741E+01  0.24614680457E+02 -0.35616727974E+02  0.47787270989E+02  0.19999999749E+02 0.  0.
        -12    1    1    2    0    0  0.30314143741E+01 -0.24614680457E+02  0.35616727974E+02  0.43400729011E+02  0.00000000000E+00 0.  1.
         11    1    3    3    0    0 -0.74027013369E+01  0.88326470477E+01 -0.12825833460E+02  0.17242901298E+02  0.51100000000E-03 0. -1.
        -11    1    3    3    0    0  0.12703733496E+01  0.14386634497E+01  0.13125449043E+01  0.23251613612E+01  0.51100000000E-03 0.  1.
         12    1    3    3    0    0  0.31009136132E+01  0.14343369959E+02 -0.24103439418E+02  0.28219208330E+02  0.00000000000E+00 0. -1.
</event>
<event>
 7    1  0.2294216E-010  0.4778727E+02  0.7816164E-02  0.1312668E+00
        -11   -1    0    0    0    0  0.00000000000E+00  0.00000000000E+00  0.45593999997E+02  0.45594000000E+02  0.51100000000E-03 0.  1.
         11   -1    0    0    0    0 -0.00000000000E+00 -0.00000000000E+00 -0.45593999997E+02  0.45594000000E+02  0.51100000000E-03 0. -1.
    9900012    2    1    2    0    0 -0.34618460924E+02  0.21533149496E+02  0.14883174871E+02  0.47787271225E+02  0.20000000824E+02 0.  0.
        -12    1    1    2    0    0  0.34618460924E+02 -0.21533149496E+02 -0.14883174871E+02  0.43400728775E+02  0.00000000000E+00 0.  1.
         11    1    3    3    0    0 -0.78022056430E+01  0.20679146583E+01  0.17477719499E+01  0.82586555189E+01  0.51100000000E-03 0. -1.
        -11    1    3    3    0    0 -0.16977332781E+02  0.20085082722E+02  0.50520242493E+01  0.26779905258E+02  0.51100000000E-03 0.  1.
        -12    1    3    3    0    0 -0.98389224996E+01 -0.61984788487E+00  0.80833786716E+01  0.12748710449E+02  0.00000000000E+00 0.  1.
</event>
<event>
 7    1  0.2294216E-010  0.4778724E+02  0.7816164E-02  0.1312668E+00
        -11   -1    0    0    0    0  0.00000000000E+00  0.00000000000E+00  0.45593999997E+02  0.45594000000E+02  0.51100000000E-03 0.  1.
         11   -1    0    0    0    0 -0.00000000000E+00 -0.00000000000E+00 -0.45593999997E+02  0.45594000000E+02  0.51100000000E-03 0. -1.
    9900012    2    1    2    0    0 -0.18937756604E+02 -0.66197504075E+01 -0.38485920376E+02  0.47787242083E+02  0.19999867951E+02 0.  0.
        -12    1    1    2    0    0  0.18937756604E+02  0.66197504075E+01  0.38485920376E+02  0.43400757917E+02  0.00000000000E+00 0.  1.
         11    1    3    3    0    0 -0.10355241754E+02  0.20193043538E+01 -0.15376574053E+02  0.18647993236E+02  0.51100000000E-03 0.  1.
        -11    1    3    3    0    0 -0.81176993610E+01 -0.13975452755E+01 -0.19209927964E+02  0.20901471440E+02  0.51100000000E-03 0. -1.
        -12    1    3    3    0    0 -0.46481548886E+00 -0.72415094858E+01 -0.38994183592E+01  0.82377774072E+01  0.00000000000E+00 0.  1.
</event>
<event>
 7    1  0.2294216E-010  0.4778731E+02  0.7816164E-02  0.1312668E+00
        -11   -1    0    0    0    0  0.00000000000E+00  0.00000000000E+00  0.45593999997E+02  0.45594000000E+02  0.51100000000E-03 0.  1.
         11   -1    0    0    0    0 -0.00000000000E+00 -0.00000000000E+00 -0.45593999997E+02  0.45594000000E+02  0.51100000000E-03 0. -1.
    9900012    2    1    2    0    0 -0.21944151384E+02  0.21198407066E+02 -0.30865862278E+02  0.47787312261E+02  0.20000187920E+02 0.  0.
        -12    1    1    2    0    0  0.21944151384E+02 -0.21198407066E+02  0.30865862278E+02  0.43400687739E+02  0.00000000000E+00 0.  1.
         11    1    3    3    0    0 -0.93786973743E+01  0.14287300779E+02 -0.16641166511E+02  0.23854042657E+02  0.51100000000E-03 0. -1.
        -11    1    3    3    0    0  0.20794951212E+01  0.35767565262E+01 -0.40646608216E+01  0.57999099185E+01  0.51100000000E-03 0.  1.
         12    1    3    3    0    0 -0.14644949131E+02  0.33343497608E+01 -0.10160034945E+02  0.18133359685E+02  0.00000000000E+00 0. -1.
</event>
<event>
 7    1  0.2294216E-010  0.4778727E+02  0.7816164E-02  0.1312668E+00
        -11   -1    0    0    0    0  0.00000000000E+00  0.00000000000E+00  0.45593999997E+02  0.45594000000E+02  0.51100000000E-03 0.  1.
         11   -1    0    0    0    0 -0.00000000000E+00 -0.00000000000E+00 -0.45593999997E+02  0.45594000000E+02  0.51100000000E-03 0. -1.
    9900012    2    1    2    0    0  0.41113310882E+02  0.49480591897E+01  0.12993669393E+02  0.47787273443E+02  0.20000010935E+02 0.  0.
        -12    1    1    2    0    0 -0.41113310882E+02 -0.49480591897E+01 -0.12993669393E+02  0.43400726557E+02  0.00000000000E+00 0.  1.
         11    1    3    3    0    0  0.45395468592E+01 -0.21373170063E+01  0.18305150317E-01  0.50175636530E+01  0.51100000000E-03 0. -1.
        -11    1    3    3    0    0  0.36122632026E+02  0.68530131830E+01  0.78199230494E+01  0.37589353958E+02  0.51100000000E-03 0.  1.
        -12    1    3    3    0    0  0.45113199598E+00  0.23236301296E+00  0.51554411934E+01  0.51803558320E+01  0.00000000000E+00 0.  1.
</event>
<event>
 7    1  0.2294216E-010  0.4778727E+02  0.7816164E-02  0.1312668E+00
        -11   -1    0    0    0    0  0.00000000000E+00  0.00000000000E+00  0.45593999997E+02  0.45594000000E+02  0.51100000000E-03 0.  1.
         11   -1    0    0    0    0 -0.00000000000E+00 -0.00000000000E+00 -0.45593999997E+02  0.45594000000E+02  0.51100000000E-03 0. -1.
    9900012    2    1    2    0    0  0.35285319551E+02 -0.21882903954E+02 -0.12637563445E+02  0.47787271077E+02  0.20000000147E+02 0.  0.
        -12    1    1    2    0    0 -0.35285319551E+02  0.21882903954E+02  0.12637563445E+02  0.43400728923E+02  0.00000000000E+00 0.  1.
         11    1    3    3    0    0  0.15719410491E+02 -0.17514161664E+02 -0.59537079427E+01  0.24275344766E+02  0.51100000000E-03 0. -1.
        -11    1    3    3    0    0  0.19560460288E+02 -0.49794143465E+01 -0.82695877230E+01  0.21812662728E+02  0.51100000000E-03 0.  1.
        -12    1    3    3    0    0  0.54487716199E-02  0.61067205656E+00  0.15857322202E+01  0.16992635828E+01  0.00000000000E+00 0.  1.
</event>
<event>
 7    1  0.2294216E-010  0.4778727E+02  0.7816164E-02  0.1312668E+00
        -11   -1    0    0    0    0  0.00000000000E+00  0.00000000000E+00  0.45593999997E+02  0.45594000000E+02  0.51100000000E-03 0. -1.
         11   -1    0    0    0    0 -0.00000000000E+00 -0.00000000000E+00 -0.45593999997E+02  0.45594000000E+02  0.51100000000E-03 0.  1.
    9900012    2    1    2    0    0 -0.18052910803E+02 -0.14552128175E+02  0.36687210620E+02  0.47787269062E+02  0.19999990962E+02 0.  0.
        -12    1    1    2    0    0  0.18052910803E+02  0.14552128175E+02 -0.36687210620E+02  0.43400730938E+02  0.00000000000E+00 0.  1.
         11    1    3    3    0    0 -0.45210182380E+00 -0.11414365236E+02  0.92833142310E+01  0.14719784413E+02  0.51100000000E-03 0.  1.
        -11    1    3    3    0    0 -0.97732225791E+01 -0.40625117005E+01  0.16778040818E+02  0.19837402422E+02  0.51100000000E-03 0. -1.
        -12    1    3    3    0    0 -0.78275863998E+01  0.92474876159E+00  0.10625855571E+02  0.13230082227E+02  0.00000000000E+00 0.  1.
</event>
<event>
 7    1  0.2294216E-010  0.4778727E+02  0.7816164E-02  0.1312668E+00
        -11   -1    0    0    0    0  0.00000000000E+00  0.00000000000E+00  0.45593999997E+02  0.45594000000E+02  0.51100000000E-03 0.  1.
         11   -1    0    0    0    0 -0.00000000000E+00 -0.00000000000E+00 -0.45593999997E+02  0.45594000000E+02  0.51100000000E-03 0. -1.
    9900012    2    1    2    0    0  0.33249893740E+02  0.25308610879E+02  0.11727830456E+02  0.47787271601E+02  0.20000002538E+02 0.  0.
        -12    1    1    2    0    0 -0.33249893740E+02 -0.25308610879E+02 -0.11727830456E+02  0.43400728399E+02  0.00000000000E+00 0.  1.
         11    1    3    3    0    0  0.23494651452E+01  0.63481852629E+01  0.15644174128E+01  0.69474343972E+01  0.51100000000E-03 0. -1.
        -11    1    3    3    0    0  0.10543955687E+02  0.15390611026E+02  0.26198436130E+01  0.18839041645E+02  0.51100000000E-03 0.  1.
         12    1    3    3    0    0  0.20356472908E+02  0.35698145895E+01  0.75435694301E+01  0.22000795559E+02  0.00000000000E+00 0. -1.
</event>
<event>
 7    1  0.2294216E-010  0.4778727E+02  0.7816164E-02  0.1312668E+00
        -11   -1    0    0    0    0  0.00000000000E+00  0.00000000000E+00  0.45593999997E+02  0.45594000000E+02  0.51100000000E-03 0.  1.
         11   -1    0    0    0    0 -0.00000000000E+00 -0.00000000000E+00 -0.45593999997E+02  0.45594000000E+02  0.51100000000E-03 0. -1.
    9900012    2    1    2    0    0  0.35092450079E+02 -0.86285916755E+01 -0.24035196894E+02  0.47787270322E+02  0.19999996708E+02 0.  0.
        -12    1    1    2    0    0 -0.35092450079E+02  0.86285916755E+01  0.24035196894E+02  0.43400729678E+02  0.00000000000E+00 0.  1.
         11    1    3    3    0    0  0.47678662215E+01 -0.75632522916E+00  0.35283849699E+01  0.59794712907E+01  0.51100000000E-03 0.  1.
        -11    1    3    3    0    0  0.21277725962E+01  0.93725465461E-01 -0.16950655524E+01  0.27220301564E+01  0.51100000000E-03 0. -1.
        -12    1    3    3    0    0  0.28196811261E+02 -0.79659919118E+01 -0.25868516311E+02  0.39085768875E+02  0.00000000000E+00 0.  1.
</event>
<event>
 7    1  0.2294216E-010  0.4778730E+02  0.7816164E-02  0.1312668E+00
        -11   -1    0    0    0    0  0.00000000000E+00  0.00000000000E+00  0.45593999997E+02  0.45594000000E+02  0.51100000000E-03 0. -1.
         11   -1    0    0    0    0 -0.00000000000E+00 -0.00000000000E+00 -0.45593999997E+02  0.45594000000E+02  0.51100000000E-03 0.  1.
    9900012    2    1    2    0    0 -0.28898099100E+02 -0.28455544676E+02  0.15453235718E+02  0.47787301289E+02  0.20000137896E+02 0.  0.
        -12    1    1    2    0    0  0.28898099100E+02  0.28455544676E+02 -0.15453235718E+02  0.43400698711E+02  0.00000000000E+00 0.  1.
         11    1    3    3    0    0 -0.79593170341E+01 -0.12527361166E+02  0.92747929623E+01  0.17501636786E+02  0.51100000000E-03 0. -1.
        -11    1    3    3    0    0 -0.18058686591E+02 -0.18350318287E+02  0.43837697462E+01  0.26116427399E+02  0.51100000000E-03 0.  1.
        -12    1    3    3    0    0 -0.28800954752E+01  0.24221347763E+01  0.17946730098E+01  0.41692371044E+01  0.00000000000E+00 0.  1.
</event>
<event>
 7    1  0.2294216E-010  0.4778727E+02  0.7816164E-02  0.1312668E+00
        -11   -1    0    0    0    0  0.00000000000E+00  0.00000000000E+00  0.45593999997E+02  0.45594000000E+02  0.51100000000E-03 0. -1.
         11   -1    0    0    0    0 -0.00000000000E+00 -0.00000000000E+00 -0.45593999997E+02  0.45594000000E+02  0.51100000000E-03 0.  1.
    9900012    2    1    2    0    0 -0.41971332441E+02 -0.10133578309E+02  0.43978723046E+01  0.47787269165E+02  0.19999991430E+02 0.  0.
        -12    1    1    2    0    0  0.41971332441E+02  0.10133578309E+02 -0.43978723046E+01  0.43400730835E+02  0.00000000000E+00 0.  1.
         11    1    3    3    0    0 -0.21697694210E+01 -0.71432742555E-01 -0.90035626065E+00  0.23502433138E+01  0.51100000000E-03 0.  1.
        -11    1    3    3    0    0 -0.31749381078E+02 -0.15074463997E+02  0.13759036662E+01  0.35173225255E+02  0.51100000000E-03 0. -1.
        -12    1    3    3    0    0 -0.80521819417E+01  0.50123184304E+01  0.39223248990E+01  0.10263800596E+02  0.00000000000E+00 0.  1.
</event>
<event>
 7    1  0.2294216E-010  0.4778727E+02  0.7816164E-02  0.1312668E+00
        -11   -1    0    0    0    0  0.00000000000E+00  0.00000000000E+00  0.45593999997E+02  0.45594000000E+02  0.51100000000E-03 0.  1.
         11   -1    0    0    0    0 -0.00000000000E+00 -0.00000000000E+00 -0.45593999997E+02  0.45594000000E+02  0.51100000000E-03 0. -1.
    9900012    2    1    2    0    0  0.17587740483E+02 -0.33028142416E+02 -0.21987185972E+02  0.47787272428E+02  0.20000006310E+02 0.  0.
        -12    1    1    2    0    0 -0.17587740483E+02  0.33028142416E+02  0.21987185972E+02  0.43400727572E+02  0.00000000000E+00 0.  1.
         11    1    3    3    0    0 -0.13723633742E+01 -0.64820688277E+01 -0.23188909390E+01  0.70198185850E+01  0.51100000000E-03 0. -1.
        -11    1    3    3    0    0  0.12690438190E+01  0.18249314238E+00  0.17849064446E+01  0.21976503905E+01  0.51100000000E-03 0.  1.
        -12    1    3    3    0    0  0.17691060038E+02 -0.26728566731E+02 -0.21453201478E+02  0.38569803453E+02  0.00000000000E+00 0.  1.
</event>
<event>
 7    1  0.2294216E-010  0.4778726E+02  0.7816164E-02  0.1312668E+00
        -11   -1    0    0    0    0  0.00000000000E+00  0.00000000000E+00  0.45593999997E+02  0.45594000000E+02  0.51100000000E-03 0. -1.
         11   -1    0    0    0    0 -0.00000000000E+00 -0.00000000000E+00 -0.45593999997E+02  0.45594000000E+02  0.51100000000E-03 0.  1.
    9900012    2    1    2    0    0 -0.28095370597E+02 -0.23092672981E+02  0.23685498225E+02  0.47787260138E+02  0.19999950272E+02 0.  0.
        -12    1    1    2    0    0  0.28095370597E+02  0.23092672981E+02 -0.23685498225E+02  0.43400739862E+02  0.00000000000E+00 0.  1.
         11    1    3    3    0    0  0.41422018464E+00 -0.33936471061E+01 -0.57025752950E+00  0.34660659188E+01  0.51100000000E-03 0. -1.
        -11    1    3    3    0    0 -0.34859436715E+01  0.20663944656E+00 -0.93494368825E+00  0.36150550623E+01  0.51100000000E-03 0.  1.
        -12    1    3    3    0    0 -0.25023647111E+02 -0.19905665321E+02  0.25190699443E+02  0.40706139157E+02  0.00000000000E+00 0.  1.
</event>
<event>
 7    1  0.2294216E-010  0.4778726E+02  0.7816164E-02  0.1312668E+00
        -11   -1    0    0    0    0  0.00000000000E+00  0.00000000000E+00  0.45593999997E+02  0.45594000000E+02  0.51100000000E-03 0. -1.
         11   -1    0    0    0    0 -0.00000000000E+00 -0.00000000000E+00 -0.45593999997E+02  0.45594000000E+02  0.51100000000E-03 0.  1.
    9900012    2    1    2    0    0  0.37955670764E+02  0.77266553080E+01  0.19577795099E+02  0.47787260302E+02  0.19999951021E+02 0.  0.
        -12    1    1    2    0    0 -0.37955670764E+02 -0.77266553080E+01 -0.19577795099E+02  0.43400739698E+02  0.00000000000E+00 0.  1.
         11    1    3    3    0    0  0.21194241588E+02  0.56397432282E+01  0.13278689096E+01  0.21971932466E+02  0.51100000000E-03 0. -1.
        -11    1    3    3    0    0  0.57137706231E+01 -0.10459859518E+01  0.25005494951E+01  0.63240817028E+01  0.51100000000E-03 0.  1.
        -12    1    3    3    0    0  0.11047658552E+02  0.31328980316E+01  0.15749376694E+02  0.19491246133E+02  0.00000000000E+00 0.  1.
</event>
<event>
 7    1  0.2294216E-010  0.4778729E+02  0.7816164E-02  0.1312668E+00
        -11   -1    0    0    0    0  0.00000000000E+00  0.00000000000E+00  0.45593999997E+02  0.45594000000E+02  0.51100000000E-03 0. -1.
         11   -1    0    0    0    0 -0.00000000000E+00 -0.00000000000E+00 -0.45593999997E+02  0.45594000000E+02  0.51100000000E-03 0.  1.
    9900012    2    1    2    0    0 -0.20382381501E+02  0.38099196822E+02 -0.40782001686E+01  0.47787285827E+02  0.20000067400E+02 0.  0.
        -12    1    1    2    0    0  0.20382381501E+02 -0.38099196822E+02  0.40782001686E+01  0.43400714173E+02  0.00000000000E+00 0.  1.
         11    1    3    3    0    0 -0.10355622736E+02  0.32566901369E+02  0.24186760491E+01  0.34259188272E+02  0.51100000000E-03 0. -1.
        -11    1    3    3    0    0 -0.36389306920E+01  0.32789015864E+01 -0.15405661979E+01  0.51348180752E+01  0.51100000000E-03 0.  1.
         12    1    3    3    0    0 -0.63878280730E+01  0.22533938667E+01 -0.49563100198E+01  0.83932794795E+01  0.00000000000E+00 0. -1.
</event>
<event>
 7    1  0.2294216E-010  0.4778726E+02  0.7816164E-02  0.1312668E+00
        -11   -1    0    0    0    0  0.00000000000E+00  0.00000000000E+00  0.45593999997E+02  0.45594000000E+02  0.51100000000E-03 0.  1.
         11   -1    0    0    0    0 -0.00000000000E+00 -0.00000000000E+00 -0.45593999997E+02  0.45594000000E+02  0.51100000000E-03 0. -1.
    9900012    2    1    2    0    0  0.30229973395E+02 -0.12587273821E+02 -0.28483921046E+02  0.47787256782E+02  0.19999934972E+02 0.  0.
        -12    1    1    2    0    0 -0.30229973395E+02  0.12587273821E+02  0.28483921046E+02  0.43400743218E+02  0.00000000000E+00 0.  1.
         11    1    3    3    0    0  0.72858214594E+00 -0.46731606433E+01 -0.57837511992E+01  0.74713479732E+01  0.51100000000E-03 0.  1.
        -11    1    3    3    0    0  0.17112787976E+02 -0.10780612844E+02 -0.10935598570E+02  0.22992530134E+02  0.51100000000E-03 0. -1.
         12    1    3    3    0    0  0.12388603274E+02  0.28664996667E+01 -0.11764571276E+02  0.17323378675E+02  0.00000000000E+00 0. -1.
</event>
<event>
 7    1  0.2294216E-010  0.4778727E+02  0.7816164E-02  0.1312668E+00
        -11   -1    0    0    0    0  0.00000000000E+00  0.00000000000E+00  0.45593999997E+02  0.45594000000E+02  0.51100000000E-03 0.  1.
         11   -1    0    0    0    0 -0.00000000000E+00 -0.00000000000E+00 -0.45593999997E+02  0.45594000000E+02  0.51100000000E-03 0. -1.
    9900012    2    1    2    0    0 -0.14623469391E+02 -0.15258928909E+02 -0.37907021855E+02  0.47787273342E+02  0.20000010477E+02 0.  0.
        -12    1    1    2    0    0  0.14623469391E+02  0.15258928909E+02  0.37907021855E+02  0.43400726658E+02  0.00000000000E+00 0.  1.
         11    1    3    3    0    0 -0.53965149046E+01 -0.82945288024E+01 -0.10253885503E+02  0.14250043836E+02  0.51100000000E-03 0. -1.
        -11    1    3    3    0    0  0.64753598569E+00 -0.56228098662E+01 -0.19773750379E+01  0.59954404297E+01  0.51100000000E-03 0.  1.
         12    1    3    3    0    0 -0.98744904725E+01 -0.13415902409E+01 -0.25675761314E+02  0.27541789077E+02  0.00000000000E+00 0. -1.
</event>
<event>
 7    1  0.2294216E-010  0.4778727E+02  0.7816164E-02  0.1312668E+00
        -11   -1    0    0    0    0  0.00000000000E+00  0.00000000000E+00  0.45593999997E+02  0.45594000000E+02  0.51100000000E-03 0.  1.
         11   -1    0    0    0    0 -0.00000000000E+00 -0.00000000000E+00 -0.45593999997E+02  0.45594000000E+02  0.51100000000E-03 0. -1.
    9900012    2    1    2    0    0 -0.60582326982E+01 -0.17055918447E+02 -0.39446377655E+02  0.47787271347E+02  0.20000001379E+02 0.  0.
        -12    1    1    2    0    0  0.60582326982E+01  0.17055918447E+02  0.39446377655E+02  0.43400728653E+02  0.00000000000E+00 0.  1.
         11    1    3    3    0    0  0.63311466026E+01 -0.10675017472E+02 -0.20333419196E+02  0.23821993027E+02  0.51100000000E-03 0. -1.
        -11    1    3    3    0    0 -0.22376529751E+01 -0.76474401685E-01 -0.49609287070E+01  0.54427707161E+01  0.51100000000E-03 0.  1.
         12    1    3    3    0    0 -0.10151726326E+02 -0.63044265737E+01 -0.14152029752E+02  0.18522507603E+02  0.00000000000E+00 0. -1.
</event>
<event>
 7    1  0.2294216E-010  0.4778727E+02  0.7816164E-02  0.1312668E+00
        -11   -1    0    0    0    0  0.00000000000E+00  0.00000000000E+00  0.45593999997E+02  0.45594000000E+02  0.51100000000E-03 0. -1.
         11   -1    0    0    0    0 -0.00000000000E+00 -0.00000000000E+00 -0.45593999997E+02  0.45594000000E+02  0.51100000000E-03 0.  1.
    9900012    2    1    2    0    0 -0.38365079890E+02 -0.20269182527E+02 -0.95080118178E+00  0.47787272608E+02  0.20000007131E+02 0.  0.
        -12    1    1    2    0    0  0.38365079890E+02  0.20269182527E+02  0.95080118178E+00  0.43400727392E+02  0.00000000000E+00 0.  1.
         11    1    3    3    0    0 -0.12699298239E+00 -0.32091309409E+01  0.16287263526E+01  0.36010274098E+01  0.51100000000E-03 0.  1.
        -11    1    3    3    0    0 -0.15918601152E+01 -0.52651538182E+01  0.72021817565E+00  0.55474839195E+01  0.51100000000E-03 0. -1.
         12    1    3    3    0    0 -0.36646226792E+02 -0.11794897767E+02 -0.32997457101E+01  0.38638761279E+02  0.00000000000E+00 0. -1.
</event>
<event>
 7    1  0.2294216E-010  0.4778727E+02  0.7816164E-02  0.1312668E+00
        -11   -1    0    0    0    0  0.00000000000E+00  0.00000000000E+00  0.45593999997E+02  0.45594000000E+02  0.51100000000E-03 0.  1.
         11   -1    0    0    0    0 -0.00000000000E+00 -0.00000000000E+00 -0.45593999997E+02  0.45594000000E+02  0.51100000000E-03 0. -1.
    9900012    2    1    2    0    0  0.32850951642E+02  0.21864387813E+01 -0.28278220551E+02  0.47787270792E+02  0.19999998847E+02 0.  0.
        -12    1    1    2    0    0 -0.32850951642E+02 -0.21864387813E+01  0.28278220551E+02  0.43400729208E+02  0.00000000000E+00 0.  1.
         11    1    3    3    0    0  0.18417876668E+02 -0.57952893107E+00 -0.20565940981E+02  0.27613619166E+02  0.51100000000E-03 0. -1.
        -11    1    3    3    0    0  0.11971051892E+02  0.62739676980E+01 -0.82804892478E+01  0.15850402408E+02  0.51100000000E-03 0.  1.
         12    1    3    3    0    0  0.24620230827E+01 -0.35079999856E+01  0.56820967827E+00  0.43232492176E+01  0.00000000000E+00 0. -1.
</event>
<event>
 7    1  0.2294216E-010  0.4778727E+02  0.7816164E-02  0.1312668E+00
        -11   -1    0    0    0    0  0.00000000000E+00  0.00000000000E+00  0.45593999997E+02  0.45594000000E+02  0.51100000000E-03 0.  1.
         11   -1    0    0    0    0 -0.00000000000E+00 -0.00000000000E+00 -0.45593999997E+02  0.45594000000E+02  0.51100000000E-03 0. -1.
    9900012    2    1    2    0    0 -0.17652960708E+02 -0.39589288101E+02  0.21643106782E+01  0.47787274260E+02  0.20000014659E+02 0.  0.
        -12    1    1    2    0    0  0.17652960708E+02  0.39589288101E+02 -0.21643106782E+01  0.43400725740E+02  0.00000000000E+00 0.  1.
         11    1    3    3    0    0 -0.14031304885E+01 -0.25396881410E+02  0.10288375334E+01  0.25456411127E+02  0.51100000000E-03 0. -1.
        -11    1    3    3    0    0 -0.25023287645E+01 -0.16672951220E-01 -0.35603330604E+00  0.25275852526E+01  0.51100000000E-03 0.  1.
        -12    1    3    3    0    0 -0.13747501455E+02 -0.14175733739E+02  0.14915064509E+01  0.19803277880E+02  0.00000000000E+00 0.  1.
</event>
<event>
 7    1  0.2294216E-010  0.4778727E+02  0.7816164E-02  0.1312668E+00
        -11   -1    0    0    0    0  0.00000000000E+00  0.00000000000E+00  0.45593999997E+02  0.45594000000E+02  0.51100000000E-03 0. -1.
         11   -1    0    0    0    0 -0.00000000000E+00 -0.00000000000E+00 -0.45593999997E+02  0.45594000000E+02  0.51100000000E-03 0.  1.
    9900012    2    1    2    0    0 -0.18961151881E+02 -0.33232109210E+02 -0.20487192233E+02  0.47787269490E+02  0.19999992913E+02 0.  0.
        -12    1    1    2    0    0  0.18961151881E+02  0.33232109210E+02  0.20487192233E+02  0.43400730510E+02  0.00000000000E+00 0.  1.
         11    1    3    3    0    0 -0.54949099084E+01 -0.85631195500E+01 -0.19280225033E+01  0.10355593772E+02  0.51100000000E-03 0. -1.
        -11    1    3    3    0    0 -0.13132045398E+02 -0.24177841974E+02 -0.10654736102E+02  0.29504949763E+02  0.51100000000E-03 0.  1.
        -12    1    3    3    0    0 -0.33419657427E+00 -0.49114768612E+00 -0.79044336274E+01  0.79267259553E+01  0.00000000000E+00 0.  1.
</event>
<event>
 7    1  0.2294216E-010  0.4778727E+02  0.7816164E-02  0.1312668E+00
        -11   -1    0    0    0    0  0.00000000000E+00  0.00000000000E+00  0.45593999997E+02  0.45594000000E+02  0.51100000000E-03 0. -1.
         11   -1    0    0    0    0 -0.00000000000E+00 -0.00000000000E+00 -0.45593999997E+02  0.45594000000E+02  0.51100000000E-03 0.  1.
    9900012    2    1    2    0    0  0.20198621569E+02 -0.11530146349E+02  0.36642801020E+02  0.47787268961E+02  0.19999990501E+02 0.  0.
        -12    1    1    2    0    0 -0.20198621569E+02  0.11530146349E+02 -0.36642801020E+02  0.43400731039E+02  0.00000000000E+00 0.  1.
         11    1    3    3    0    0  0.21004017080E+01 -0.17292381393E+01  0.91692879515E+01  0.95644024213E+01  0.51100000000E-03 0. -1.
        -11    1    3    3    0    0  0.17288292658E+02 -0.13504328301E+02  0.19323798185E+02  0.29234587777E+02  0.51100000000E-03 0.  1.
        -12    1    3    3    0    0  0.80992720219E+00  0.37034200910E+01  0.81497148833E+01  0.89882787631E+01  0.00000000000E+00 0.  1.
</event>
<event>
 7    1  0.2294216E-010  0.4778727E+02  0.7816164E-02  0.1312668E+00
        -11   -1    0    0    0    0  0.00000000000E+00  0.00000000000E+00  0.45593999997E+02  0.45594000000E+02  0.51100000000E-03 0.  1.
         11   -1    0    0    0    0 -0.00000000000E+00 -0.00000000000E+00 -0.45593999997E+02  0.45594000000E+02  0.51100000000E-03 0. -1.
    9900012    2    1    2    0    0  0.39457901449E+01  0.19966293854E+02 -0.38332769200E+02  0.47787270228E+02  0.19999996279E+02 0.  0.
        -12    1    1    2    0    0 -0.39457901449E+01 -0.19966293854E+02  0.38332769200E+02  0.43400729772E+02  0.00000000000E+00 0.  1.
         11    1    3    3    0    0 -0.85423039284E+00 -0.17772943052E+01 -0.19864652543E+01  0.27990228793E+01  0.51100000000E-03 0. -1.
        -11    1    3    3    0    0  0.34737516135E+01  0.41499687788E+01 -0.10287835705E+01  0.55088644051E+01  0.51100000000E-03 0.  1.
         12    1    3    3    0    0  0.13262689242E+01  0.17593619380E+02 -0.35317520376E+02  0.39479382944E+02  0.00000000000E+00 0. -1.
</event>
<event>
 7    1  0.2294216E-010  0.4778727E+02  0.7816164E-02  0.1312668E+00
        -11   -1    0    0    0    0  0.00000000000E+00  0.00000000000E+00  0.45593999997E+02  0.45594000000E+02  0.51100000000E-03 0. -1.
         11   -1    0    0    0    0 -0.00000000000E+00 -0.00000000000E+00 -0.45593999997E+02  0.45594000000E+02  0.51100000000E-03 0.  1.
    9900012    2    1    2    0    0 -0.97091104458E+01 -0.11850832538E+02  0.40606822005E+02  0.47787273614E+02  0.20000011715E+02 0.  0.
        -12    1    1    2    0    0  0.97091104458E+01  0.11850832538E+02 -0.40606822005E+02  0.43400726386E+02  0.00000000000E+00 0.  1.
         11    1    3    3    0    0 -0.72986629297E+00 -0.23465060264E+01 -0.11268741005E+01  0.27034498029E+01  0.51100000000E-03 0. -1.
        -11    1    3    3    0    0 -0.29313433845E+01 -0.20017822917E+01  0.17544301262E+01  0.39595368050E+01  0.51100000000E-03 0.  1.
         12    1    3    3    0    0 -0.60479007683E+01 -0.75025442203E+01  0.39979265979E+02  0.41124287006E+02  0.00000000000E+00 0. -1.
</event>
<event>
 7    1  0.2294216E-010  0.4778728E+02  0.7816164E-02  0.1312668E+00
        -11   -1    0    0    0    0  0.00000000000E+00  0.00000000000E+00  0.45593999997E+02  0.45594000000E+02  0.51100000000E-03 0.  1.
         11   -1    0    0    0    0 -0.00000000000E+00 -0.00000000000E+00 -0.45593999997E+02  0.45594000000E+02  0.51100000000E-03 0. -1.
    9900012    2    1    2    0    0 -0.40115331286E+02 -0.11383231161E+02 -0.12033499505E+02  0.47787275741E+02  0.20000021414E+02 0.  0.
        -12    1    1    2    0    0  0.40115331286E+02  0.11383231161E+02  0.12033499505E+02  0.43400724259E+02  0.00000000000E+00 0.  1.
         11    1    3    3    0    0 -0.21237970902E+02 -0.98355843190E+01 -0.58606870619E+01  0.24127531578E+02  0.51100000000E-03 0. -1.
        -11    1    3    3    0    0 -0.15825986638E+02 -0.11826476143E+01  0.95382129977E+00  0.15898751013E+02  0.51100000000E-03 0.  1.
        -12    1    3    3    0    0 -0.30513737459E+01 -0.36499922766E+00 -0.71266337427E+01  0.77609931501E+01  0.00000000000E+00 0.  1.
</event>
<event>
 7    1  0.2294216E-010  0.4778727E+02  0.7816164E-02  0.1312668E+00
        -11   -1    0    0    0    0  0.00000000000E+00  0.00000000000E+00  0.45593999997E+02  0.45594000000E+02  0.51100000000E-03 0. -1.
         11   -1    0    0    0    0 -0.00000000000E+00 -0.00000000000E+00 -0.45593999997E+02  0.45594000000E+02  0.51100000000E-03 0.  1.
    9900012    2    1    2    0    0 -0.34739831289E+02  0.58631844025E+01  0.25345424497E+02  0.47787270142E+02  0.19999995883E+02 0.  0.
        -12    1    1    2    0    0  0.34739831289E+02 -0.58631844025E+01 -0.25345424497E+02  0.43400729858E+02  0.00000000000E+00 0.  1.
         11    1    3    3    0    0 -0.41258905989E+01 -0.63701142410E+00  0.36989079730E+01  0.55776946171E+01  0.51100000000E-03 0. -1.
        -11    1    3    3    0    0 -0.19268419595E+02  0.12109306869E+02  0.94780572597E+01  0.24652401023E+02  0.51100000000E-03 0.  1.
        -12    1    3    3    0    0 -0.11345521095E+02 -0.56091110421E+01  0.12168459264E+02  0.17557174501E+02  0.00000000000E+00 0.  1.
</event>
<event>
 7    1  0.2294216E-010  0.4778727E+02  0.7816164E-02  0.1312668E+00
        -11   -1    0    0    0    0  0.00000000000E+00  0.00000000000E+00  0.45593999997E+02  0.45594000000E+02  0.51100000000E-03 0. -1.
         11   -1    0    0    0    0 -0.00000000000E+00 -0.00000000000E+00 -0.45593999997E+02  0.45594000000E+02  0.51100000000E-03 0.  1.
    9900012    2    1    2    0    0 -0.89792227986E+01 -0.42237417953E+02  0.43585970415E+01  0.47787270909E+02  0.19999999384E+02 0.  0.
        -12    1    1    2    0    0  0.89792227986E+01  0.42237417953E+02 -0.43585970415E+01  0.43400729091E+02  0.00000000000E+00 0.  1.
         11    1    3    3    0    0 -0.33966914769E+01 -0.25209314863E+02  0.21242401535E+01  0.25525662878E+02  0.51100000000E-03 0. -1.
        -11    1    3    3    0    0  0.12655143707E+01 -0.11985792174E+02  0.53742196429E+01  0.13196324401E+02  0.51100000000E-03 0.  1.
        -12    1    3    3    0    0 -0.68480456924E+01 -0.50423109160E+01 -0.31398627549E+01  0.90652836303E+01  0.00000000000E+00 0.  1.
</event>
<event>
 7    1  0.2294216E-010  0.4778723E+02  0.7816164E-02  0.1312668E+00
        -11   -1    0    0    0    0  0.00000000000E+00  0.00000000000E+00  0.45593999997E+02  0.45594000000E+02  0.51100000000E-03 0.  1.
         11   -1    0    0    0    0 -0.00000000000E+00 -0.00000000000E+00 -0.45593999997E+02  0.45594000000E+02  0.51100000000E-03 0. -1.
    9900012    2    1    2    0    0 -0.11919263092E+02 -0.26122128607E+02 -0.32545230334E+02  0.47787234418E+02  0.19999833003E+02 0.  0.
        -12    1    1    2    0    0  0.11919263092E+02  0.26122128607E+02  0.32545230334E+02  0.43400765582E+02  0.00000000000E+00 0.  1.
         11    1    3    3    0    0 -0.16197343989E+01  0.14597479264E+01 -0.45236841398E+01  0.50217648282E+01  0.51100000000E-03 0. -1.
        -11    1    3    3    0    0  0.25738239721E+01 -0.47801928658E+01 -0.18283188421E+01  0.57286615996E+01  0.51100000000E-03 0.  1.
         12    1    3    3    0    0 -0.12873352665E+02 -0.22801683668E+02 -0.26193227353E+02  0.37036807990E+02  0.00000000000E+00 0. -1.
</event>
<event>
 7    1  0.2294216E-010  0.4778727E+02  0.7816164E-02  0.1312668E+00
        -11   -1    0    0    0    0  0.00000000000E+00  0.00000000000E+00  0.45593999997E+02  0.45594000000E+02  0.51100000000E-03 0. -1.
         11   -1    0    0    0    0 -0.00000000000E+00 -0.00000000000E+00 -0.45593999997E+02  0.45594000000E+02  0.51100000000E-03 0.  1.
    9900012    2    1    2    0    0  0.26820212324E+02 -0.33878593938E+02  0.40669632217E+01  0.47787272977E+02  0.20000008811E+02 0.  0.
        -12    1    1    2    0    0 -0.26820212324E+02  0.33878593938E+02 -0.40669632217E+01  0.43400727023E+02  0.00000000000E+00 0.  1.
         11    1    3    3    0    0  0.33705283004E+01 -0.13705043413E+02  0.41805342755E+00  0.14119612066E+02  0.51100000000E-03 0. -1.
        -11    1    3    3    0    0  0.47480902999E+01 -0.67834293857E+01 -0.43023642137E+01  0.93311099991E+01  0.51100000000E-03 0.  1.
         12    1    3    3    0    0  0.18701593723E+02 -0.13390121139E+02  0.79512740079E+01  0.24336550911E+02  0.00000000000E+00 0. -1.
</event>
<event>
 7    1  0.2294216E-010  0.4778727E+02  0.7816164E-02  0.1312668E+00
        -11   -1    0    0    0    0  0.00000000000E+00  0.00000000000E+00  0.45593999997E+02  0.45594000000E+02  0.51100000000E-03 0. -1.
         11   -1    0    0    0    0 -0.00000000000E+00 -0.00000000000E+00 -0.45593999997E+02  0.45594000000E+02  0.51100000000E-03 0.  1.
    9900012    2    1    2    0    0 -0.69541444106E+01 -0.21616604370E+02  0.36986294913E+02  0.47787265901E+02  0.19999976547E+02 0.  0.
        -12    1    1    2    0    0  0.69541444106E+01  0.21616604370E+02 -0.36986294913E+02  0.43400734099E+02  0.00000000000E+00 0.  1.
         11    1    3    3    0    0  0.22496507691E+01 -0.10150706675E+02  0.14285975780E+02  0.17668810906E+02  0.51100000000E-03 0. -1.
        -11    1    3    3    0    0 -0.11356196377E+01  0.11679078377E+01  0.10953229535E+02  0.11073702099E+02  0.51100000000E-03 0.  1.
        -12    1    3    3    0    0 -0.80681755420E+01 -0.12633805533E+02  0.11747089598E+02  0.19044752896E+02  0.00000000000E+00 0.  1.
</event>
<event>
 7    1  0.2294216E-010  0.4778727E+02  0.7816164E-02  0.1312668E+00
        -11   -1    0    0    0    0  0.00000000000E+00  0.00000000000E+00  0.45593999997E+02  0.45594000000E+02  0.51100000000E-03 0.  1.
         11   -1    0    0    0    0 -0.00000000000E+00 -0.00000000000E+00 -0.45593999997E+02  0.45594000000E+02  0.51100000000E-03 0. -1.
    9900012    2    1    2    0    0  0.44667907758E+01  0.41821654446E+02 -0.10706072437E+02  0.47787274344E+02  0.20000015046E+02 0.  0.
        -12    1    1    2    0    0 -0.44667907758E+01 -0.41821654446E+02  0.10706072437E+02  0.43400725656E+02  0.00000000000E+00 0.  1.
         11    1    3    3    0    0  0.26787083440E+01  0.40820425751E+01  0.26898207905E+01  0.55743776445E+01  0.51100000000E-03 0.  1.
        -11    1    3    3    0    0  0.49752030257E+01  0.82295270722E+01 -0.68805377277E+01  0.11824532154E+02  0.51100000000E-03 0. -1.
         12    1    3    3    0    0 -0.31871205939E+01  0.29510084798E+02 -0.65153555000E+01  0.30388364546E+02  0.00000000000E+00 0. -1.
</event>
<event>
 7    1  0.2294216E-010  0.4778728E+02  0.7816164E-02  0.1312668E+00
        -11   -1    0    0    0    0  0.00000000000E+00  0.00000000000E+00  0.45593999997E+02  0.45594000000E+02  0.51100000000E-03 0.  1.
         11   -1    0    0    0    0 -0.00000000000E+00 -0.00000000000E+00 -0.45593999997E+02  0.45594000000E+02  0.51100000000E-03 0. -1.
    9900012    2    1    2    0    0 -0.22834095410E+02  0.34277367390E+02  0.13685347409E+02  0.47787279245E+02  0.20000037390E+02 0.  0.
        -12    1    1    2    0    0  0.22834095410E+02 -0.34277367390E+02 -0.13685347409E+02  0.43400720755E+02  0.00000000000E+00 0.  1.
         11    1    3    3    0    0 -0.82436669607E+01  0.70112526865E+01  0.29152534670E+01  0.11207783556E+02  0.51100000000E-03 0. -1.
        -11    1    3    3    0    0 -0.77567684404E+01  0.20027870623E+02  0.14538618753E+02  0.25935583545E+02  0.51100000000E-03 0.  1.
         12    1    3    3    0    0 -0.68336600085E+01  0.72382440807E+01 -0.37685248110E+01  0.10643912144E+02  0.00000000000E+00 0. -1.
</event>
<event>
 7    1  0.2294216E-010  0.4778729E+02  0.7816164E-02  0.1312668E+00
        -11   -1    0    0    0    0  0.00000000000E+00  0.00000000000E+00  0.45593999997E+02  0.45594000000E+02  0.51100000000E-03 0. -1.
         11   -1    0    0    0    0 -0.00000000000E+00 -0.00000000000E+00 -0.45593999997E+02  0.45594000000E+02  0.51100000000E-03 0.  1.
    9900012    2    1    2    0    0 -0.23965864897E+02  0.26335747775E+02  0.24813054095E+02  0.47787286358E+02  0.20000069820E+02 0.  0.
        -12    1    1    2    0    0  0.23965864897E+02 -0.26335747775E+02 -0.24813054095E+02  0.43400713642E+02  0.00000000000E+00 0.  1.
         11    1    3    3    0    0 -0.50476158018E+01 -0.10706521571E+01  0.19647078638E+01  0.55213040648E+01  0.51100000000E-03 0. -1.
        -11    1    3    3    0    0 -0.11393312960E+02  0.10026031221E+02  0.16187833095E+02  0.22189520564E+02  0.51100000000E-03 0.  1.
         12    1    3    3    0    0 -0.75249361350E+01  0.17380368711E+02  0.66605131360E+01  0.20076461730E+02  0.00000000000E+00 0. -1.
</event>
<event>
 7    1  0.2294216E-010  0.4778727E+02  0.7816164E-02  0.1312668E+00
        -11   -1    0    0    0    0  0.00000000000E+00  0.00000000000E+00  0.45593999997E+02  0.45594000000E+02  0.51100000000E-03 0.  1.
         11   -1    0    0    0    0 -0.00000000000E+00 -0.00000000000E+00 -0.45593999997E+02  0.45594000000E+02  0.51100000000E-03 0. -1.
    9900012    2    1    2    0    0  0.35061468274E+02 -0.19721428068E+02 -0.16290547002E+02  0.47787271847E+02  0.20000003659E+02 0.  0.
        -12    1    1    2    0    0 -0.35061468274E+02  0.19721428068E+02  0.16290547002E+02  0.43400728153E+02  0.00000000000E+00 0.  1.
         11    1    3    3    0    0  0.14741237152E+02 -0.28106882476E+01 -0.18811300629E+01  0.15124241858E+02  0.51100000000E-03 0. -1.
        -11    1    3    3    0    0  0.19409528591E+02 -0.10089012241E+02 -0.13539116875E+02  0.25725972366E+02  0.51100000000E-03 0.  1.
        -12    1    3    3    0    0  0.91070253102E+00 -0.68217275794E+01 -0.87030006345E+00  0.69370576232E+01  0.00000000000E+00 0.  1.
</event>
<event>
 7    1  0.2294216E-010  0.4778727E+02  0.7816164E-02  0.1312668E+00
        -11   -1    0    0    0    0  0.00000000000E+00  0.00000000000E+00  0.45593999997E+02  0.45594000000E+02  0.51100000000E-03 0.  1.
         11   -1    0    0    0    0 -0.00000000000E+00 -0.00000000000E+00 -0.45593999997E+02  0.45594000000E+02  0.51100000000E-03 0. -1.
    9900012    2    1    2    0    0 -0.87949704489E+01 -0.84574605314E+01 -0.41650249705E+02  0.47787269080E+02  0.19999991045E+02 0.  0.
        -12    1    1    2    0    0  0.87949704489E+01  0.84574605314E+01  0.41650249705E+02  0.43400730920E+02  0.00000000000E+00 0.  1.
         11    1    3    3    0    0 -0.78829112574E+01 -0.10483235970E+02 -0.32507502553E+02  0.35053904901E+02  0.51100000000E-03 0.  1.
        -11    1    3    3    0    0 -0.19518725898E+01 -0.30561865895E+01 -0.44302943537E+01  0.57251717353E+01  0.51100000000E-03 0. -1.
        -12    1    3    3    0    0  0.10398133982E+01  0.50819620282E+01 -0.47124527984E+01  0.70081924443E+01  0.00000000000E+00 0.  1.
</event>
<event>
 7    1  0.2294216E-010  0.4778727E+02  0.7816164E-02  0.1312668E+00
        -11   -1    0    0    0    0  0.00000000000E+00  0.00000000000E+00  0.45593999997E+02  0.45594000000E+02  0.51100000000E-03 0. -1.
         11   -1    0    0    0    0 -0.00000000000E+00 -0.00000000000E+00 -0.45593999997E+02  0.45594000000E+02  0.51100000000E-03 0.  1.
    9900012    2    1    2    0    0  0.14999770488E+02 -0.32922501326E+02  0.23973717568E+02  0.47787270256E+02  0.19999996406E+02 0.  0.
        -12    1    1    2    0    0 -0.14999770488E+02  0.32922501326E+02 -0.23973717568E+02  0.43400729744E+02  0.00000000000E+00 0.  1.
         11    1    3    3    0    0  0.12826129986E+02 -0.12643877204E+02  0.10835263529E+02  0.21018567439E+02  0.51100000000E-03 0. -1.
        -11    1    3    3    0    0  0.19979357671E+01 -0.31260513865E+01  0.80702441566E+01  0.88821610889E+01  0.51100000000E-03 0.  1.
         12    1    3    3    0    0  0.17570473531E+00 -0.17152572735E+02  0.50682098823E+01  0.17886541728E+02  0.00000000000E+00 0. -1.
</event>
<event>
 7    1  0.2294216E-010  0.4778727E+02  0.7816164E-02  0.1312668E+00
        -11   -1    0    0    0    0  0.00000000000E+00  0.00000000000E+00  0.45593999997E+02  0.45594000000E+02  0.51100000000E-03 0.  1.
         11   -1    0    0    0    0 -0.00000000000E+00 -0.00000000000E+00 -0.45593999997E+02  0.45594000000E+02  0.51100000000E-03 0. -1.
    9900012    2    1    2    0    0  0.13204389992E+01 -0.10379636146E+02 -0.42120572058E+02  0.47787274244E+02  0.20000014587E+02 0.  0.
        -12    1    1    2    0    0 -0.13204389992E+01  0.10379636146E+02  0.42120572058E+02  0.43400725756E+02  0.00000000000E+00 0.  1.
         11    1    3    3    0    0  0.41386978569E+00 -0.40087937708E+01 -0.13221876060E+02  0.13822435477E+02  0.51100000000E-03 0. -1.
        -11    1    3    3    0    0  0.53594160309E+01 -0.71087295444E+01 -0.62665636604E+01  0.10887019624E+02  0.51100000000E-03 0.  1.
        -12    1    3    3    0    0 -0.44528468174E+01  0.73788716891E+00 -0.22632132337E+02  0.23077819143E+02  0.00000000000E+00 0.  1.
</event>
<event>
 7    1  0.2294216E-010  0.4778727E+02  0.7816164E-02  0.1312668E+00
        -11   -1    0    0    0    0  0.00000000000E+00  0.00000000000E+00  0.45593999997E+02  0.45594000000E+02  0.51100000000E-03 0. -1.
         11   -1    0    0    0    0 -0.00000000000E+00 -0.00000000000E+00 -0.45593999997E+02  0.45594000000E+02  0.51100000000E-03 0.  1.
    9900012    2    1    2    0    0 -0.23274300636E+02 -0.27280568920E+02 -0.24447912800E+02  0.47787274764E+02  0.20000016961E+02 0.  0.
        -12    1    1    2    0    0  0.23274300636E+02  0.27280568920E+02  0.24447912800E+02  0.43400725236E+02  0.00000000000E+00 0.  1.
         11    1    3    3    0    0 -0.45672326396E+01 -0.47375659245E+01 -0.87500623308E+01  0.10948412484E+02  0.51100000000E-03 0. -1.
        -11    1    3    3    0    0 -0.39011539109E+01 -0.11980338391E+02 -0.13586138775E+02  0.18529184464E+02  0.51100000000E-03 0.  1.
         12    1    3    3    0    0 -0.14805914086E+02 -0.10562664604E+02 -0.21117116939E+01  0.18309677816E+02  0.00000000000E+00 0. -1.
</event>
<event>
 7    1  0.2294216E-010  0.4778728E+02  0.7816164E-02  0.1312668E+00
        -11   -1    0    0    0    0  0.00000000000E+00  0.00000000000E+00  0.45593999997E+02  0.45594000000E+02  0.51100000000E-03 0.  1.
         11   -1    0    0    0    0 -0.00000000000E+00 -0.00000000000E+00 -0.45593999997E+02  0.45594000000E+02  0.51100000000E-03 0. -1.
    9900012    2    1    2    0    0  0.19130527631E+01  0.37322174587E-01 -0.43358523477E+02  0.47787277404E+02  0.20000028994E+02 0.  0.
        -12    1    1    2    0    0 -0.19130527631E+01 -0.37322174587E-01  0.43358523477E+02  0.43400722596E+02  0.00000000000E+00 0.  1.
         11    1    3    3    0    0 -0.37959080942E+00 -0.15076826071E+01 -0.34450574227E+02  0.34485638472E+02  0.51100000000E-03 0. -1.
        -11    1    3    3    0    0  0.41150545692E+01 -0.19705543918E+01 -0.80452157384E+01  0.92489056249E+01  0.51100000000E-03 0.  1.
         12    1    3    3    0    0 -0.18224109968E+01  0.35155591735E+01 -0.86273351158E+00  0.40527333067E+01  0.00000000000E+00 0. -1.
</event>
<event>
 7    1  0.2294216E-010  0.4778725E+02  0.7816164E-02  0.1312668E+00
        -11   -1    0    0    0    0  0.00000000000E+00  0.00000000000E+00  0.45593999997E+02  0.45594000000E+02  0.51100000000E-03 0.  1.
         11   -1    0    0    0    0 -0.00000000000E+00 -0.00000000000E+00 -0.45593999997E+02  0.45594000000E+02  0.51100000000E-03 0. -1.
    9900012    2    1    2    0    0 -0.27082604680E+02  0.45809540175E+01 -0.33603165682E+02  0.47787247013E+02  0.19999890431E+02 0.  0.
        -12    1    1    2    0    0  0.27082604680E+02 -0.45809540175E+01  0.33603165682E+02  0.43400752987E+02  0.00000000000E+00 0.  1.
         11    1    3    3    0    0 -0.98746602231E+01 -0.12959287045E+01 -0.16020346396E+02  0.18863717678E+02  0.51100000000E-03 0. -1.
        -11    1    3    3    0    0 -0.14796643647E+02  0.95000135812E+01 -0.17128955925E+02  0.24547750459E+02  0.51100000000E-03 0.  1.
         12    1    3    3    0    0 -0.24113008094E+01 -0.36231308592E+01 -0.45386336092E+00  0.43757788754E+01  0.00000000000E+00 0. -1.
</event>
<event>
 7    1  0.2294216E-010  0.4778727E+02  0.7816164E-02  0.1312668E+00
        -11   -1    0    0    0    0  0.00000000000E+00  0.00000000000E+00  0.45593999997E+02  0.45594000000E+02  0.51100000000E-03 0. -1.
         11   -1    0    0    0    0 -0.00000000000E+00 -0.00000000000E+00 -0.45593999997E+02  0.45594000000E+02  0.51100000000E-03 0.  1.
    9900012    2    1    2    0    0 -0.42624603021E+02 -0.80235730008E+01 -0.15457017610E+01  0.47787266132E+02  0.19999977601E+02 0.  0.
        -12    1    1    2    0    0  0.42624603021E+02  0.80235730008E+01  0.15457017610E+01  0.43400733868E+02  0.00000000000E+00 0.  1.
         11    1    3    3    0    0 -0.55821978127E+01  0.17364961948E+01  0.22581930858E+01  0.62670397899E+01  0.51100000000E-03 0. -1.
        -11    1    3    3    0    0 -0.69586625896E+00 -0.45667408066E+01 -0.72038244449E+00  0.46752863626E+01  0.51100000000E-03 0.  1.
         12    1    3    3    0    0 -0.36346538949E+02 -0.51933283891E+01 -0.30835124023E+01  0.36844939979E+02  0.00000000000E+00 0. -1.
</event>
<event>
 7    1  0.2294216E-010  0.4778727E+02  0.7816164E-02  0.1312668E+00
        -11   -1    0    0    0    0  0.00000000000E+00  0.00000000000E+00  0.45593999997E+02  0.45594000000E+02  0.51100000000E-03 0. -1.
         11   -1    0    0    0    0 -0.00000000000E+00 -0.00000000000E+00 -0.45593999997E+02  0.45594000000E+02  0.51100000000E-03 0.  1.
    9900012    2    1    2    0    0  0.39857547932E+02  0.47753842711E+01 -0.16498328709E+02  0.47787271063E+02  0.20000000083E+02 0.  0.
        -12    1    1    2    0    0 -0.39857547932E+02 -0.47753842711E+01  0.16498328709E+02  0.43400728937E+02  0.00000000000E+00 0.  1.
         11    1    3    3    0    0  0.10877997110E+02 -0.25269349874E+01 -0.19632817745E+01  0.11338901937E+02  0.51100000000E-03 0. -1.
        -11    1    3    3    0    0  0.14598414323E+02  0.93284701883E+00 -0.14673169299E+02  0.20719213350E+02  0.51100000000E-03 0.  1.
         12    1    3    3    0    0  0.14381136499E+02  0.63694722396E+01  0.13812236460E+00  0.15729155775E+02  0.00000000000E+00 0. -1.
</event>
<event>
 7    1  0.2294216E-010  0.4778727E+02  0.7816164E-02  0.1312668E+00
        -11   -1    0    0    0    0  0.00000000000E+00  0.00000000000E+00  0.45593999997E+02  0.45594000000E+02  0.51100000000E-03 0.  1.
         11   -1    0    0    0    0 -0.00000000000E+00 -0.00000000000E+00 -0.45593999997E+02  0.45594000000E+02  0.51100000000E-03 0. -1.
    9900012    2    1    2    0    0  0.11229678333E+02  0.16101016967E+02 -0.38707556471E+02  0.47787270158E+02  0.19999995960E+02 0.  0.
        -12    1    1    2    0    0 -0.11229678333E+02 -0.16101016967E+02  0.38707556471E+02  0.43400729842E+02  0.00000000000E+00 0.  1.
         11    1    3    3    0    0 -0.90030929524E+00  0.70478808558E+01 -0.15651136213E+02  0.17188404417E+02  0.51100000000E-03 0. -1.
        -11    1    3    3    0    0  0.10988799368E+02  0.10317632338E+02 -0.24226083574E+02  0.28532619477E+02  0.51100000000E-03 0.  1.
         12    1    3    3    0    0  0.11411882606E+01 -0.12644962275E+01  0.11696633153E+01  0.20662462648E+01  0.00000000000E+00 0. -1.
</event>
<event>
 7    1  0.2294216E-010  0.4778727E+02  0.7816164E-02  0.1312668E+00
        -11   -1    0    0    0    0  0.00000000000E+00  0.00000000000E+00  0.45593999997E+02  0.45594000000E+02  0.51100000000E-03 0. -1.
         11   -1    0    0    0    0 -0.00000000000E+00 -0.00000000000E+00 -0.45593999997E+02  0.45594000000E+02  0.51100000000E-03 0.  1.
    9900012    2    1    2    0    0  0.39451940657E+02  0.23018846263E+01 -0.17940716287E+02  0.47787267341E+02  0.19999983116E+02 0.  0.
        -12    1    1    2    0    0 -0.39451940657E+02 -0.23018846263E+01  0.17940716287E+02  0.43400732659E+02  0.00000000000E+00 0.  1.
         11    1    3    3    0    0 -0.59800587028E+00 -0.79637474880E+00 -0.24690863325E+01  0.26623694972E+01  0.51100000000E-03 0.  1.
        -11    1    3    3    0    0  0.11380974347E+02  0.14479948154E+01 -0.11306874753E+02  0.16108031630E+02  0.51100000000E-03 0. -1.
         12    1    3    3    0    0  0.28668972180E+02  0.16502645597E+01 -0.41647552021E+01  0.29016866214E+02  0.00000000000E+00 0. -1.
</event>
<event>
 7    1  0.2294216E-010  0.4778727E+02  0.7816164E-02  0.1312668E+00
        -11   -1    0    0    0    0  0.00000000000E+00  0.00000000000E+00  0.45593999997E+02  0.45594000000E+02  0.51100000000E-03 0.  1.
         11   -1    0    0    0    0 -0.00000000000E+00 -0.00000000000E+00 -0.45593999997E+02  0.45594000000E+02  0.51100000000E-03 0. -1.
    9900012    2    1    2    0    0 -0.74433009781E+01  0.16285054071E+02 -0.39535014789E+02  0.47787272933E+02  0.20000008611E+02 0.  0.
        -12    1    1    2    0    0  0.74433009781E+01 -0.16285054071E+02  0.39535014789E+02  0.43400727067E+02  0.00000000000E+00 0.  1.
         11    1    3    3    0    0 -0.29719813066E+01  0.11108179217E+02 -0.26909593652E+02  0.29263467826E+02  0.51100000000E-03 0. -1.
        -11    1    3    3    0    0 -0.29392590467E+01  0.50704975287E+01 -0.14767553391E+02  0.15888040230E+02  0.51100000000E-03 0.  1.
        -12    1    3    3    0    0 -0.15320606248E+01  0.10637732524E+00  0.21421322540E+01  0.26357648770E+01  0.00000000000E+00 0.  1.
</event>
<event>
 7    1  0.2294216E-010  0.4778728E+02  0.7816164E-02  0.1312668E+00
        -11   -1    0    0    0    0  0.00000000000E+00  0.00000000000E+00  0.45593999997E+02  0.45594000000E+02  0.51100000000E-03 0.  1.
         11   -1    0    0    0    0 -0.00000000000E+00 -0.00000000000E+00 -0.45593999997E+02  0.45594000000E+02  0.51100000000E-03 0. -1.
    9900012    2    1    2    0    0  0.20966009508E+02  0.64641729628E+01 -0.37446807673E+02  0.47787280055E+02  0.20000041085E+02 0.  0.
        -12    1    1    2    0    0 -0.20966009508E+02 -0.64641729628E+01  0.37446807673E+02  0.43400719945E+02  0.00000000000E+00 0.  1.
         11    1    3    3    0    0  0.13344610768E+02 -0.44681117071E+01 -0.17787965988E+02  0.22681587092E+02  0.51100000000E-03 0. -1.
        -11    1    3    3    0    0 -0.15325380217E+01  0.26324626357E+00 -0.18368640645E+01  0.24066660000E+01  0.51100000000E-03 0.  1.
        -12    1    3    3    0    0  0.91539367617E+01  0.10669038406E+02 -0.17821977621E+02  0.22699026963E+02  0.00000000000E+00 0.  1.
</event>
<event>
 7    1  0.2294216E-010  0.4778727E+02  0.7816164E-02  0.1312668E+00
        -11   -1    0    0    0    0  0.00000000000E+00  0.00000000000E+00  0.45593999997E+02  0.45594000000E+02  0.51100000000E-03 0.  1.
         11   -1    0    0    0    0 -0.00000000000E+00 -0.00000000000E+00 -0.45593999997E+02  0.45594000000E+02  0.51100000000E-03 0. -1.
    9900012    2    1    2    0    0 -0.32320533810E+02  0.20121665457E+02 -0.20835669325E+02  0.47787269099E+02  0.19999991128E+02 0.  0.
        -12    1    1    2    0    0  0.32320533810E+02 -0.20121665457E+02  0.20835669325E+02  0.43400730901E+02  0.00000000000E+00 0.  1.
         11    1    3    3    0    0 -0.42885770426E+01 -0.77419265566E+00 -0.48685271599E-01  0.43581690921E+01  0.51100000000E-03 0.  1.
        -11    1    3    3    0    0 -0.20117001836E+02  0.76399083863E+01 -0.17276244469E+02  0.27595843640E+02  0.51100000000E-03 0. -1.
         12    1    3    3    0    0 -0.79149549320E+01  0.13255949726E+02 -0.35107395846E+01  0.15833256366E+02  0.00000000000E+00 0. -1.
</event>
<event>
 7    1  0.2294216E-010  0.4778727E+02  0.7816164E-02  0.1312668E+00
        -11   -1    0    0    0    0  0.00000000000E+00  0.00000000000E+00  0.45593999997E+02  0.45594000000E+02  0.51100000000E-03 0.  1.
         11   -1    0    0    0    0 -0.00000000000E+00 -0.00000000000E+00 -0.45593999997E+02  0.45594000000E+02  0.51100000000E-03 0. -1.
    9900012    2    1    2    0    0  0.41647971298E+02 -0.10055601369E+02  0.69249540909E+01  0.47787267042E+02  0.19999981752E+02 0.  0.
        -12    1    1    2    0    0 -0.41647971298E+02  0.10055601369E+02 -0.69249540909E+01  0.43400732958E+02  0.00000000000E+00 0.  1.
         11    1    3    3    0    0  0.17345748099E+02 -0.37265978854E+01 -0.47149795938E+01  0.18357383848E+02  0.51100000000E-03 0. -1.
        -11    1    3    3    0    0  0.36495223974E+01 -0.47320201649E+01  0.73633991874E+00  0.60210651306E+01  0.51100000000E-03 0.  1.
         12    1    3    3    0    0  0.20652700802E+02 -0.15969833183E+01  0.10903593766E+02  0.23408818064E+02  0.00000000000E+00 0. -1.
</event>
<event>
 7    1  0.2294216E-010  0.4778727E+02  0.7816164E-02  0.1312668E+00
        -11   -1    0    0    0    0  0.00000000000E+00  0.00000000000E+00  0.45593999997E+02  0.45594000000E+02  0.51100000000E-03 0.  1.
         11   -1    0    0    0    0 -0.00000000000E+00 -0.00000000000E+00 -0.45593999997E+02  0.45594000000E+02  0.51100000000E-03 0. -1.
    9900012    2    1    2    0    0  0.10183364122E+02 -0.21758467553E+02 -0.36145418662E+02  0.47787272986E+02  0.20000008852E+02 0.  0.
        -12    1    1    2    0    0 -0.10183364122E+02  0.21758467553E+02  0.36145418662E+02  0.43400727014E+02  0.00000000000E+00 0.  1.
         11    1    3    3    0    0  0.10706201291E+01 -0.76250287060E+01 -0.90519900695E+01  0.11883846798E+02  0.51100000000E-03 0. -1.
        -11    1    3    3    0    0  0.16762467970E+01 -0.12569177426E+02 -0.71412279745E+01  0.14553046476E+02  0.51100000000E-03 0.  1.
         12    1    3    3    0    0  0.74364971959E+01 -0.15642614204E+01 -0.19952200618E+02  0.21350379712E+02  0.00000000000E+00 0. -1.
</event>
<event>
 7    1  0.2294216E-010  0.4778729E+02  0.7816164E-02  0.1312668E+00
        -11   -1    0    0    0    0  0.00000000000E+00  0.00000000000E+00  0.45593999997E+02  0.45594000000E+02  0.51100000000E-03 0.  1.
         11   -1    0    0    0    0 -0.00000000000E+00 -0.00000000000E+00 -0.45593999997E+02  0.45594000000E+02  0.51100000000E-03 0. -1.
    9900012    2    1    2    0    0 -0.30313105052E+02  0.30897165978E+02 -0.31784208149E+01  0.47787290764E+02  0.20000089907E+02 0.  0.
        -12    1    1    2    0    0  0.30313105052E+02 -0.30897165978E+02  0.31784208149E+01  0.43400709236E+02  0.00000000000E+00 0.  1.
         11    1    3    3    0    0 -0.31206786840E+01  0.22417875000E+01 -0.24393011846E+01  0.45513115884E+01  0.51100000000E-03 0. -1.
        -11    1    3    3    0    0 -0.61672176282E+01  0.13010467339E+02 -0.74099111822E+01  0.16193011383E+02  0.51100000000E-03 0.  1.
         12    1    3    3    0    0 -0.21025208740E+02  0.15644911139E+02  0.66707915520E+01  0.27042967792E+02  0.00000000000E+00 0. -1.
</event>
<event>
 7    1  0.2294216E-010  0.4778727E+02  0.7816164E-02  0.1312668E+00
        -11   -1    0    0    0    0  0.00000000000E+00  0.00000000000E+00  0.45593999997E+02  0.45594000000E+02  0.51100000000E-03 0.  1.
         11   -1    0    0    0    0 -0.00000000000E+00 -0.00000000000E+00 -0.45593999997E+02  0.45594000000E+02  0.51100000000E-03 0. -1.
    9900012    2    1    2    0    0 -0.30465895936E+02  0.29715301729E+02  0.85119515844E+01  0.47787270837E+02  0.19999999056E+02 0.  0.
        -12    1    1    2    0    0  0.30465895936E+02 -0.29715301729E+02 -0.85119515844E+01  0.43400729163E+02  0.00000000000E+00 0.  1.
         11    1    3    3    0    0 -0.82224942887E+00 -0.10968827911E+01 -0.78538808864E+00  0.15798989498E+01  0.51100000000E-03 0.  1.
        -11    1    3    3    0    0 -0.20670269573E+02  0.29749529485E+02  0.75415120472E+01  0.37002283078E+02  0.51100000000E-03 0. -1.
         12    1    3    3    0    0 -0.89733769350E+01  0.10626550358E+01  0.17558276258E+01  0.92050888097E+01  0.00000000000E+00 0. -1.
</event>
<event>
 7    1  0.2294216E-010  0.4778729E+02  0.7816164E-02  0.1312668E+00
        -11   -1    0    0    0    0  0.00000000000E+00  0.00000000000E+00  0.45593999997E+02  0.45594000000E+02  0.51100000000E-03 0.  1.
         11   -1    0    0    0    0 -0.00000000000E+00 -0.00000000000E+00 -0.45593999997E+02  0.45594000000E+02  0.51100000000E-03 0. -1.
    9900012    2    1    2    0    0 -0.30528658308E+02  0.27665618188E+02 -0.13646850208E+02  0.47787286544E+02  0.20000070670E+02 0.  0.
        -12    1    1    2    0    0  0.30528658308E+02 -0.27665618188E+02  0.13646850208E+02  0.43400713456E+02  0.00000000000E+00 0.  1.
         11    1    3    3    0    0 -0.44159613860E+01  0.50049241099E+00  0.15572643525E+01  0.47091697932E+01  0.51100000000E-03 0. -1.
        -11    1    3    3    0    0 -0.11521493395E+02  0.61864477812E+01  0.49542017094E+00  0.13086725626E+02  0.51100000000E-03 0.  1.
         12    1    3    3    0    0 -0.14591203527E+02  0.20978677996E+02 -0.15699534732E+02  0.29991391125E+02  0.00000000000E+00 0. -1.
</event>
<event>
 7    1  0.2294216E-010  0.4778727E+02  0.7816164E-02  0.1312668E+00
        -11   -1    0    0    0    0  0.00000000000E+00  0.00000000000E+00  0.45593999997E+02  0.45594000000E+02  0.51100000000E-03 0.  1.
         11   -1    0    0    0    0 -0.00000000000E+00 -0.00000000000E+00 -0.45593999997E+02  0.45594000000E+02  0.51100000000E-03 0. -1.
    9900012    2    1    2    0    0  0.23718564830E+02  0.15408708960E+02 -0.32918454220E+02  0.47787271231E+02  0.20000000851E+02 0.  0.
        -12    1    1    2    0    0 -0.23718564830E+02 -0.15408708960E+02  0.32918454220E+02  0.43400728769E+02  0.00000000000E+00 0.  1.
         11    1    3    3    0    0  0.14989779552E+02  0.11413593590E+01 -0.10722870296E+02  0.18465539252E+02  0.51100000000E-03 0. -1.
        -11    1    3    3    0    0  0.80505007213E+01  0.76629392593E+01 -0.81381739615E+01  0.13775379329E+02  0.51100000000E-03 0.  1.
        -12    1    3    3    0    0  0.67828455703E+00  0.66044103416E+01 -0.14057409962E+02  0.15546352651E+02  0.00000000000E+00 0.  1.
</event>
<event>
 7    1  0.2294216E-010  0.4778727E+02  0.7816164E-02  0.1312668E+00
        -11   -1    0    0    0    0  0.00000000000E+00  0.00000000000E+00  0.45593999997E+02  0.45594000000E+02  0.51100000000E-03 0. -1.
         11   -1    0    0    0    0 -0.00000000000E+00 -0.00000000000E+00 -0.45593999997E+02  0.45594000000E+02  0.51100000000E-03 0.  1.
    9900012    2    1    2    0    0  0.10048060636E+02 -0.73774547346E+01  0.41572024449E+02  0.47787267544E+02  0.19999984040E+02 0.  0.
        -12    1    1    2    0    0 -0.10048060636E+02  0.73774547346E+01 -0.41572024449E+02  0.43400732456E+02  0.00000000000E+00 0.  1.
         11    1    3    3    0    0  0.84665690677E+01 -0.52049362880E+01  0.23487270305E+02  0.25503451142E+02  0.51100000000E-03 0. -1.
        -11    1    3    3    0    0 -0.20372715128E+01 -0.61898062038E+01  0.14206917234E+02  0.15630120717E+02  0.51100000000E-03 0.  1.
         12    1    3    3    0    0  0.36187630813E+01  0.40172877572E+01  0.38778369103E+01  0.66536956848E+01  0.00000000000E+00 0. -1.
</event>
<event>
 7    1  0.2294216E-010  0.4778727E+02  0.7816164E-02  0.1312668E+00
        -11   -1    0    0    0    0  0.00000000000E+00  0.00000000000E+00  0.45593999997E+02  0.45594000000E+02  0.51100000000E-03 0.  1.
         11   -1    0    0    0    0 -0.00000000000E+00 -0.00000000000E+00 -0.45593999997E+02  0.45594000000E+02  0.51100000000E-03 0. -1.
    9900012    2    1    2    0    0 -0.29533639810E+02  0.11945681451E+02 -0.29473510983E+02  0.47787273791E+02  0.20000012522E+02 0.  0.
        -12    1    1    2    0    0  0.29533639810E+02 -0.11945681451E+02  0.29473510983E+02  0.43400726209E+02  0.00000000000E+00 0.  1.
         11    1    3    3    0    0  0.23343159838E+01  0.22229329802E+00 -0.56596727461E+01  0.61262012109E+01  0.51100000000E-03 0.  1.
        -11    1    3    3    0    0 -0.20448849190E+01  0.16416489435E+01 -0.26449801414E+01  0.37245786064E+01  0.51100000000E-03 0. -1.
        -12    1    3    3    0    0 -0.29823070875E+02  0.10081739210E+02 -0.21168858096E+02  0.37936493974E+02  0.00000000000E+00 0.  1.
</event>
<event>
 7    1  0.2294216E-010  0.4778726E+02  0.7816164E-02  0.1312668E+00
        -11   -1    0    0    0    0  0.00000000000E+00  0.00000000000E+00  0.45593999997E+02  0.45594000000E+02  0.51100000000E-03 0.  1.
         11   -1    0    0    0    0 -0.00000000000E+00 -0.00000000000E+00 -0.45593999997E+02  0.45594000000E+02  0.51100000000E-03 0. -1.
    9900012    2    1    2    0    0  0.16312265187E+02 -0.33468494140E+02 -0.22302326185E+02  0.47787264421E+02  0.19999969801E+02 0.  0.
        -12    1    1    2    0    0 -0.16312265187E+02  0.33468494140E+02  0.22302326185E+02  0.43400735579E+02  0.00000000000E+00 0.  1.
         11    1    3    3    0    0 -0.49706165964E+00  0.81405252051E+00 -0.31407641787E+01  0.32824002936E+01  0.51100000000E-03 0. -1.
        -11    1    3    3    0    0  0.30241463258E+01  0.14084400289E+00 -0.82488681270E+00  0.31377916674E+01  0.51100000000E-03 0.  1.
         12    1    3    3    0    0  0.13785180520E+02 -0.34423390664E+02 -0.18336675193E+02  0.41367072460E+02  0.00000000000E+00 0. -1.
</event>
<event>
 7    1  0.2294216E-010  0.4778727E+02  0.7816164E-02  0.1312668E+00
        -11   -1    0    0    0    0  0.00000000000E+00  0.00000000000E+00  0.45593999997E+02  0.45594000000E+02  0.51100000000E-03 0.  1.
         11   -1    0    0    0    0 -0.00000000000E+00 -0.00000000000E+00 -0.45593999997E+02  0.45594000000E+02  0.51100000000E-03 0. -1.
    9900012    2    1    2    0    0 -0.29591811725E+02  0.62442315919E+01 -0.31128084455E+02  0.47787269693E+02  0.19999993838E+02 0.  0.
        -12    1    1    2    0    0  0.29591811725E+02 -0.62442315919E+01  0.31128084455E+02  0.43400730307E+02  0.00000000000E+00 0.  1.
         11    1    3    3    0    0 -0.64114584733E+01  0.12725113698E+01 -0.18749524439E+01  0.68001126365E+01  0.51100000000E-03 0. -1.
        -11    1    3    3    0    0 -0.15926988474E+01 -0.24839866474E+01 -0.12017746721E+02  0.12374696594E+02  0.51100000000E-03 0.  1.
         12    1    3    3    0    0 -0.21587654405E+02  0.74557068695E+01 -0.17235385289E+02  0.28612460462E+02  0.00000000000E+00 0. -1.
</event>
<event>
 7    1  0.2294216E-010  0.4778727E+02  0.7816164E-02  0.1312668E+00
        -11   -1    0    0    0    0  0.00000000000E+00  0.00000000000E+00  0.45593999997E+02  0.45594000000E+02  0.51100000000E-03 0.  1.
         11   -1    0    0    0    0 -0.00000000000E+00 -0.00000000000E+00 -0.45593999997E+02  0.45594000000E+02  0.51100000000E-03 0. -1.
    9900012    2    1    2    0    0 -0.96944317525E+01 -0.54163395567E+01 -0.41955984592E+02  0.47787269772E+02  0.19999994199E+02 0.  0.
        -12    1    1    2    0    0  0.96944317525E+01  0.54163395567E+01  0.41955984592E+02  0.43400730228E+02  0.00000000000E+00 0.  1.
         11    1    3    3    0    0 -0.10056117052E+02  0.43350574567E+01 -0.22913260067E+02  0.25395584271E+02  0.51100000000E-03 0. -1.
        -11    1    3    3    0    0 -0.21689666409E+01 -0.78422501413E+01 -0.16222672675E+02  0.18148840529E+02  0.51100000000E-03 0.  1.
        -12    1    3    3    0    0  0.25306519400E+01 -0.19091468720E+01 -0.28200518508E+01  0.42428449726E+01  0.00000000000E+00 0.  1.
</event>
<event>
 7    1  0.2294216E-010  0.4778730E+02  0.7816164E-02  0.1312668E+00
        -11   -1    0    0    0    0  0.00000000000E+00  0.00000000000E+00  0.45593999997E+02  0.45594000000E+02  0.51100000000E-03 0.  1.
         11   -1    0    0    0    0 -0.00000000000E+00 -0.00000000000E+00 -0.45593999997E+02  0.45594000000E+02  0.51100000000E-03 0. -1.
    9900012    2    1    2    0    0 -0.72050488437E+01  0.42784890317E+02  0.10775558295E+01  0.47787300756E+02  0.20000135466E+02 0.  0.
        -12    1    1    2    0    0  0.72050488437E+01 -0.42784890317E+02 -0.10775558295E+01  0.43400699244E+02  0.00000000000E+00 0.  1.
         11    1    3    3    0    0 -0.36961456717E+01  0.14781205305E+02  0.27204980752E+00  0.15238751079E+02  0.51100000000E-03 0. -1.
        -11    1    3    3    0    0 -0.26449029297E+01  0.46361409527E+01  0.65701038943E+01  0.84649618951E+01  0.51100000000E-03 0.  1.
        -12    1    3    3    0    0 -0.86400024220E+00  0.23367544060E+02 -0.57645978724E+01  0.24083587781E+02  0.00000000000E+00 0.  1.
</event>
<event>
 7    1  0.2294216E-010  0.4778727E+02  0.7816164E-02  0.1312668E+00
        -11   -1    0    0    0    0  0.00000000000E+00  0.00000000000E+00  0.45593999997E+02  0.45594000000E+02  0.51100000000E-03 0. -1.
         11   -1    0    0    0    0 -0.00000000000E+00 -0.00000000000E+00 -0.45593999997E+02  0.45594000000E+02  0.51100000000E-03 0.  1.
    9900012    2    1    2    0    0  0.17022623766E+02 -0.39774173873E+02 -0.34451156834E+01  0.47787269024E+02  0.19999990787E+02 0.  0.
        -12    1    1    2    0    0 -0.17022623766E+02  0.39774173873E+02  0.34451156834E+01  0.43400730976E+02  0.00000000000E+00 0.  1.
         11    1    3    3    0    0  0.66540411430E+01 -0.30181227221E+02 -0.35680179417E+00  0.30908090330E+02  0.51100000000E-03 0. -1.
        -11    1    3    3    0    0  0.18884447328E+01 -0.69604319935E+01 -0.34451138094E+01  0.79926620388E+01  0.51100000000E-03 0.  1.
        -12    1    3    3    0    0  0.84801378906E+01 -0.26325146590E+01  0.35679992010E+00  0.88865166548E+01  0.00000000000E+00 0.  1.
</event>
<event>
 7    1  0.2294216E-010  0.4778727E+02  0.7816164E-02  0.1312668E+00
        -11   -1    0    0    0    0  0.00000000000E+00  0.00000000000E+00  0.45593999997E+02  0.45594000000E+02  0.51100000000E-03 0.  1.
         11   -1    0    0    0    0 -0.00000000000E+00 -0.00000000000E+00 -0.45593999997E+02  0.45594000000E+02  0.51100000000E-03 0. -1.
    9900012    2    1    2    0    0 -0.15035637754E+02 -0.17891431584E+02 -0.36571159878E+02  0.47787268881E+02  0.19999990138E+02 0.  0.
        -12    1    1    2    0    0  0.15035637754E+02  0.17891431584E+02  0.36571159878E+02  0.43400731119E+02  0.00000000000E+00 0.  1.
         11    1    3    3    0    0 -0.79764393643E+01 -0.43824075390E+01 -0.81084536708E+01  0.12189179708E+02  0.51100000000E-03 0. -1.
        -11    1    3    3    0    0  0.23629858946E+01  0.81610579285E+00 -0.15774041666E+00  0.25049178237E+01  0.51100000000E-03 0.  1.
         12    1    3    3    0    0 -0.94221842843E+01 -0.14325129837E+02 -0.28304965791E+02  0.33093171349E+02  0.00000000000E+00 0. -1.
</event>
<event>
 7    1  0.2294216E-010  0.4778727E+02  0.7816164E-02  0.1312668E+00
        -11   -1    0    0    0    0  0.00000000000E+00  0.00000000000E+00  0.45593999997E+02  0.45594000000E+02  0.51100000000E-03 0.  1.
         11   -1    0    0    0    0 -0.00000000000E+00 -0.00000000000E+00 -0.45593999997E+02  0.45594000000E+02  0.51100000000E-03 0. -1.
    9900012    2    1    2    0    0  0.20855521254E+02 -0.14421410850E+02 -0.35223478976E+02  0.47787270411E+02  0.19999997113E+02 0.  0.
        -12    1    1    2    0    0 -0.20855521254E+02  0.14421410850E+02  0.35223478976E+02  0.43400729589E+02  0.00000000000E+00 0.  1.
         11    1    3    3    0    0  0.76443046437E+01 -0.12365236152E+01 -0.75330577543E+01  0.10803302436E+02  0.51100000000E-03 0. -1.
        -11    1    3    3    0    0  0.15276681590E+02 -0.13860413979E+02 -0.19063172115E+02  0.28087232106E+02  0.51100000000E-03 0.  1.
         12    1    3    3    0    0 -0.20654649794E+01  0.67552674480E+00 -0.86272491070E+01  0.88967358688E+01  0.00000000000E+00 0. -1.
</event>
<event>
 7    1  0.2294216E-010  0.4778727E+02  0.7816164E-02  0.1312668E+00
        -11   -1    0    0    0    0  0.00000000000E+00  0.00000000000E+00  0.45593999997E+02  0.45594000000E+02  0.51100000000E-03 0.  1.
         11   -1    0    0    0    0 -0.00000000000E+00 -0.00000000000E+00 -0.45593999997E+02  0.45594000000E+02  0.51100000000E-03 0. -1.
    9900012    2    1    2    0    0  0.11934338779E+02  0.20811495428E+02 -0.36167336114E+02  0.47787274365E+02  0.20000015140E+02 0.  0.
        -12    1    1    2    0    0 -0.11934338779E+02 -0.20811495428E+02  0.36167336114E+02  0.43400725635E+02  0.00000000000E+00 0.  1.
         11    1    3    3    0    0  0.10319355425E+02  0.12645145230E+02 -0.18467022141E+02  0.24645886093E+02  0.51100000000E-03 0.  1.
        -11    1    3    3    0    0  0.38688280495E+01  0.68048751888E+01 -0.18740981463E+02  0.20310060149E+02  0.51100000000E-03 0. -1.
        -12    1    3    3    0    0 -0.22538446957E+01  0.13614750092E+01  0.10406674903E+01  0.28313281227E+01  0.00000000000E+00 0.  1.
</event>
<event>
 7    1  0.2294216E-010  0.4778728E+02  0.7816164E-02  0.1312668E+00
        -11   -1    0    0    0    0  0.00000000000E+00  0.00000000000E+00  0.45593999997E+02  0.45594000000E+02  0.51100000000E-03 0. -1.
         11   -1    0    0    0    0 -0.00000000000E+00 -0.00000000000E+00 -0.45593999997E+02  0.45594000000E+02  0.51100000000E-03 0.  1.
    9900012    2    1    2    0    0  0.43153004898E+02  0.23417291825E+00  0.46245062126E+01  0.47787277351E+02  0.20000028756E+02 0.  0.
        -12    1    1    2    0    0 -0.43153004898E+02 -0.23417291825E+00 -0.46245062126E+01  0.43400722649E+02  0.00000000000E+00 0.  1.
         11    1    3    3    0    0  0.42878346763E+00  0.15484641542E+01  0.30070896449E+01  0.34094258890E+01  0.51100000000E-03 0. -1.
        -11    1    3    3    0    0  0.13104627917E+02  0.27219339882E+01 -0.39830661269E+01  0.13964419555E+02  0.51100000000E-03 0.  1.
         12    1    3    3    0    0  0.29619593514E+02 -0.40362252241E+01  0.56004826947E+01  0.30413431908E+02  0.00000000000E+00 0. -1.
</event>
<event>
 7    1  0.2294216E-010  0.4778726E+02  0.7816164E-02  0.1312668E+00
        -11   -1    0    0    0    0  0.00000000000E+00  0.00000000000E+00  0.45593999997E+02  0.45594000000E+02  0.51100000000E-03 0. -1.
         11   -1    0    0    0    0 -0.00000000000E+00 -0.00000000000E+00 -0.45593999997E+02  0.45594000000E+02  0.51100000000E-03 0.  1.
    9900012    2    1    2    0    0  0.24698228385E+02 -0.27570237950E+02  0.22660612711E+02  0.47787264125E+02  0.19999968453E+02 0.  0.
        -12    1    1    2    0    0 -0.24698228385E+02  0.27570237950E+02 -0.22660612711E+02  0.43400735875E+02  0.00000000000E+00 0.  1.
         11    1    3    3    0    0  0.10793820048E+02 -0.17113398445E+02  0.13269658603E+02  0.24196255853E+02  0.51100000000E-03 0. -1.
        -11    1    3    3    0    0  0.54419315033E+01 -0.11776706562E+02  0.67741272548E+01  0.14635376191E+02  0.51100000000E-03 0.  1.
        -12    1    3    3    0    0  0.84624768336E+01  0.13198670565E+01  0.26168268537E+01  0.89556320820E+01  0.00000000000E+00 0.  1.
</event>
<event>
 7    1  0.2294216E-010  0.4778727E+02  0.7816164E-02  0.1312668E+00
        -11   -1    0    0    0    0  0.00000000000E+00  0.00000000000E+00  0.45593999997E+02  0.45594000000E+02  0.51100000000E-03 0.  1.
         11   -1    0    0    0    0 -0.00000000000E+00 -0.00000000000E+00 -0.45593999997E+02  0.45594000000E+02  0.51100000000E-03 0. -1.
    9900012    2    1    2    0    0  0.22579715258E+02 -0.37625794841E+01 -0.36873059757E+02  0.47787273262E+02  0.20000010112E+02 0.  0.
        -12    1    1    2    0    0 -0.22579715258E+02  0.37625794841E+01  0.36873059757E+02  0.43400726738E+02  0.00000000000E+00 0.  1.
         11    1    3    3    0    0  0.99629625775E+01 -0.41435323820E+01 -0.22628084555E+02  0.25069098405E+02  0.51100000000E-03 0. -1.
        -11    1    3    3    0    0  0.52460280596E+01  0.29900239240E+01 -0.13590997642E+02  0.14871996188E+02  0.51100000000E-03 0.  1.
        -12    1    3    3    0    0  0.73707246212E+01 -0.26090710261E+01 -0.65397756009E+00  0.78461786692E+01  0.00000000000E+00 0.  1.
</event>
<event>
 7    1  0.2294216E-010  0.4778727E+02  0.7816164E-02  0.1312668E+00
        -11   -1    0    0    0    0  0.00000000000E+00  0.00000000000E+00  0.45593999997E+02  0.45594000000E+02  0.51100000000E-03 0.  1.
         11   -1    0    0    0    0 -0.00000000000E+00 -0.00000000000E+00 -0.45593999997E+02  0.45594000000E+02  0.51100000000E-03 0. -1.
    9900012    2    1    2    0    0  0.31114752977E+01 -0.23059508792E+02 -0.36636062607E+02  0.47787270656E+02  0.19999998230E+02 0.  0.
        -12    1    1    2    0    0 -0.31114752977E+01  0.23059508792E+02  0.36636062607E+02  0.43400729344E+02  0.00000000000E+00 0.  1.
         11    1    3    3    0    0 -0.31781557640E+01  0.49345987093E+00 -0.46495064315E+01  0.56535021909E+01  0.51100000000E-03 0. -1.
        -11    1    3    3    0    0 -0.34707923981E+01 -0.41123819798E+01 -0.89989826466E+01  0.10485216943E+02  0.51100000000E-03 0.  1.
         12    1    3    3    0    0  0.97604234599E+01 -0.19440586683E+02 -0.22987573529E+02  0.31648551522E+02  0.00000000000E+00 0. -1.
</event>
<event>
 7    1  0.2294216E-010  0.4778729E+02  0.7816164E-02  0.1312668E+00
        -11   -1    0    0    0    0  0.00000000000E+00  0.00000000000E+00  0.45593999997E+02  0.45594000000E+02  0.51100000000E-03 0.  1.
         11   -1    0    0    0    0 -0.00000000000E+00 -0.00000000000E+00 -0.45593999997E+02  0.45594000000E+02  0.51100000000E-03 0. -1.
    9900012    2    1    2    0    0  0.41828550745E+02  0.90917305741E+01 -0.71648225585E+01  0.47787286819E+02  0.20000071924E+02 0.  0.
        -12    1    1    2    0    0 -0.41828550745E+02 -0.90917305741E+01  0.71648225585E+01  0.43400713181E+02  0.00000000000E+00 0.  1.
         11    1    3    3    0    0  0.10126073642E+02 -0.23491199436E+01  0.20327092020E+01  0.10591866637E+02  0.51100000000E-03 0. -1.
        -11    1    3    3    0    0  0.14780595618E+02 -0.96036789285E+00 -0.59675283409E+01  0.15968710282E+02  0.51100000000E-03 0.  1.
         12    1    3    3    0    0  0.16921881486E+02  0.12401218411E+02 -0.32300034196E+01  0.21226709900E+02  0.00000000000E+00 0. -1.
</event>
<event>
 7    1  0.2294216E-010  0.4778726E+02  0.7816164E-02  0.1312668E+00
        -11   -1    0    0    0    0  0.00000000000E+00  0.00000000000E+00  0.45593999997E+02  0.45594000000E+02  0.51100000000E-03 0.  1.
         11   -1    0    0    0    0 -0.00000000000E+00 -0.00000000000E+00 -0.45593999997E+02  0.45594000000E+02  0.51100000000E-03 0. -1.
    9900012    2    1    2    0    0  0.98334876549E+01  0.20155609618E+02 -0.37157477726E+02  0.47787260035E+02  0.19999949802E+02 0.  0.
        -12    1    1    2    0    0 -0.98334876549E+01 -0.20155609618E+02  0.37157477726E+02  0.43400739965E+02  0.00000000000E+00 0.  1.
         11    1    3    3    0    0  0.35025823635E+00  0.73384595785E+01 -0.17767775775E+02  0.19226791881E+02  0.51100000000E-03 0. -1.
        -11    1    3    3    0    0  0.68171456803E+01  0.10139807454E+02 -0.42189517646E+01  0.12926280389E+02  0.51100000000E-03 0.  1.
        -12    1    3    3    0    0  0.26660837383E+01  0.26773425860E+01 -0.15170750187E+02  0.15634187765E+02  0.00000000000E+00 0.  1.
</event>
<event>
 7    1  0.2294216E-010  0.4778727E+02  0.7816164E-02  0.1312668E+00
        -11   -1    0    0    0    0  0.00000000000E+00  0.00000000000E+00  0.45593999997E+02  0.45594000000E+02  0.51100000000E-03 0.  1.
         11   -1    0    0    0    0 -0.00000000000E+00 -0.00000000000E+00 -0.45593999997E+02  0.45594000000E+02  0.51100000000E-03 0. -1.
    9900012    2    1    2    0    0 -0.57681514882E+01  0.37228761413E+02 -0.21549272428E+02  0.47787269706E+02  0.19999993896E+02 0.  0.
        -12    1    1    2    0    0  0.57681514882E+01 -0.37228761413E+02  0.21549272428E+02  0.43400730294E+02  0.00000000000E+00 0.  1.
         11    1    3    3    0    0 -0.34781551269E+01  0.48143281867E+01 -0.82980946380E+01  0.10204591803E+02  0.51100000000E-03 0. -1.
        -11    1    3    3    0    0  0.22754365791E+01  0.17287409432E+02 -0.13052083641E+02  0.21780473460E+02  0.51100000000E-03 0.  1.
        -12    1    3    3    0    0 -0.45654329404E+01  0.15127023794E+02 -0.19909414895E+00  0.15802204443E+02  0.00000000000E+00 0.  1.
</event>
<event>
 7    1  0.2294216E-010  0.4778727E+02  0.7816164E-02  0.1312668E+00
        -11   -1    0    0    0    0  0.00000000000E+00  0.00000000000E+00  0.45593999997E+02  0.45594000000E+02  0.51100000000E-03 0.  1.
         11   -1    0    0    0    0 -0.00000000000E+00 -0.00000000000E+00 -0.45593999997E+02  0.45594000000E+02  0.51100000000E-03 0. -1.
    9900012    2    1    2    0    0  0.36767496700E+02 -0.12579629525E+02 -0.19326856321E+02  0.47787271114E+02  0.20000000319E+02 0.  0.
        -12    1    1    2    0    0 -0.36767496700E+02  0.12579629525E+02  0.19326856321E+02  0.43400728886E+02  0.00000000000E+00 0.  1.
         11    1    3    3    0    0 -0.95221125359E+00  0.33939894589E+00 -0.93019957942E+00  0.13737428561E+01  0.51100000000E-03 0. -1.
        -11    1    3    3    0    0  0.14019256838E+02  0.21003020222E+01 -0.91421591685E+01  0.16868014269E+02  0.51100000000E-03 0.  1.
         12    1    3    3    0    0  0.23700451115E+02 -0.15019330493E+02 -0.92544975733E+01  0.29545513989E+02  0.00000000000E+00 0. -1.
</event>
<event>
 7    1  0.2294216E-010  0.4778727E+02  0.7816164E-02  0.1312668E+00
        -11   -1    0    0    0    0  0.00000000000E+00  0.00000000000E+00  0.45593999997E+02  0.45594000000E+02  0.51100000000E-03 0.  1.
         11   -1    0    0    0    0 -0.00000000000E+00 -0.00000000000E+00 -0.45593999997E+02  0.45594000000E+02  0.51100000000E-03 0. -1.
    9900012    2    1    2    0    0  0.34048036253E+02  0.90283745721E+01 -0.25354349079E+02  0.47787270313E+02  0.19999996667E+02 0.  0.
        -12    1    1    2    0    0 -0.34048036253E+02 -0.90283745721E+01  0.25354349079E+02  0.43400729687E+02  0.00000000000E+00 0.  1.
         11    1    3    3    0    0  0.11848827977E+02 -0.31745879751E+01 -0.19376812637E+01  0.12418830145E+02  0.51100000000E-03 0. -1.
        -11    1    3    3    0    0  0.99352177469E+01  0.22383669338E+01 -0.12682920862E+02  0.16265771425E+02  0.51100000000E-03 0.  1.
        -12    1    3    3    0    0  0.12263990529E+02  0.99645956134E+01 -0.10733746954E+02  0.19102668743E+02  0.00000000000E+00 0.  1.
</event>
<event>
 7    1  0.2294216E-010  0.4778727E+02  0.7816164E-02  0.1312668E+00
        -11   -1    0    0    0    0  0.00000000000E+00  0.00000000000E+00  0.45593999997E+02  0.45594000000E+02  0.51100000000E-03 0. -1.
         11   -1    0    0    0    0 -0.00000000000E+00 -0.00000000000E+00 -0.45593999997E+02  0.45594000000E+02  0.51100000000E-03 0.  1.
    9900012    2    1    2    0    0 -0.26686465695E+02 -0.33409789274E+01  0.34063081889E+02  0.47787272596E+02  0.20000007073E+02 0.  0.
        -12    1    1    2    0    0  0.26686465695E+02  0.33409789274E+01 -0.34063081889E+02  0.43400727404E+02  0.00000000000E+00 0.  1.
         11    1    3    3    0    0 -0.10889609740E+02  0.25266142317E+01  0.49975309413E+01  0.12245109045E+02  0.51100000000E-03 0. -1.
        -11    1    3    3    0    0 -0.81451679081E+01  0.30535403587E+01  0.12709597620E+02  0.15401355164E+02  0.51100000000E-03 0.  1.
         12    1    3    3    0    0 -0.76516880467E+01 -0.89211335177E+01  0.16355953328E+02  0.20140808387E+02  0.00000000000E+00 0. -1.
</event>
<event>
 7    1  0.2294216E-010  0.4778727E+02  0.7816164E-02  0.1312668E+00
        -11   -1    0    0    0    0  0.00000000000E+00  0.00000000000E+00  0.45593999997E+02  0.45594000000E+02  0.51100000000E-03 0.  1.
         11   -1    0    0    0    0 -0.00000000000E+00 -0.00000000000E+00 -0.45593999997E+02  0.45594000000E+02  0.51100000000E-03 0. -1.
    9900012    2    1    2    0    0  0.36305681811E+02  0.55983271549E+01 -0.23112319852E+02  0.47787272729E+02  0.20000007680E+02 0.  0.
        -12    1    1    2    0    0 -0.36305681811E+02 -0.55983271549E+01  0.23112319852E+02  0.43400727271E+02  0.00000000000E+00 0.  1.
         11    1    3    3    0    0  0.14630068400E+02  0.55859722533E+01 -0.15739855335E+02  0.22203266283E+02  0.51100000000E-03 0. -1.
        -11    1    3    3    0    0  0.10482153397E+02  0.55642433752E+01 -0.22438117273E+01  0.12077708206E+02  0.51100000000E-03 0.  1.
        -12    1    3    3    0    0  0.11193460014E+02 -0.55518884736E+01 -0.51286527901E+01  0.13506298240E+02  0.00000000000E+00 0.  1.
</event>
<event>
 7    1  0.2294216E-010  0.4778723E+02  0.7816164E-02  0.1312668E+00
        -11   -1    0    0    0    0  0.00000000000E+00  0.00000000000E+00  0.45593999997E+02  0.45594000000E+02  0.51100000000E-03 0.  1.
         11   -1    0    0    0    0 -0.00000000000E+00 -0.00000000000E+00 -0.45593999997E+02  0.45594000000E+02  0.51100000000E-03 0. -1.
    9900012    2    1    2    0    0 -0.20820621931E+02 -0.23941612852E+02 -0.29612967329E+02  0.47787228606E+02  0.19999806504E+02 0.  0.
        -12    1    1    2    0    0  0.20820621931E+02  0.23941612852E+02  0.29612967329E+02  0.43400771394E+02  0.00000000000E+00 0.  1.
         11    1    3    3    0    0 -0.14085778468E+01  0.48575513927E+00 -0.10148310092E+01  0.18027567346E+01  0.51100000000E-03 0. -1.
        -11    1    3    3    0    0 -0.75713892893E+00  0.14725523511E+01  0.14098925000E+01  0.21747337554E+01  0.51100000000E-03 0.  1.
         12    1    3    3    0    0 -0.18654905155E+02 -0.25899920343E+02 -0.30008028820E+02  0.43809738116E+02  0.00000000000E+00 0. -1.
</event>
<event>
 7    1  0.2294216E-010  0.4778727E+02  0.7816164E-02  0.1312668E+00
        -11   -1    0    0    0    0  0.00000000000E+00  0.00000000000E+00  0.45593999997E+02  0.45594000000E+02  0.51100000000E-03 0. -1.
         11   -1    0    0    0    0 -0.00000000000E+00 -0.00000000000E+00 -0.45593999997E+02  0.45594000000E+02  0.51100000000E-03 0.  1.
    9900012    2    1    2    0    0 -0.10578789377E+02  0.32264446721E+02  0.27031796272E+02  0.47787270553E+02  0.19999997758E+02 0.  0.
        -12    1    1    2    0    0  0.10578789377E+02 -0.32264446721E+02 -0.27031796272E+02  0.43400729447E+02  0.00000000000E+00 0.  1.
         11    1    3    3    0    0  0.68798810928E+00  0.12021354314E+02  0.61779876029E+01  0.13533433350E+02  0.51100000000E-03 0. -1.
        -11    1    3    3    0    0 -0.98569996808E+01  0.19687593760E+02  0.11618037884E+02  0.24894589679E+02  0.51100000000E-03 0.  1.
        -12    1    3    3    0    0 -0.14097778059E+01  0.55549864728E+00  0.92357707848E+01  0.93592475231E+01  0.00000000000E+00 0.  1.
</event>
<event>
 7    1  0.2294216E-010  0.4778727E+02  0.7816164E-02  0.1312668E+00
        -11   -1    0    0    0    0  0.00000000000E+00  0.00000000000E+00  0.45593999997E+02  0.45594000000E+02  0.51100000000E-03 0. -1.
         11   -1    0    0    0    0 -0.00000000000E+00 -0.00000000000E+00 -0.45593999997E+02  0.45594000000E+02  0.51100000000E-03 0.  1.
    9900012    2    1    2    0    0 -0.78202876036E+01 -0.30420530889E+02  0.29950919785E+02  0.47787271968E+02  0.20000004212E+02 0.  0.
        -12    1    1    2    0    0  0.78202876036E+01  0.30420530889E+02 -0.29950919785E+02  0.43400728032E+02  0.00000000000E+00 0.  1.
         11    1    3    3    0    0 -0.79616416239E+01 -0.19020658834E+02  0.68908761081E+01  0.21740684755E+02  0.51100000000E-03 0. -1.
        -11    1    3    3    0    0 -0.87462792963E+00 -0.24920233845E+00  0.15623284497E+01  0.18077461843E+01  0.51100000000E-03 0.  1.
        -12    1    3    3    0    0  0.10159819500E+01 -0.11150669716E+02  0.21497715227E+02  0.24238841029E+02  0.00000000000E+00 0.  1.
</event>
<event>
 7    1  0.2294216E-010  0.4778727E+02  0.7816164E-02  0.1312668E+00
        -11   -1    0    0    0    0  0.00000000000E+00  0.00000000000E+00  0.45593999997E+02  0.45594000000E+02  0.51100000000E-03 0.  1.
         11   -1    0    0    0    0 -0.00000000000E+00 -0.00000000000E+00 -0.45593999997E+02  0.45594000000E+02  0.51100000000E-03 0. -1.
    9900012    2    1    2    0    0  0.26271852045E+02 -0.25215170019E+02 -0.23613732093E+02  0.47787270141E+02  0.19999995879E+02 0.  0.
        -12    1    1    2    0    0 -0.26271852045E+02  0.25215170019E+02  0.23613732093E+02  0.43400729859E+02  0.00000000000E+00 0.  1.
         11    1    3    3    0    0  0.15814402088E+02 -0.21578567202E+02 -0.12880608083E+02  0.29692422278E+02  0.51100000000E-03 0.  1.
        -11    1    3    3    0    0  0.41283189379E+01 -0.59117067071E+01 -0.81714692721E+01  0.10897899053E+02  0.51100000000E-03 0. -1.
        -12    1    3    3    0    0  0.63291310191E+01  0.22751038902E+01 -0.25616547386E+01  0.71969488096E+01  0.00000000000E+00 0.  1.
</event>
<event>
 7    1  0.2294216E-010  0.4778727E+02  0.7816164E-02  0.1312668E+00
        -11   -1    0    0    0    0  0.00000000000E+00  0.00000000000E+00  0.45593999997E+02  0.45594000000E+02  0.51100000000E-03 0.  1.
         11   -1    0    0    0    0 -0.00000000000E+00 -0.00000000000E+00 -0.45593999997E+02  0.45594000000E+02  0.51100000000E-03 0. -1.
    9900012    2    1    2    0    0 -0.72701618421E+01  0.16920756705E+02 -0.39299565365E+02  0.47787273064E+02  0.20000009208E+02 0.  0.
        -12    1    1    2    0    0  0.72701618421E+01 -0.16920756705E+02  0.39299565365E+02  0.43400726936E+02  0.00000000000E+00 0.  1.
         11    1    3    3    0    0  0.14689454057E+01 -0.96107296329E+00 -0.11991291195E+02  0.12119097600E+02  0.51100000000E-03 0. -1.
        -11    1    3    3    0    0 -0.33660176775E+01  0.26076270601E+01 -0.41671616939E+00  0.42782527411E+01  0.51100000000E-03 0.  1.
        -12    1    3    3    0    0 -0.53730895704E+01  0.15274202608E+02 -0.26891558001E+02  0.31389922723E+02  0.00000000000E+00 0.  1.
</event>
<event>
 7    1  0.2294216E-010  0.4778727E+02  0.7816164E-02  0.1312668E+00
        -11   -1    0    0    0    0  0.00000000000E+00  0.00000000000E+00  0.45593999997E+02  0.45594000000E+02  0.51100000000E-03 0.  1.
         11   -1    0    0    0    0 -0.00000000000E+00 -0.00000000000E+00 -0.45593999997E+02  0.45594000000E+02  0.51100000000E-03 0. -1.
    9900012    2    1    2    0    0 -0.23419090471E+01 -0.40554514153E+02 -0.15279734061E+02  0.47787269256E+02  0.19999991844E+02 0.  0.
        -12    1    1    2    0    0  0.23419090471E+01  0.40554514153E+02  0.15279734061E+02  0.43400730744E+02  0.00000000000E+00 0.  1.
         11    1    3    3    0    0 -0.32791430782E+00 -0.64539040130E+01 -0.22890351851E+01  0.68556609559E+01  0.51100000000E-03 0. -1.
        -11    1    3    3    0    0  0.49455095445E+01 -0.73603035723E+01  0.25541157739E+01  0.92279814141E+01  0.51100000000E-03 0.  1.
        -12    1    3    3    0    0 -0.69595042838E+01 -0.26740306568E+02 -0.15544814649E+02  0.31703626886E+02  0.00000000000E+00 0.  1.
</event>
<event>
 7    1  0.2294216E-010  0.4778732E+02  0.7816164E-02  0.1312668E+00
        -11   -1    0    0    0    0  0.00000000000E+00  0.00000000000E+00  0.45593999997E+02  0.45594000000E+02  0.51100000000E-03 0.  1.
         11   -1    0    0    0    0 -0.00000000000E+00 -0.00000000000E+00 -0.45593999997E+02  0.45594000000E+02  0.51100000000E-03 0. -1.
    9900012    2    1    2    0    0  0.68024804726E+01 -0.76860517865E+01 -0.42169532391E+02  0.47787324950E+02  0.20000245778E+02 0.  0.
        -12    1    1    2    0    0 -0.68024804726E+01  0.76860517865E+01  0.42169532391E+02  0.43400675050E+02  0.00000000000E+00 0.  1.
         11    1    3    3    0    0  0.21347776942E+01 -0.14088604352E+01 -0.28123330201E+02  0.28239402709E+02  0.51100000000E-03 0. -1.
        -11    1    3    3    0    0 -0.11698143209E+01  0.24692725610E+01 -0.49043421047E+01  0.56141200795E+01  0.51100000000E-03 0.  1.
         12    1    3    3    0    0  0.58375170992E+01 -0.87464639124E+01 -0.91418600861E+01  0.13933802162E+02  0.00000000000E+00 0. -1.
</event>
<event>
 7    1  0.2294216E-010  0.4778727E+02  0.7816164E-02  0.1312668E+00
        -11   -1    0    0    0    0  0.00000000000E+00  0.00000000000E+00  0.45593999997E+02  0.45594000000E+02  0.51100000000E-03 0. -1.
         11   -1    0    0    0    0 -0.00000000000E+00 -0.00000000000E+00 -0.45593999997E+02  0.45594000000E+02  0.51100000000E-03 0.  1.
    9900012    2    1    2    0    0 -0.28124430373E+02  0.32418290996E+02  0.64570905921E+01  0.47787271967E+02  0.20000004206E+02 0.  0.
        -12    1    1    2    0    0  0.28124430373E+02 -0.32418290996E+02 -0.64570905921E+01  0.43400728033E+02  0.00000000000E+00 0.  1.
         11    1    3    3    0    0 -0.26082832861E+02  0.22440203279E+02  0.28063103336E+01  0.34521765181E+02  0.51100000000E-03 0. -1.
        -11    1    3    3    0    0 -0.55740279960E+00  0.26444960091E+01 -0.24219149566E+01  0.36290121715E+01  0.51100000000E-03 0.  1.
        -12    1    3    3    0    0 -0.14841947125E+01  0.73335917077E+01  0.60726952151E+01  0.96364946145E+01  0.00000000000E+00 0.  1.
</event>
<event>
 7    1  0.2294216E-010  0.4778727E+02  0.7816164E-02  0.1312668E+00
        -11   -1    0    0    0    0  0.00000000000E+00  0.00000000000E+00  0.45593999997E+02  0.45594000000E+02  0.51100000000E-03 0.  1.
         11   -1    0    0    0    0 -0.00000000000E+00 -0.00000000000E+00 -0.45593999997E+02  0.45594000000E+02  0.51100000000E-03 0. -1.
    9900012    2    1    2    0    0  0.38883178351E+02 -0.38429406995E+01 -0.18893210728E+02  0.47787272316E+02  0.20000005796E+02 0.  0.
        -12    1    1    2    0    0 -0.38883178351E+02  0.38429406995E+01  0.18893210728E+02  0.43400727684E+02  0.00000000000E+00 0.  1.
         11    1    3    3    0    0  0.13600782884E+02 -0.66266803677E+01 -0.11138746754E+02  0.18787385854E+02  0.51100000000E-03 0.  1.
        -11    1    3    3    0    0  0.13447887816E+02  0.83189917263E-01 -0.98657868915E+01  0.16678919585E+02  0.51100000000E-03 0. -1.
        -12    1    3    3    0    0  0.11834507652E+02  0.27005497509E+01  0.21113229166E+01  0.12320966876E+02  0.00000000000E+00 0.  1.
</event>
<event>
 7    1  0.2294216E-010  0.4778725E+02  0.7816164E-02  0.1312668E+00
        -11   -1    0    0    0    0  0.00000000000E+00  0.00000000000E+00  0.45593999997E+02  0.45594000000E+02  0.51100000000E-03 0.  1.
         11   -1    0    0    0    0 -0.00000000000E+00 -0.00000000000E+00 -0.45593999997E+02  0.45594000000E+02  0.51100000000E-03 0. -1.
    9900012    2    1    2    0    0  0.25862674103E+02  0.23666949798E+02 -0.25585596970E+02  0.47787248891E+02  0.19999898995E+02 0.  0.
        -12    1    1    2    0    0 -0.25862674103E+02 -0.23666949798E+02  0.25585596970E+02  0.43400751109E+02  0.00000000000E+00 0.  1.
         11    1    3    3    0    0  0.12521879120E+02  0.11036553798E+02 -0.12697426534E+02  0.20972067549E+02  0.51100000000E-03 0. -1.
        -11    1    3    3    0    0  0.52007790408E+01  0.14251065060E+02 -0.91134740614E+01  0.17697354822E+02  0.51100000000E-03 0.  1.
        -12    1    3    3    0    0  0.81400159422E+01 -0.16206690596E+01 -0.37746963748E+01  0.91178265207E+01  0.00000000000E+00 0.  1.
</event>
<event>
 7    1  0.2294216E-010  0.4778727E+02  0.7816164E-02  0.1312668E+00
        -11   -1    0    0    0    0  0.00000000000E+00  0.00000000000E+00  0.45593999997E+02  0.45594000000E+02  0.51100000000E-03 0.  1.
         11   -1    0    0    0    0 -0.00000000000E+00 -0.00000000000E+00 -0.45593999997E+02  0.45594000000E+02  0.51100000000E-03 0. -1.
    9900012    2    1    2    0    0 -0.14219217048E+02  0.16374769702E+02 -0.37593933145E+02  0.47787273905E+02  0.20000013043E+02 0.  0.
        -12    1    1    2    0    0  0.14219217048E+02 -0.16374769702E+02  0.37593933145E+02  0.43400726095E+02  0.00000000000E+00 0.  1.
         11    1    3    3    0    0 -0.50454295594E+00  0.14476394993E+02 -0.23282258475E+02  0.27420505749E+02  0.51100000000E-03 0. -1.
        -11    1    3    3    0    0 -0.30113450243E+01  0.10072558805E+01 -0.11458383205E+01  0.33757530985E+01  0.51100000000E-03 0.  1.
         12    1    3    3    0    0 -0.10703329068E+02  0.89111882837E+00 -0.13165836349E+02  0.16991015057E+02  0.00000000000E+00 0. -1.
</event>
<event>
 7    1  0.2294216E-010  0.4778727E+02  0.7816164E-02  0.1312668E+00
        -11   -1    0    0    0    0  0.00000000000E+00  0.00000000000E+00  0.45593999997E+02  0.45594000000E+02  0.51100000000E-03 0.  1.
         11   -1    0    0    0    0 -0.00000000000E+00 -0.00000000000E+00 -0.45593999997E+02  0.45594000000E+02  0.51100000000E-03 0. -1.
    9900012    2    1    2    0    0  0.20517192295E+02 -0.21483840184E+02 -0.31640364128E+02  0.47787271770E+02  0.20000003309E+02 0.  0.
        -12    1    1    2    0    0 -0.20517192295E+02  0.21483840184E+02  0.31640364128E+02  0.43400728230E+02  0.00000000000E+00 0.  1.
         11    1    3    3    0    0  0.10324906771E+02 -0.11519183542E+02 -0.12880104189E+02  0.20129390787E+02  0.51100000000E-03 0. -1.
        -11    1    3    3    0    0  0.12838575444E+02 -0.87207970684E+01 -0.10100050829E+02  0.18517352617E+02  0.51100000000E-03 0.  1.
        -12    1    3    3    0    0 -0.26462899192E+01 -0.12438595739E+01 -0.86602091102E+01  0.91405283660E+01  0.00000000000E+00 0.  1.
</event>
<event>
 7    1  0.2294216E-010  0.4778727E+02  0.7816164E-02  0.1312668E+00
        -11   -1    0    0    0    0  0.00000000000E+00  0.00000000000E+00  0.45593999997E+02  0.45594000000E+02  0.51100000000E-03 0.  1.
         11   -1    0    0    0    0 -0.00000000000E+00 -0.00000000000E+00 -0.45593999997E+02  0.45594000000E+02  0.51100000000E-03 0. -1.
    9900012    2    1    2    0    0 -0.15750628951E+02 -0.12607993597E+02 -0.38426286292E+02  0.47787270823E+02  0.19999998989E+02 0.  0.
        -12    1    1    2    0    0  0.15750628951E+02  0.12607993597E+02  0.38426286292E+02  0.43400729177E+02  0.00000000000E+00 0.  1.
         11    1    3    3    0    0  0.15296076658E+01 -0.81633540935E+00 -0.81173375252E+01  0.83004380529E+01  0.51100000000E-03 0. -1.
        -11    1    3    3    0    0 -0.39692379992E+01 -0.62202817834E+01 -0.18942443779E+01  0.76180652257E+01  0.51100000000E-03 0.  1.
         12    1    3    3    0    0 -0.13310998618E+02 -0.55713764046E+01 -0.28414704389E+02  0.31868767544E+02  0.00000000000E+00 0. -1.
</event>
<event>
 7    1  0.2294216E-010  0.4778727E+02  0.7816164E-02  0.1312668E+00
        -11   -1    0    0    0    0  0.00000000000E+00  0.00000000000E+00  0.45593999997E+02  0.45594000000E+02  0.51100000000E-03 0. -1.
         11   -1    0    0    0    0 -0.00000000000E+00 -0.00000000000E+00 -0.45593999997E+02  0.45594000000E+02  0.51100000000E-03 0.  1.
    9900012    2    1    2    0    0 -0.16032968406E+02  0.38880211255E+02  0.10718984047E+02  0.47787268184E+02  0.19999986959E+02 0.  0.
        -12    1    1    2    0    0  0.16032968406E+02 -0.38880211255E+02 -0.10718984047E+02  0.43400731816E+02  0.00000000000E+00 0.  1.
         11    1    3    3    0    0  0.21672619561E+01  0.88881674270E+01  0.30500658127E+00  0.91536645051E+01  0.51100000000E-03 0. -1.
        -11    1    3    3    0    0 -0.91691531188E+01  0.17873676062E+02 -0.32899515668E+00  0.20091040365E+02  0.51100000000E-03 0.  1.
        -12    1    3    3    0    0 -0.90310772428E+01  0.12118367767E+02  0.10742972622E+02  0.18542563314E+02  0.00000000000E+00 0.  1.
</event>
<event>
 7    1  0.2294216E-010  0.4778727E+02  0.7816164E-02  0.1312668E+00
        -11   -1    0    0    0    0  0.00000000000E+00  0.00000000000E+00  0.45593999997E+02  0.45594000000E+02  0.51100000000E-03 0.  1.
         11   -1    0    0    0    0 -0.00000000000E+00 -0.00000000000E+00 -0.45593999997E+02  0.45594000000E+02  0.51100000000E-03 0. -1.
    9900012    2    1    2    0    0 -0.36999266877E+02 -0.22283138554E+02 -0.42590359327E+01  0.47787269588E+02  0.19999993358E+02 0.  0.
        -12    1    1    2    0    0  0.36999266877E+02  0.22283138554E+02  0.42590359327E+01  0.43400730412E+02  0.00000000000E+00 0.  1.
         11    1    3    3    0    0 -0.30548522024E+02 -0.20329545076E+02 -0.91794238193E+01  0.37825446762E+02  0.51100000000E-03 0. -1.
        -11    1    3    3    0    0 -0.84254491486E+00 -0.10888310659E+01 -0.10451476554E+01  0.17285163888E+01  0.51100000000E-03 0.  1.
        -12    1    3    3    0    0 -0.56081999384E+01 -0.86476241163E+00  0.59655355420E+01  0.82333064367E+01  0.00000000000E+00 0.  1.
</event>
<event>
 7    1  0.2294216E-010  0.4778726E+02  0.7816164E-02  0.1312668E+00
        -11   -1    0    0    0    0  0.00000000000E+00  0.00000000000E+00  0.45593999997E+02  0.45594000000E+02  0.51100000000E-03 0.  1.
         11   -1    0    0    0    0 -0.00000000000E+00 -0.00000000000E+00 -0.45593999997E+02  0.45594000000E+02  0.51100000000E-03 0. -1.
    9900012    2    1    2    0    0  0.23581509147E+02  0.43730095540E+01 -0.36171995453E+02  0.47787262204E+02  0.19999959691E+02 0.  0.
        -12    1    1    2    0    0 -0.23581509147E+02 -0.43730095540E+01  0.36171995453E+02  0.43400737796E+02  0.00000000000E+00 0.  1.
         11    1    3    3    0    0 -0.32743004992E+00  0.22047876038E+01  0.77518228640E+00  0.23599166624E+01  0.51100000000E-03 0. -1.
        -11    1    3    3    0    0  0.10718091813E+02 -0.12476570813E+01 -0.79969989543E+01  0.13430790477E+02  0.51100000000E-03 0.  1.
         12    1    3    3    0    0  0.13190847384E+02  0.34158790316E+01 -0.28950178785E+02  0.31996555064E+02  0.00000000000E+00 0. -1.
</event>
<event>
 7    1  0.2294216E-010  0.4778727E+02  0.7816164E-02  0.1312668E+00
        -11   -1    0    0    0    0  0.00000000000E+00  0.00000000000E+00  0.45593999997E+02  0.45594000000E+02  0.51100000000E-03 0.  1.
         11   -1    0    0    0    0 -0.00000000000E+00 -0.00000000000E+00 -0.45593999997E+02  0.45594000000E+02  0.51100000000E-03 0. -1.
    9900012    2    1    2    0    0  0.26923875587E+02  0.22218055896E+02 -0.25789258727E+02  0.47787274775E+02  0.20000017007E+02 0.  0.
        -12    1    1    2    0    0 -0.26923875587E+02 -0.22218055896E+02  0.25789258727E+02  0.43400725225E+02  0.00000000000E+00 0.  1.
         11    1    3    3    0    0  0.77214882555E+01  0.90408381017E+01 -0.17047438135E+02  0.20783966938E+02  0.51100000000E-03 0. -1.
        -11    1    3    3    0    0 -0.91900540836E+00  0.62452478184E-01  0.73981479630E+00  0.11814387189E+01  0.51100000000E-03 0.  1.
         12    1    3    3    0    0  0.20121392740E+02  0.13114765316E+02 -0.94816353882E+01  0.25821869118E+02  0.00000000000E+00 0. -1.
</event>
<event>
 7    1  0.2294216E-010  0.4778726E+02  0.7816164E-02  0.1312668E+00
        -11   -1    0    0    0    0  0.00000000000E+00  0.00000000000E+00  0.45593999997E+02  0.45594000000E+02  0.51100000000E-03 0.  1.
         11   -1    0    0    0    0 -0.00000000000E+00 -0.00000000000E+00 -0.45593999997E+02  0.45594000000E+02  0.51100000000E-03 0. -1.
    9900012    2    1    2    0    0  0.17874640314E+02  0.25504334677E+01 -0.39466656201E+02  0.47787257738E+02  0.19999939330E+02 0.  0.
        -12    1    1    2    0    0 -0.17874640314E+02 -0.25504334677E+01  0.39466656201E+02  0.43400742262E+02  0.00000000000E+00 0.  1.
         11    1    3    3    0    0  0.59177252986E+01 -0.12665338556E+01 -0.29544340458E+02  0.30157778998E+02  0.51100000000E-03 0. -1.
        -11    1    3    3    0    0  0.67741978827E+00 -0.14107852974E+01  0.22606262196E+00  0.15812391644E+01  0.51100000000E-03 0.  1.
         12    1    3    3    0    0  0.11279495227E+02  0.52277526207E+01 -0.10148378364E+02  0.16048239575E+02  0.00000000000E+00 0. -1.
</event>
<event>
 7    1  0.2294216E-010  0.4778727E+02  0.7816164E-02  0.1312668E+00
        -11   -1    0    0    0    0  0.00000000000E+00  0.00000000000E+00  0.45593999997E+02  0.45594000000E+02  0.51100000000E-03 0. -1.
         11   -1    0    0    0    0 -0.00000000000E+00 -0.00000000000E+00 -0.45593999997E+02  0.45594000000E+02  0.51100000000E-03 0.  1.
    9900012    2    1    2    0    0 -0.69951348817E+01 -0.33707714734E+02  0.26428792588E+02  0.47787273943E+02  0.20000013217E+02 0.  0.
        -12    1    1    2    0    0  0.69951348817E+01  0.33707714734E+02 -0.26428792588E+02  0.43400726057E+02  0.00000000000E+00 0.  1.
         11    1    3    3    0    0 -0.39979555662E+01 -0.24604101368E+02  0.88109618086E+01  0.26438201548E+02  0.51100000000E-03 0.  1.
        -11    1    3    3    0    0 -0.47703585844E+01 -0.78324366431E+01  0.10684405483E+02  0.14080479594E+02  0.51100000000E-03 0. -1.
         12    1    3    3    0    0  0.17731792688E+01 -0.12711767224E+01  0.69334252962E+01  0.72685928017E+01  0.00000000000E+00 0. -1.
</event>
<event>
 7    1  0.2294216E-010  0.4778727E+02  0.7816164E-02  0.1312668E+00
        -11   -1    0    0    0    0  0.00000000000E+00  0.00000000000E+00  0.45593999997E+02  0.45594000000E+02  0.51100000000E-03 0.  1.
         11   -1    0    0    0    0 -0.00000000000E+00 -0.00000000000E+00 -0.45593999997E+02  0.45594000000E+02  0.51100000000E-03 0. -1.
    9900012    2    1    2    0    0 -0.29783358552E+02 -0.16952072753E+02 -0.26630849463E+02  0.47787270048E+02  0.19999995456E+02 0.  0.
        -12    1    1    2    0    0  0.29783358552E+02  0.16952072753E+02  0.26630849463E+02  0.43400729952E+02  0.00000000000E+00 0.  1.
         11    1    3    3    0    0 -0.22578703124E+01 -0.44433438922E+01 -0.13666692092E+02  0.14547156296E+02  0.51100000000E-03 0. -1.
        -11    1    3    3    0    0 -0.15847533418E+02 -0.51665587372E+01 -0.86967785989E+01  0.18800840483E+02  0.51100000000E-03 0.  1.
        -12    1    3    3    0    0 -0.11677954822E+02 -0.73421701236E+01 -0.42673787717E+01  0.14439273269E+02  0.00000000000E+00 0.  1.
</event>
<event>
 7    1  0.2294216E-010  0.4778727E+02  0.7816164E-02  0.1312668E+00
        -11   -1    0    0    0    0  0.00000000000E+00  0.00000000000E+00  0.45593999997E+02  0.45594000000E+02  0.51100000000E-03 0. -1.
         11   -1    0    0    0    0 -0.00000000000E+00 -0.00000000000E+00 -0.45593999997E+02  0.45594000000E+02  0.51100000000E-03 0.  1.
    9900012    2    1    2    0    0 -0.77175604635E+01  0.31736379885E+02  0.28580850685E+02  0.47787267592E+02  0.19999984258E+02 0.  0.
        -12    1    1    2    0    0  0.77175604635E+01 -0.31736379885E+02 -0.28580850685E+02  0.43400732408E+02  0.00000000000E+00 0.  1.
         11    1    3    3    0    0 -0.63267143077E+01  0.12934335335E+02  0.11184518331E+02  0.18232328295E+02  0.51100000000E-03 0. -1.
        -11    1    3    3    0    0 -0.44709053475E+01  0.19314617101E+02  0.11596062676E+02  0.22967631533E+02  0.51100000000E-03 0.  1.
         12    1    3    3    0    0  0.30800591917E+01 -0.51257255135E+00  0.58002696774E+01  0.65873077638E+01  0.00000000000E+00 0. -1.
</event>
<event>
 7    1  0.2294216E-010  0.4778727E+02  0.7816164E-02  0.1312668E+00
        -11   -1    0    0    0    0  0.00000000000E+00  0.00000000000E+00  0.45593999997E+02  0.45594000000E+02  0.51100000000E-03 0.  1.
         11   -1    0    0    0    0 -0.00000000000E+00 -0.00000000000E+00 -0.45593999997E+02  0.45594000000E+02  0.51100000000E-03 0. -1.
    9900012    2    1    2    0    0 -0.12609280324E+02  0.40683176493E+02 -0.83371613326E+01  0.47787273520E+02  0.20000011289E+02 0.  0.
        -12    1    1    2    0    0  0.12609280324E+02 -0.40683176493E+02  0.83371613326E+01  0.43400726480E+02  0.00000000000E+00 0.  1.
         11    1    3    3    0    0  0.30505050568E+01  0.48986279812E+01  0.94440914072E+00  0.58475675358E+01  0.51100000000E-03 0. -1.
        -11    1    3    3    0    0 -0.72452884467E+01  0.20020401299E+02  0.10165842992E+01  0.21315349322E+02  0.51100000000E-03 0.  1.
         12    1    3    3    0    0 -0.84144969340E+01  0.15764147213E+02 -0.10298154773E+02  0.20624356662E+02  0.00000000000E+00 0. -1.
</event>
<event>
 7    1  0.2294216E-010  0.4778727E+02  0.7816164E-02  0.1312668E+00
        -11   -1    0    0    0    0  0.00000000000E+00  0.00000000000E+00  0.45593999997E+02  0.45594000000E+02  0.51100000000E-03 0.  1.
         11   -1    0    0    0    0 -0.00000000000E+00 -0.00000000000E+00 -0.45593999997E+02  0.45594000000E+02  0.51100000000E-03 0. -1.
    9900012    2    1    2    0    0 -0.64713198169E+01  0.29564244975E+02 -0.31107888537E+02  0.47787270855E+02  0.19999999135E+02 0.  0.
        -12    1    1    2    0    0  0.64713198169E+01 -0.29564244975E+02  0.31107888537E+02  0.43400729145E+02  0.00000000000E+00 0.  1.
         11    1    3    3    0    0 -0.26273081088E+01  0.87753188657E+01 -0.15697307307E+02  0.18174554356E+02  0.51100000000E-03 0. -1.
        -11    1    3    3    0    0  0.51133714537E+01  0.69859721302E+01 -0.69991732937E+01  0.11132780483E+02  0.51100000000E-03 0.  1.
         12    1    3    3    0    0 -0.89573831618E+01  0.13802953979E+02 -0.84114079356E+01  0.18479936015E+02  0.00000000000E+00 0. -1.
</event>
<event>
 7    1  0.2294216E-010  0.4778727E+02  0.7816164E-02  0.1312668E+00
        -11   -1    0    0    0    0  0.00000000000E+00  0.00000000000E+00  0.45593999997E+02  0.45594000000E+02  0.51100000000E-03 0. -1.
         11   -1    0    0    0    0 -0.00000000000E+00 -0.00000000000E+00 -0.45593999997E+02  0.45594000000E+02  0.51100000000E-03 0.  1.
    9900012    2    1    2    0    0  0.32835708951E+02 -0.23609676320E+01  0.28281885405E+02  0.47787274286E+02  0.20000014778E+02 0.  0.
        -12    1    1    2    0    0 -0.32835708951E+02  0.23609676320E+01 -0.28281885405E+02  0.43400725714E+02  0.00000000000E+00 0.  1.
         11    1    3    3    0    0  0.11746904139E+01 -0.96831189253E+00  0.57071115277E+01  0.59066613024E+01  0.51100000000E-03 0. -1.
        -11    1    3    3    0    0  0.11016378027E+02 -0.44048385338E+01  0.10605206283E+01  0.11911670395E+02  0.51100000000E-03 0.  1.
        -12    1    3    3    0    0  0.20644640510E+02  0.30121827943E+01  0.21514253249E+02  0.29968942588E+02  0.00000000000E+00 0.  1.
</event>
<event>
 7    1  0.2294216E-010  0.4778727E+02  0.7816164E-02  0.1312668E+00
        -11   -1    0    0    0    0  0.00000000000E+00  0.00000000000E+00  0.45593999997E+02  0.45594000000E+02  0.51100000000E-03 0.  1.
         11   -1    0    0    0    0 -0.00000000000E+00 -0.00000000000E+00 -0.45593999997E+02  0.45594000000E+02  0.51100000000E-03 0. -1.
    9900012    2    1    2    0    0  0.40902627174E+02 -0.43818560590E+01  0.13834647490E+02  0.47787273700E+02  0.20000012107E+02 0.  0.
        -12    1    1    2    0    0 -0.40902627174E+02  0.43818560590E+01 -0.13834647490E+02  0.43400726300E+02  0.00000000000E+00 0.  1.
         11    1    3    3    0    0  0.66170094534E+01 -0.46046255052E+00  0.30025017036E+01  0.72809241589E+01  0.51100000000E-03 0. -1.
        -11    1    3    3    0    0  0.28445851743E+00  0.40179984843E+00 -0.33698362930E+01  0.34056066522E+01  0.51100000000E-03 0.  1.
        -12    1    3    3    0    0  0.34001159203E+02 -0.43231933569E+01  0.14201982079E+02  0.37100742889E+02  0.00000000000E+00 0.  1.
</event>
<event>
 7    1  0.2294216E-010  0.4778722E+02  0.7816164E-02  0.1312668E+00
        -11   -1    0    0    0    0  0.00000000000E+00  0.00000000000E+00  0.45593999997E+02  0.45594000000E+02  0.51100000000E-03 0. -1.
         11   -1    0    0    0    0 -0.00000000000E+00 -0.00000000000E+00 -0.45593999997E+02  0.45594000000E+02  0.51100000000E-03 0.  1.
    9900012    2    1    2    0    0 -0.40587753440E+02  0.10203133162E+02  0.11496016467E+02  0.47787216018E+02  0.19999749111E+02 0.  0.
        -12    1    1    2    0    0  0.40587753440E+02 -0.10203133162E+02 -0.11496016467E+02  0.43400783982E+02  0.00000000000E+00 0.  1.
         11    1    3    3    0    0 -0.11957869742E+02  0.10950744967E+02  0.41339032162E+01  0.16733159300E+02  0.51100000000E-03 0. -1.
        -11    1    3    3    0    0 -0.65133502782E+01  0.23556140883E+01 -0.13950607465E+01  0.70653269087E+01  0.51100000000E-03 0.  1.
        -12    1    3    3    0    0 -0.22116533420E+02 -0.31032258929E+01  0.87571739978E+01  0.23988729810E+02  0.00000000000E+00 0.  1.
</event>
<event>
 7    1  0.2294216E-010  0.4778727E+02  0.7816164E-02  0.1312668E+00
        -11   -1    0    0    0    0  0.00000000000E+00  0.00000000000E+00  0.45593999997E+02  0.45594000000E+02  0.51100000000E-03 0. -1.
         11   -1    0    0    0    0 -0.00000000000E+00 -0.00000000000E+00 -0.45593999997E+02  0.45594000000E+02  0.51100000000E-03 0.  1.
    9900012    2    1    2    0    0  0.19026875298E+02  0.23847186700E+02  0.30869288034E+02  0.47787271425E+02  0.20000001736E+02 0.  0.
        -12    1    1    2    0    0 -0.19026875298E+02 -0.23847186700E+02 -0.30869288034E+02  0.43400728575E+02  0.00000000000E+00 0.  1.
         11    1    3    3    0    0  0.49078662216E+01  0.24111037961E+01  0.78436688547E+01  0.95615748560E+01  0.51100000000E-03 0. -1.
        -11    1    3    3    0    0 -0.32471906558E+01  0.74366540345E+01  0.74854842810E+01  0.11039952245E+02  0.51100000000E-03 0.  1.
         12    1    3    3    0    0  0.17366199732E+02  0.13999428869E+02  0.15540134898E+02  0.27185744324E+02  0.00000000000E+00 0. -1.
</event>
<event>
 7    1  0.2294216E-010  0.4778727E+02  0.7816164E-02  0.1312668E+00
        -11   -1    0    0    0    0  0.00000000000E+00  0.00000000000E+00  0.45593999997E+02  0.45594000000E+02  0.51100000000E-03 0.  1.
         11   -1    0    0    0    0 -0.00000000000E+00 -0.00000000000E+00 -0.45593999997E+02  0.45594000000E+02  0.51100000000E-03 0. -1.
    9900012    2    1    2    0    0 -0.10052822784E+01  0.75999406805E+01 -0.42718302407E+02  0.47787273608E+02  0.20000011688E+02 0.  0.
        -12    1    1    2    0    0  0.10052822784E+01 -0.75999406805E+01  0.42718302407E+02  0.43400726392E+02  0.00000000000E+00 0.  1.
         11    1    3    3    0    0 -0.33731543818E+01 -0.39427183201E+01 -0.61330144328E+01  0.80334964076E+01  0.51100000000E-03 0.  1.
        -11    1    3    3    0    0 -0.39206506235E+01  0.45649726506E+01 -0.11745181121E+02  0.13196960121E+02  0.51100000000E-03 0. -1.
        -12    1    3    3    0    0  0.62885227270E+01  0.69776863500E+01 -0.24840106854E+02  0.26556817079E+02  0.00000000000E+00 0.  1.
</event>
<event>
 7    1  0.2294216E-010  0.4778727E+02  0.7816164E-02  0.1312668E+00
        -11   -1    0    0    0    0  0.00000000000E+00  0.00000000000E+00  0.45593999997E+02  0.45594000000E+02  0.51100000000E-03 0. -1.
         11   -1    0    0    0    0 -0.00000000000E+00 -0.00000000000E+00 -0.45593999997E+02  0.45594000000E+02  0.51100000000E-03 0.  1.
    9900012    2    1    2    0    0  0.29400175261E+02 -0.28060314048E+02  0.15227337542E+02  0.47787270300E+02  0.19999996606E+02 0.  0.
        -12    1    1    2    0    0 -0.29400175261E+02  0.28060314048E+02 -0.15227337542E+02  0.43400729700E+02  0.00000000000E+00 0.  1.
         11    1    3    3    0    0  0.93774189853E+01 -0.42379610176E+01  0.18277688623E+01  0.10451652486E+02  0.51100000000E-03 0. -1.
        -11    1    3    3    0    0  0.29747976831E+01 -0.12160610148E+02 -0.34768221799E+00  0.12524006692E+02  0.51100000000E-03 0.  1.
        -12    1    3    3    0    0  0.17047958593E+02 -0.11661742882E+02  0.13747250897E+02  0.24811611122E+02  0.00000000000E+00 0.  1.
</event>
<event>
 7    1  0.2294216E-010  0.4778727E+02  0.7816164E-02  0.1312668E+00
        -11   -1    0    0    0    0  0.00000000000E+00  0.00000000000E+00  0.45593999997E+02  0.45594000000E+02  0.51100000000E-03 0.  1.
         11   -1    0    0    0    0 -0.00000000000E+00 -0.00000000000E+00 -0.45593999997E+02  0.45594000000E+02  0.51100000000E-03 0. -1.
    9900012    2    1    2    0    0  0.29565299189E+02  0.14583638988E+02 -0.28228247549E+02  0.47787269569E+02  0.19999993271E+02 0.  0.
        -12    1    1    2    0    0 -0.29565299189E+02 -0.14583638988E+02  0.28228247549E+02  0.43400730431E+02  0.00000000000E+00 0.  1.
         11    1    3    3    0    0  0.90082973591E+01  0.19520191142E+01 -0.84825574512E+01  0.12526515122E+02  0.51100000000E-03 0. -1.
        -11    1    3    3    0    0  0.18650671316E+01  0.18886733184E+01 -0.12097274274E+02  0.12385055810E+02  0.51100000000E-03 0.  1.
         12    1    3    3    0    0  0.18691934699E+02  0.10742946556E+02 -0.76484158239E+01  0.22875698636E+02  0.00000000000E+00 0. -1.
</event>
<event>
 7    1  0.2294216E-010  0.4778727E+02  0.7816164E-02  0.1312668E+00
        -11   -1    0    0    0    0  0.00000000000E+00  0.00000000000E+00  0.45593999997E+02  0.45594000000E+02  0.51100000000E-03 0.  1.
         11   -1    0    0    0    0 -0.00000000000E+00 -0.00000000000E+00 -0.45593999997E+02  0.45594000000E+02  0.51100000000E-03 0. -1.
    9900012    2    1    2    0    0  0.41148473396E+01  0.81698067548E+01 -0.42425767603E+02  0.47787268811E+02  0.19999989818E+02 0.  0.
        -12    1    1    2    0    0 -0.41148473396E+01 -0.81698067548E+01  0.42425767603E+02  0.43400731189E+02  0.00000000000E+00 0.  1.
         11    1    3    3    0    0  0.32554843592E+01  0.46769840053E+01 -0.11270197241E+02  0.12628923307E+02  0.51100000000E-03 0. -1.
        -11    1    3    3    0    0  0.29328861068E+01 -0.39981251947E+01 -0.26705886190E+01  0.56319508007E+01  0.51100000000E-03 0.  1.
        -12    1    3    3    0    0 -0.20735231264E+01  0.74909479442E+01 -0.28484981743E+02  0.29526394703E+02  0.00000000000E+00 0.  1.
</event>
<event>
 7    1  0.2294216E-010  0.4778727E+02  0.7816164E-02  0.1312668E+00
        -11   -1    0    0    0    0  0.00000000000E+00  0.00000000000E+00  0.45593999997E+02  0.45594000000E+02  0.51100000000E-03 0.  1.
         11   -1    0    0    0    0 -0.00000000000E+00 -0.00000000000E+00 -0.45593999997E+02  0.45594000000E+02  0.51100000000E-03 0. -1.
    9900012    2    1    2    0    0  0.30018854430E+01  0.41500958338E+02 -0.12340285758E+02  0.47787268303E+02  0.19999987502E+02 0.  0.
        -12    1    1    2    0    0 -0.30018854430E+01 -0.41500958338E+02  0.12340285758E+02  0.43400731697E+02  0.00000000000E+00 0.  1.
         11    1    3    3    0    0  0.73881410459E+01  0.10748630298E+02 -0.43290351855E+01  0.13742569894E+02  0.51100000000E-03 0. -1.
        -11    1    3    3    0    0  0.13397535498E+01 -0.36162558693E+00  0.79769166268E-01  0.13899913742E+01  0.51100000000E-03 0.  1.
         12    1    3    3    0    0 -0.57260091527E+01  0.31113953627E+02 -0.80910197392E+01  0.32654707035E+02  0.00000000000E+00 0. -1.
</event>
<event>
 7    1  0.2294216E-010  0.4778727E+02  0.7816164E-02  0.1312668E+00
        -11   -1    0    0    0    0  0.00000000000E+00  0.00000000000E+00  0.45593999997E+02  0.45594000000E+02  0.51100000000E-03 0. -1.
         11   -1    0    0    0    0 -0.00000000000E+00 -0.00000000000E+00 -0.45593999997E+02  0.45594000000E+02  0.51100000000E-03 0.  1.
    9900012    2    1    2    0    0  0.66326831710E+01 -0.42888586325E+02  0.44712174502E+00  0.47787271424E+02  0.20000001733E+02 0.  0.
        -12    1    1    2    0    0 -0.66326831710E+01  0.42888586325E+02 -0.44712174502E+00  0.43400728576E+02  0.00000000000E+00 0.  1.
         11    1    3    3    0    0  0.10859763247E-01 -0.15584883838E+01  0.26763146228E+01  0.30970412007E+01  0.51100000000E-03 0. -1.
        -11    1    3    3    0    0 -0.19750231801E+01 -0.25381053346E+01  0.32604161275E+01  0.45796297707E+01  0.51100000000E-03 0.  1.
        -12    1    3    3    0    0  0.85968465878E+01 -0.38791992607E+02 -0.54896090054E+01  0.40110600453E+02  0.00000000000E+00 0.  1.
</event>
<event>
 7    1  0.2294216E-010  0.4778727E+02  0.7816164E-02  0.1312668E+00
        -11   -1    0    0    0    0  0.00000000000E+00  0.00000000000E+00  0.45593999997E+02  0.45594000000E+02  0.51100000000E-03 0.  1.
         11   -1    0    0    0    0 -0.00000000000E+00 -0.00000000000E+00 -0.45593999997E+02  0.45594000000E+02  0.51100000000E-03 0. -1.
    9900012    2    1    2    0    0 -0.36446977650E+02 -0.23388375077E+02  0.28679976622E+01  0.47787266376E+02  0.19999978714E+02 0.  0.
        -12    1    1    2    0    0  0.36446977650E+02  0.23388375077E+02 -0.28679976622E+01  0.43400733624E+02  0.00000000000E+00 0.  1.
         11    1    3    3    0    0 -0.32544692084E+02 -0.14129419081E+02  0.26724490555E+01  0.35580042870E+02  0.51100000000E-03 0. -1.
        -11    1    3    3    0    0  0.10109628165E+01 -0.11425029323E+00  0.14279283143E+01  0.17533050156E+01  0.51100000000E-03 0.  1.
        -12    1    3    3    0    0 -0.49132483817E+01 -0.91447057028E+01 -0.12323797076E+01  0.10453918490E+02  0.00000000000E+00 0.  1.
</event>
<event>
 7    1  0.2294216E-010  0.4778728E+02  0.7816164E-02  0.1312668E+00
        -11   -1    0    0    0    0  0.00000000000E+00  0.00000000000E+00  0.45593999997E+02  0.45594000000E+02  0.51100000000E-03 0.  1.
         11   -1    0    0    0    0 -0.00000000000E+00 -0.00000000000E+00 -0.45593999997E+02  0.45594000000E+02  0.51100000000E-03 0. -1.
    9900012    2    1    2    0    0  0.20588279172E+02  0.17206450217E+02 -0.34112809224E+02  0.47787275104E+02  0.20000018511E+02 0.  0.
        -12    1    1    2    0    0 -0.20588279172E+02 -0.17206450217E+02  0.34112809224E+02  0.43400724896E+02  0.00000000000E+00 0.  1.
         11    1    3    3    0    0  0.71583239792E+01  0.83411999010E+01 -0.11202865372E+02  0.15694629998E+02  0.51100000000E-03 0. -1.
        -11    1    3    3    0    0  0.44568150882E+01  0.11645268663E+02 -0.16660736647E+02  0.20809988680E+02  0.51100000000E-03 0.  1.
        -12    1    3    3    0    0  0.89731401045E+01 -0.27800183475E+01 -0.62492072048E+01  0.11282656426E+02  0.00000000000E+00 0.  1.
</event>
<event>
 7    1  0.2294216E-010  0.4778727E+02  0.7816164E-02  0.1312668E+00
        -11   -1    0    0    0    0  0.00000000000E+00  0.00000000000E+00  0.45593999997E+02  0.45594000000E+02  0.51100000000E-03 0.  1.
         11   -1    0    0    0    0 -0.00000000000E+00 -0.00000000000E+00 -0.45593999997E+02  0.45594000000E+02  0.51100000000E-03 0. -1.
    9900012    2    1    2    0    0  0.37199136722E+02  0.10643160406E+01 -0.22331930768E+02  0.47787266442E+02  0.19999979017E+02 0.  0.
        -12    1    1    2    0    0 -0.37199136722E+02 -0.10643160406E+01  0.22331930768E+02  0.43400733558E+02  0.00000000000E+00 0.  1.
         11    1    3    3    0    0  0.25645560553E+02 -0.33237555238E+01 -0.23379978587E+02  0.34862092964E+02  0.51100000000E-03 0. -1.
        -11    1    3    3    0    0  0.25761170398E+00  0.87257925610E+00 -0.42366719858E+00  0.10036197011E+01  0.51100000000E-03 0.  1.
         12    1    3    3    0    0  0.11295964465E+02  0.35154923083E+01  0.14717150171E+01  0.11921553777E+02  0.00000000000E+00 0. -1.
</event>
<event>
 7    1  0.2294216E-010  0.4778727E+02  0.7816164E-02  0.1312668E+00
        -11   -1    0    0    0    0  0.00000000000E+00  0.00000000000E+00  0.45593999997E+02  0.45594000000E+02  0.51100000000E-03 0.  1.
         11   -1    0    0    0    0 -0.00000000000E+00 -0.00000000000E+00 -0.45593999997E+02  0.45594000000E+02  0.51100000000E-03 0. -1.
    9900012    2    1    2    0    0 -0.35906707891E+02  0.88546572306E+01 -0.22714018778E+02  0.47787271028E+02  0.19999999927E+02 0.  0.
        -12    1    1    2    0    0  0.35906707891E+02 -0.88546572306E+01  0.22714018778E+02  0.43400728972E+02  0.00000000000E+00 0.  1.
         11    1    3    3    0    0 -0.47121969363E+01  0.96023572244E+00 -0.92800352659E+01  0.10452076703E+02  0.51100000000E-03 0. -1.
        -11    1    3    3    0    0 -0.21517343703E+02  0.32793166510E+00 -0.12791057782E+02  0.25034272081E+02  0.51100000000E-03 0.  1.
         12    1    3    3    0    0 -0.96771672517E+01  0.75664898431E+01 -0.64292573014E+00  0.12300922244E+02  0.00000000000E+00 0. -1.
</event>
<event>
 7    1  0.2294216E-010  0.4778727E+02  0.7816164E-02  0.1312668E+00
        -11   -1    0    0    0    0  0.00000000000E+00  0.00000000000E+00  0.45593999997E+02  0.45594000000E+02  0.51100000000E-03 0.  1.
         11   -1    0    0    0    0 -0.00000000000E+00 -0.00000000000E+00 -0.45593999997E+02  0.45594000000E+02  0.51100000000E-03 0. -1.
    9900012    2    1    2    0    0  0.16043181458E+02 -0.18789996941E+02 -0.35681583048E+02  0.47787273910E+02  0.20000013064E+02 0.  0.
        -12    1    1    2    0    0 -0.16043181458E+02  0.18789996941E+02  0.35681583048E+02  0.43400726090E+02  0.00000000000E+00 0.  1.
         11    1    3    3    0    0  0.38324695183E+01 -0.48206948945E+01 -0.10614565246E+02  0.12271752829E+02  0.51100000000E-03 0. -1.
        -11    1    3    3    0    0  0.10952450505E+02 -0.31565351662E+01 -0.45175284608E+01  0.12260829906E+02  0.51100000000E-03 0.  1.
        -12    1    3    3    0    0  0.12582614349E+01 -0.10812766880E+02 -0.20549489342E+02  0.23254691175E+02  0.00000000000E+00 0.  1.
</event>
<event>
 7    1  0.2294216E-010  0.4778730E+02  0.7816164E-02  0.1312668E+00
        -11   -1    0    0    0    0  0.00000000000E+00  0.00000000000E+00  0.45593999997E+02  0.45594000000E+02  0.51100000000E-03 0. -1.
         11   -1    0    0    0    0 -0.00000000000E+00 -0.00000000000E+00 -0.45593999997E+02  0.45594000000E+02  0.51100000000E-03 0.  1.
    9900012    2    1    2    0    0  0.33779431563E+02  0.27180910315E+02 -0.19414213762E+01  0.47787297250E+02  0.20000119480E+02 0.  0.
        -12    1    1    2    0    0 -0.33779431563E+02 -0.27180910315E+02  0.19414213762E+01  0.43400702750E+02  0.00000000000E+00 0.  1.
         11    1    3    3    0    0  0.24397470427E+02  0.20783956876E+02  0.17760488902E+01  0.32099280001E+02  0.51100000000E-03 0. -1.
        -11    1    3    3    0    0  0.79870652123E+01  0.89721144424E+01 -0.41889819019E+01  0.12721620098E+02  0.51100000000E-03 0.  1.
        -12    1    3    3    0    0  0.13948959237E+01 -0.25751610039E+01  0.47151163546E+00  0.29663971508E+01  0.00000000000E+00 0.  1.
</event>
<event>
 7    1  0.2294216E-010  0.4778727E+02  0.7816164E-02  0.1312668E+00
        -11   -1    0    0    0    0  0.00000000000E+00  0.00000000000E+00  0.45593999997E+02  0.45594000000E+02  0.51100000000E-03 0.  1.
         11   -1    0    0    0    0 -0.00000000000E+00 -0.00000000000E+00 -0.45593999997E+02  0.45594000000E+02  0.51100000000E-03 0. -1.
    9900012    2    1    2    0    0 -0.42502603018E+02 -0.89191696314E+00 -0.87382238594E+01  0.47787270336E+02  0.19999996769E+02 0.  0.
        -12    1    1    2    0    0  0.42502603018E+02  0.89191696314E+00  0.87382238594E+01  0.43400729664E+02  0.00000000000E+00 0.  1.
         11    1    3    3    0    0 -0.11741991016E+02  0.14344739793E+01  0.25060904256E+01  0.12091838492E+02  0.51100000000E-03 0. -1.
        -11    1    3    3    0    0 -0.28915709509E+02  0.21718947880E+01 -0.92049712423E+01  0.30423130661E+02  0.51100000000E-03 0.  1.
        -12    1    3    3    0    0 -0.18449024923E+01 -0.44982857305E+01 -0.20393430426E+01  0.52723011830E+01  0.00000000000E+00 0.  1.
</event>
<event>
 7    1  0.2294216E-010  0.4778728E+02  0.7816164E-02  0.1312668E+00
        -11   -1    0    0    0    0  0.00000000000E+00  0.00000000000E+00  0.45593999997E+02  0.45594000000E+02  0.51100000000E-03 0.  1.
         11   -1    0    0    0    0 -0.00000000000E+00 -0.00000000000E+00 -0.45593999997E+02  0.45594000000E+02  0.51100000000E-03 0. -1.
    9900012    2    1    2    0    0 -0.19617741962E+02 -0.39025293633E+01 -0.38516713276E+02  0.47787277233E+02  0.20000028218E+02 0.  0.
        -12    1    1    2    0    0  0.19617741962E+02  0.39025293633E+01  0.38516713276E+02  0.43400722767E+02  0.00000000000E+00 0.  1.
         11    1    3    3    0    0 -0.21288653612E+01  0.20266097465E+01 -0.49777963119E+01  0.57808019491E+01  0.51100000000E-03 0. -1.
        -11    1    3    3    0    0 -0.97511473624E+01  0.41991421218E+01 -0.74482783312E+01  0.12968982990E+02  0.51100000000E-03 0.  1.
         12    1    3    3    0    0 -0.77377292380E+01 -0.10128281232E+02 -0.26090638633E+02  0.29037492294E+02  0.00000000000E+00 0. -1.
</event>
<event>
 7    1  0.2294216E-010  0.4778727E+02  0.7816164E-02  0.1312668E+00
        -11   -1    0    0    0    0  0.00000000000E+00  0.00000000000E+00  0.45593999997E+02  0.45594000000E+02  0.51100000000E-03 0.  1.
         11   -1    0    0    0    0 -0.00000000000E+00 -0.00000000000E+00 -0.45593999997E+02  0.45594000000E+02  0.51100000000E-03 0. -1.
    9900012    2    1    2    0    0  0.38736697669E+01 -0.40876799160E+02 -0.14060783506E+02  0.47787266598E+02  0.19999979728E+02 0.  0.
        -12    1    1    2    0    0 -0.38736697669E+01  0.40876799160E+02  0.14060783506E+02  0.43400733402E+02  0.00000000000E+00 0.  1.
         11    1    3    3    0    0  0.34923336788E+01 -0.83801789957E+01 -0.86454312553E+01  0.12536637363E+02  0.51100000000E-03 0. -1.
        -11    1    3    3    0    0 -0.43784815180E+01 -0.39893207806E+01 -0.65779976547E+00  0.59597383740E+01  0.51100000000E-03 0.  1.
         12    1    3    3    0    0  0.47598176061E+01 -0.28507299384E+02 -0.47575524848E+01  0.29290890861E+02  0.00000000000E+00 0. -1.
</event>
<event>
 7    1  0.2294216E-010  0.4778728E+02  0.7816164E-02  0.1312668E+00
        -11   -1    0    0    0    0  0.00000000000E+00  0.00000000000E+00  0.45593999997E+02  0.45594000000E+02  0.51100000000E-03 0.  1.
         11   -1    0    0    0    0 -0.00000000000E+00 -0.00000000000E+00 -0.45593999997E+02  0.45594000000E+02  0.51100000000E-03 0. -1.
    9900012    2    1    2    0    0  0.13734201183E+02  0.33196345857E+02 -0.24351530347E+02  0.47787277764E+02  0.20000030636E+02 0.  0.
        -12    1    1    2    0    0 -0.13734201183E+02 -0.33196345857E+02  0.24351530347E+02  0.43400722236E+02  0.00000000000E+00 0.  1.
         11    1    3    3    0    0  0.59753702887E+01  0.44493361584E+01 -0.51205720250E+01  0.90400166185E+01  0.51100000000E-03 0. -1.
        -11    1    3    3    0    0 -0.11934532680E+01  0.93660019930E+00  0.20874258354E+01  0.25804839692E+01  0.51100000000E-03 0.  1.
         12    1    3    3    0    0  0.89522841627E+01  0.27810409499E+02 -0.21318384157E+02  0.36166777176E+02  0.00000000000E+00 0. -1.
</event>
<event>
 7    1  0.2294216E-010  0.4778727E+02  0.7816164E-02  0.1312668E+00
        -11   -1    0    0    0    0  0.00000000000E+00  0.00000000000E+00  0.45593999997E+02  0.45594000000E+02  0.51100000000E-03 0.  1.
         11   -1    0    0    0    0 -0.00000000000E+00 -0.00000000000E+00 -0.45593999997E+02  0.45594000000E+02  0.51100000000E-03 0. -1.
    9900012    2    1    2    0    0 -0.11520375654E+02  0.41839860698E+02  0.57456685412E+00  0.47787272754E+02  0.20000007792E+02 0.  0.
        -12    1    1    2    0    0  0.11520375654E+02 -0.41839860698E+02 -0.57456685412E+00  0.43400727246E+02  0.00000000000E+00 0.  1.
         11    1    3    3    0    0  0.58713674879E+00  0.54718690299E+01  0.12734189055E+01  0.56486880080E+01  0.51100000000E-03 0.  1.
        -11    1    3    3    0    0 -0.12928589959E+02  0.32697833259E+02  0.47890632329E+01  0.35485657174E+02  0.51100000000E-03 0. -1.
        -12    1    3    3    0    0  0.82107755634E+00  0.36701584091E+01 -0.54879152843E+01  0.66529275713E+01  0.00000000000E+00 0.  1.
</event>
<event>
 7    1  0.2294216E-010  0.4778727E+02  0.7816164E-02  0.1312668E+00
        -11   -1    0    0    0    0  0.00000000000E+00  0.00000000000E+00  0.45593999997E+02  0.45594000000E+02  0.51100000000E-03 0. -1.
         11   -1    0    0    0    0 -0.00000000000E+00 -0.00000000000E+00 -0.45593999997E+02  0.45594000000E+02  0.51100000000E-03 0.  1.
    9900012    2    1    2    0    0 -0.35429322624E+02  0.12500303417E+02  0.21728525837E+02  0.47787270488E+02  0.19999997464E+02 0.  0.
        -12    1    1    2    0    0  0.35429322624E+02 -0.12500303417E+02 -0.21728525837E+02  0.43400729512E+02  0.00000000000E+00 0.  1.
         11    1    3    3    0    0  0.11406838574E+00 -0.90607230438E+00 -0.42686214308E+00  0.10080625812E+01  0.51100000000E-03 0. -1.
        -11    1    3    3    0    0 -0.90963177010E+01  0.11290811154E+02  0.58304070609E+01  0.15627509686E+02  0.51100000000E-03 0.  1.
         12    1    3    3    0    0 -0.26447073308E+02  0.21155645673E+01  0.16324980920E+02  0.31151698221E+02  0.00000000000E+00 0. -1.
</event>
<event>
 7    1  0.2294216E-010  0.4778727E+02  0.7816164E-02  0.1312668E+00
        -11   -1    0    0    0    0  0.00000000000E+00  0.00000000000E+00  0.45593999997E+02  0.45594000000E+02  0.51100000000E-03 0.  1.
         11   -1    0    0    0    0 -0.00000000000E+00 -0.00000000000E+00 -0.45593999997E+02  0.45594000000E+02  0.51100000000E-03 0. -1.
    9900012    2    1    2    0    0  0.40150947039E+02 -0.70455268686E+01 -0.14895806361E+02  0.47787273691E+02  0.20000012068E+02 0.  0.
        -12    1    1    2    0    0 -0.40150947039E+02  0.70455268686E+01  0.14895806361E+02  0.43400726309E+02  0.00000000000E+00 0.  1.
         11    1    3    3    0    0  0.16487966625E+02  0.29024765837E+01 -0.93933962449E+01  0.19196700420E+02  0.51100000000E-03 0. -1.
        -11    1    3    3    0    0  0.43368208701E+01  0.24847542517E+01 -0.18106572755E+01  0.53160604757E+01  0.51100000000E-03 0.  1.
         12    1    3    3    0    0  0.19326159543E+02 -0.12432757704E+02 -0.36917528410E+01  0.23274512795E+02  0.00000000000E+00 0. -1.
</event>
<event>
 7    1  0.2294216E-010  0.4778727E+02  0.7816164E-02  0.1312668E+00
        -11   -1    0    0    0    0  0.00000000000E+00  0.00000000000E+00  0.45593999997E+02  0.45594000000E+02  0.51100000000E-03 0. -1.
         11   -1    0    0    0    0 -0.00000000000E+00 -0.00000000000E+00 -0.45593999997E+02  0.45594000000E+02  0.51100000000E-03 0.  1.
    9900012    2    1    2    0    0 -0.43276594559E+02  0.31053769972E+01 -0.10564208663E+01  0.47787273877E+02  0.20000012916E+02 0.  0.
        -12    1    1    2    0    0  0.43276594559E+02 -0.31053769972E+01  0.10564208663E+01  0.43400726123E+02  0.00000000000E+00 0.  1.
         11    1    3    3    0    0 -0.32823615512E+02  0.74045490126E+00  0.11256185159E+01  0.32851256080E+02  0.51100000000E-03 0. -1.
        -11    1    3    3    0    0 -0.77099556831E+01 -0.33699331317E+01 -0.14233576498E+01  0.85338041463E+01  0.51100000000E-03 0.  1.
        -12    1    3    3    0    0 -0.27430233637E+01  0.57348552277E+01 -0.75868173237E+00  0.64022136506E+01  0.00000000000E+00 0.  1.
</event>
<event>
 7    1  0.2294216E-010  0.4778727E+02  0.7816164E-02  0.1312668E+00
        -11   -1    0    0    0    0  0.00000000000E+00  0.00000000000E+00  0.45593999997E+02  0.45594000000E+02  0.51100000000E-03 0.  1.
         11   -1    0    0    0    0 -0.00000000000E+00 -0.00000000000E+00 -0.45593999997E+02  0.45594000000E+02  0.51100000000E-03 0. -1.
    9900012    2    1    2    0    0  0.81466989623E+01 -0.43016965909E+01 -0.42411673192E+02  0.47787270508E+02  0.19999997553E+02 0.  0.
        -12    1    1    2    0    0 -0.81466989623E+01  0.43016965909E+01  0.42411673192E+02  0.43400729492E+02  0.00000000000E+00 0.  1.
         11    1    3    3    0    0  0.13944452060E+01  0.54951294503E+01 -0.80512437964E+01  0.98470021854E+01  0.51100000000E-03 0.  1.
        -11    1    3    3    0    0  0.62661114584E+01 -0.32562517605E+00 -0.17568097767E+02  0.18654979066E+02  0.51100000000E-03 0. -1.
        -12    1    3    3    0    0  0.48614229795E+00 -0.94712008652E+01 -0.16792331629E+02  0.19285289256E+02  0.00000000000E+00 0.  1.
</event>
<event>
 7    1  0.2294216E-010  0.4778728E+02  0.7816164E-02  0.1312668E+00
        -11   -1    0    0    0    0  0.00000000000E+00  0.00000000000E+00  0.45593999997E+02  0.45594000000E+02  0.51100000000E-03 0. -1.
         11   -1    0    0    0    0 -0.00000000000E+00 -0.00000000000E+00 -0.45593999997E+02  0.45594000000E+02  0.51100000000E-03 0.  1.
    9900012    2    1    2    0    0  0.83401419401E+01  0.23092370768E+02  0.35788360444E+02  0.47787282281E+02  0.20000051232E+02 0.  0.
        -12    1    1    2    0    0 -0.83401419401E+01 -0.23092370768E+02 -0.35788360444E+02  0.43400717719E+02  0.00000000000E+00 0.  1.
         11    1    3    3    0    0 -0.35961173807E+01  0.50884079836E+01  0.31774811403E+01  0.69943078773E+01  0.51100000000E-03 0. -1.
        -11    1    3    3    0    0  0.27377049678E+01 -0.11813735883E+01  0.23277975951E+01  0.37827653840E+01  0.51100000000E-03 0.  1.
         12    1    3    3    0    0  0.91985543531E+01  0.19185336373E+02  0.30283081708E+02  0.37010209020E+02  0.00000000000E+00 0. -1.
</event>
<event>
 7    1  0.2294216E-010  0.4778727E+02  0.7816164E-02  0.1312668E+00
        -11   -1    0    0    0    0  0.00000000000E+00  0.00000000000E+00  0.45593999997E+02  0.45594000000E+02  0.51100000000E-03 0. -1.
         11   -1    0    0    0    0 -0.00000000000E+00 -0.00000000000E+00 -0.45593999997E+02  0.45594000000E+02  0.51100000000E-03 0.  1.
    9900012    2    1    2    0    0  0.38297851829E+02 -0.18868347177E+02  0.78027658247E+01  0.47787272651E+02  0.20000007325E+02 0.  0.
        -12    1    1    2    0    0 -0.38297851829E+02  0.18868347177E+02 -0.78027658247E+01  0.43400727349E+02  0.00000000000E+00 0.  1.
         11    1    3    3    0    0  0.22807605085E+02 -0.11207534086E+02  0.68104966564E+01  0.26309286098E+02  0.51100000000E-03 0. -1.
        -11    1    3    3    0    0  0.13971178854E+02 -0.26929847502E+01  0.48228514669E+01  0.15023511639E+02  0.51100000000E-03 0.  1.
         12    1    3    3    0    0  0.15190678902E+01 -0.49678283402E+01 -0.38305822986E+01  0.64544749143E+01  0.00000000000E+00 0. -1.
</event>
<event>
 7    1  0.2294216E-010  0.4778727E+02  0.7816164E-02  0.1312668E+00
        -11   -1    0    0    0    0  0.00000000000E+00  0.00000000000E+00  0.45593999997E+02  0.45594000000E+02  0.51100000000E-03 0. -1.
         11   -1    0    0    0    0 -0.00000000000E+00 -0.00000000000E+00 -0.45593999997E+02  0.45594000000E+02  0.51100000000E-03 0.  1.
    9900012    2    1    2    0    0 -0.34413370642E+02  0.47988314634E+00  0.26440746308E+02  0.47787269221E+02  0.19999991688E+02 0.  0.
        -12    1    1    2    0    0  0.34413370642E+02 -0.47988314634E+00 -0.26440746308E+02  0.43400730779E+02  0.00000000000E+00 0.  1.
         11    1    3    3    0    0  0.33633208382E+00  0.16614915438E+01  0.37986733047E+01  0.41597587138E+01  0.51100000000E-03 0. -1.
        -11    1    3    3    0    0 -0.25849168672E+02 -0.59264583513E+01  0.19956488807E+02  0.33189815839E+02  0.51100000000E-03 0.  1.
         12    1    3    3    0    0 -0.89005340538E+01  0.47448499539E+01  0.26855841961E+01  0.10437694669E+02  0.00000000000E+00 0. -1.
</event>
<event>
 7    1  0.2294216E-010  0.4778727E+02  0.7816164E-02  0.1312668E+00
        -11   -1    0    0    0    0  0.00000000000E+00  0.00000000000E+00  0.45593999997E+02  0.45594000000E+02  0.51100000000E-03 0.  1.
         11   -1    0    0    0    0 -0.00000000000E+00 -0.00000000000E+00 -0.45593999997E+02  0.45594000000E+02  0.51100000000E-03 0. -1.
    9900012    2    1    2    0    0 -0.17264791079E+02  0.36193678814E+02 -0.16600232633E+02  0.47787272811E+02  0.20000008054E+02 0.  0.
        -12    1    1    2    0    0  0.17264791079E+02 -0.36193678814E+02  0.16600232633E+02  0.43400727189E+02  0.00000000000E+00 0.  1.
         11    1    3    3    0    0 -0.19132088553E+01  0.75788603429E+01 -0.14489927983E+01  0.79497844381E+01  0.51100000000E-03 0. -1.
        -11    1    3    3    0    0  0.35417252701E+01  0.84371256253E+01 -0.46862235975E+01  0.10280544663E+02  0.51100000000E-03 0.  1.
         12    1    3    3    0    0 -0.18893307493E+02  0.20177692846E+02 -0.10465016237E+02  0.29556943710E+02  0.00000000000E+00 0. -1.
</event>
<event>
 7    1  0.2294216E-010  0.4778729E+02  0.7816164E-02  0.1312668E+00
        -11   -1    0    0    0    0  0.00000000000E+00  0.00000000000E+00  0.45593999997E+02  0.45594000000E+02  0.51100000000E-03 0.  1.
         11   -1    0    0    0    0 -0.00000000000E+00 -0.00000000000E+00 -0.45593999997E+02  0.45594000000E+02  0.51100000000E-03 0. -1.
    9900012    2    1    2    0    0  0.11996736512E+02 -0.34004863017E+02 -0.24153040742E+02  0.47787288337E+02  0.20000078842E+02 0.  0.
        -12    1    1    2    0    0 -0.11996736512E+02  0.34004863017E+02  0.24153040742E+02  0.43400711663E+02  0.00000000000E+00 0.  1.
         11    1    3    3    0    0  0.12329458231E+02 -0.13507396424E+02 -0.95586024206E+01  0.20635701561E+02  0.51100000000E-03 0. -1.
        -11    1    3    3    0    0  0.83692958748E+00 -0.95890188619E+01 -0.12830541245E+02  0.16039717042E+02  0.51100000000E-03 0.  1.
         12    1    3    3    0    0 -0.11696513060E+01 -0.10908447732E+02 -0.17638970764E+01  0.11111869734E+02  0.00000000000E+00 0. -1.
</event>
<event>
 7    1  0.2294216E-010  0.4778727E+02  0.7816164E-02  0.1312668E+00
        -11   -1    0    0    0    0  0.00000000000E+00  0.00000000000E+00  0.45593999997E+02  0.45594000000E+02  0.51100000000E-03 0.  1.
         11   -1    0    0    0    0 -0.00000000000E+00 -0.00000000000E+00 -0.45593999997E+02  0.45594000000E+02  0.51100000000E-03 0. -1.
    9900012    2    1    2    0    0 -0.16435769225E+01 -0.70607109174E+01 -0.42790979736E+02  0.47787275000E+02  0.20000018034E+02 0.  0.
        -12    1    1    2    0    0  0.16435769225E+01  0.70607109174E+01  0.42790979736E+02  0.43400725000E+02  0.00000000000E+00 0.  1.
         11    1    3    3    0    0  0.20105325737E+01 -0.25601301307E+01 -0.31371611405E+02  0.31540046130E+02  0.51100000000E-03 0. -1.
        -11    1    3    3    0    0 -0.46836138884E+01 -0.20498228130E+01 -0.12401020679E+02  0.13413550117E+02  0.51100000000E-03 0.  1.
        -12    1    3    3    0    0  0.10295043922E+01 -0.24507579736E+01  0.98165234727E+00  0.28336787520E+01  0.00000000000E+00 0.  1.
</event>
<event>
 7    1  0.2294216E-010  0.4778727E+02  0.7816164E-02  0.1312668E+00
        -11   -1    0    0    0    0  0.00000000000E+00  0.00000000000E+00  0.45593999997E+02  0.45594000000E+02  0.51100000000E-03 0. -1.
         11   -1    0    0    0    0 -0.00000000000E+00 -0.00000000000E+00 -0.45593999997E+02  0.45594000000E+02  0.51100000000E-03 0.  1.
    9900012    2    1    2    0    0  0.32797221142E+02  0.85391403552E+01  0.27111788059E+02  0.47787266315E+02  0.19999978437E+02 0.  0.
        -12    1    1    2    0    0 -0.32797221142E+02 -0.85391403552E+01 -0.27111788059E+02  0.43400733685E+02  0.00000000000E+00 0.  1.
         11    1    3    3    0    0  0.31309600909E+01  0.47781081061E+01  0.71481763085E+01  0.91503908639E+01  0.51100000000E-03 0. -1.
        -11    1    3    3    0    0  0.15411552787E+01 -0.34801724513E+01  0.38939698934E+01  0.54451594720E+01  0.51100000000E-03 0.  1.
        -12    1    3    3    0    0  0.28125105772E+02  0.72412047004E+01  0.16069641857E+02  0.33191715979E+02  0.00000000000E+00 0.  1.
</event>
<event>
 7    1  0.2294216E-010  0.4778725E+02  0.7816164E-02  0.1312668E+00
        -11   -1    0    0    0    0  0.00000000000E+00  0.00000000000E+00  0.45593999997E+02  0.45594000000E+02  0.51100000000E-03 0.  1.
         11   -1    0    0    0    0 -0.00000000000E+00 -0.00000000000E+00 -0.45593999997E+02  0.45594000000E+02  0.51100000000E-03 0. -1.
    9900012    2    1    2    0    0 -0.30245773398E+02 -0.31006345110E+02 -0.27248337099E+01  0.47787251570E+02  0.19999911208E+02 0.  0.
        -12    1    1    2    0    0  0.30245773398E+02  0.31006345110E+02  0.27248337099E+01  0.43400748430E+02  0.00000000000E+00 0.  1.
         11    1    3    3    0    0 -0.17424520338E+01 -0.18725951987E+01  0.25481056494E+01  0.36104839745E+01  0.51100000000E-03 0. -1.
        -11    1    3    3    0    0  0.19536850085E+01 -0.17125536593E+01  0.86307819860E+00  0.27376320765E+01  0.51100000000E-03 0.  1.
         12    1    3    3    0    0 -0.30457006373E+02 -0.27421196252E+02 -0.61360175579E+01  0.41439135519E+02  0.00000000000E+00 0. -1.
</event>
<event>
 7    1  0.2294216E-010  0.4778727E+02  0.7816164E-02  0.1312668E+00
        -11   -1    0    0    0    0  0.00000000000E+00  0.00000000000E+00  0.45593999997E+02  0.45594000000E+02  0.51100000000E-03 0.  1.
         11   -1    0    0    0    0 -0.00000000000E+00 -0.00000000000E+00 -0.45593999997E+02  0.45594000000E+02  0.51100000000E-03 0. -1.
    9900012    2    1    2    0    0  0.69328653715E+00 -0.25359048166E+02 -0.35214503710E+02  0.47787271416E+02  0.20000001693E+02 0.  0.
        -12    1    1    2    0    0 -0.69328653715E+00  0.25359048166E+02  0.35214503710E+02  0.43400728584E+02  0.00000000000E+00 0.  1.
         11    1    3    3    0    0  0.33872132793E+01 -0.35749122720E+01 -0.49962248920E+01  0.70153741871E+01  0.51100000000E-03 0. -1.
        -11    1    3    3    0    0 -0.52240944312E+01 -0.18233259413E+00 -0.33697988135E+01  0.62193208717E+01  0.51100000000E-03 0.  1.
         12    1    3    3    0    0  0.25301676891E+01 -0.21601803300E+02 -0.26848480004E+02  0.34552576357E+02  0.00000000000E+00 0. -1.
</event>
<event>
 7    1  0.2294216E-010  0.4778727E+02  0.7816164E-02  0.1312668E+00
        -11   -1    0    0    0    0  0.00000000000E+00  0.00000000000E+00  0.45593999997E+02  0.45594000000E+02  0.51100000000E-03 0. -1.
         11   -1    0    0    0    0 -0.00000000000E+00 -0.00000000000E+00 -0.45593999997E+02  0.45594000000E+02  0.51100000000E-03 0.  1.
    9900012    2    1    2    0    0  0.34870077448E+02 -0.37022316881E+01  0.25573317600E+02  0.47787269663E+02  0.19999993701E+02 0.  0.
        -12    1    1    2    0    0 -0.34870077448E+02  0.37022316881E+01 -0.25573317600E+02  0.43400730337E+02  0.00000000000E+00 0.  1.
         11    1    3    3    0    0  0.11829270409E+02  0.35450950283E+01  0.42926941001E+01  0.13073888483E+02  0.51100000000E-03 0. -1.
        -11    1    3    3    0    0  0.24543063129E+01 -0.38218915627E+01  0.10016063606E+02  0.10997818194E+02  0.51100000000E-03 0.  1.
         12    1    3    3    0    0  0.20586500726E+02 -0.34254351536E+01  0.11264559894E+02  0.23715562986E+02  0.00000000000E+00 0. -1.
</event>
<event>
 7    1  0.2294216E-010  0.4778727E+02  0.7816164E-02  0.1312668E+00
        -11   -1    0    0    0    0  0.00000000000E+00  0.00000000000E+00  0.45593999997E+02  0.45594000000E+02  0.51100000000E-03 0.  1.
         11   -1    0    0    0    0 -0.00000000000E+00 -0.00000000000E+00 -0.45593999997E+02  0.45594000000E+02  0.51100000000E-03 0. -1.
    9900012    2    1    2    0    0 -0.39953229324E+02 -0.33468004275E+01 -0.16618128204E+02  0.47787265081E+02  0.19999972808E+02 0.  0.
        -12    1    1    2    0    0  0.39953229324E+02  0.33468004275E+01  0.16618128204E+02  0.43400734919E+02  0.00000000000E+00 0.  1.
         11    1    3    3    0    0 -0.26219061709E+02 -0.49313364923E+01 -0.91680342610E+01  0.28210106858E+02  0.51100000000E-03 0. -1.
        -11    1    3    3    0    0 -0.14602347487E+02  0.39802604870E+01 -0.77629661987E+01  0.17009840391E+02  0.51100000000E-03 0.  1.
        -12    1    3    3    0    0  0.86817987171E+00 -0.23957244221E+01  0.31287225517E+00  0.25673178308E+01  0.00000000000E+00 0.  1.
</event>
<event>
 7    1  0.2294216E-010  0.4778727E+02  0.7816164E-02  0.1312668E+00
        -11   -1    0    0    0    0  0.00000000000E+00  0.00000000000E+00  0.45593999997E+02  0.45594000000E+02  0.51100000000E-03 0.  1.
         11   -1    0    0    0    0 -0.00000000000E+00 -0.00000000000E+00 -0.45593999997E+02  0.45594000000E+02  0.51100000000E-03 0. -1.
    9900012    2    1    2    0    0  0.17616467763E+01  0.20099955893E+02 -0.38425405071E+02  0.47787269809E+02  0.19999994367E+02 0.  0.
        -12    1    1    2    0    0 -0.17616467763E+01 -0.20099955893E+02  0.38425405071E+02  0.43400730191E+02  0.00000000000E+00 0.  1.
         11    1    3    3    0    0  0.98281154953E+00  0.51609139927E+00 -0.12951596302E+02  0.12999081349E+02  0.51100000000E-03 0. -1.
        -11    1    3    3    0    0 -0.47936434272E+00 -0.17404930624E+01 -0.40062654822E+00  0.18492182579E+01  0.51100000000E-03 0.  1.
         12    1    3    3    0    0  0.12581995695E+01  0.21324357556E+02 -0.25073182220E+02  0.32938970202E+02  0.00000000000E+00 0. -1.
</event>
<event>
 7    1  0.2294216E-010  0.4778733E+02  0.7816164E-02  0.1312667E+00
        -11   -1    0    0    0    0  0.00000000000E+00  0.00000000000E+00  0.45593999997E+02  0.45594000000E+02  0.51100000000E-03 0. -1.
         11   -1    0    0    0    0 -0.00000000000E+00 -0.00000000000E+00 -0.45593999997E+02  0.45594000000E+02  0.51100000000E-03 0.  1.
    9900012    2    1    2    0    0 -0.22909068690E+02  0.27837764707E+02 -0.24163020811E+02  0.47787330111E+02  0.20000269306E+02 0.  0.
        -12    1    1    2    0    0  0.22909068690E+02 -0.27837764707E+02  0.24163020811E+02  0.43400669889E+02  0.00000000000E+00 0.  1.
         11    1    3    3    0    0 -0.33718469582E+01  0.87015017214E+01 -0.13705638863E+02  0.16581013872E+02  0.51100000000E-03 0. -1.
        -11    1    3    3    0    0 -0.48059341482E+01 -0.52254375921E+00 -0.15878786156E+01  0.50883606177E+01  0.51100000000E-03 0.  1.
        -12    1    3    3    0    0 -0.14731287583E+02  0.19658806745E+02 -0.88695033326E+01  0.26117955622E+02  0.00000000000E+00 0.  1.
</event>
<event>
 7    1  0.2294216E-010  0.4778728E+02  0.7816164E-02  0.1312668E+00
        -11   -1    0    0    0    0  0.00000000000E+00  0.00000000000E+00  0.45593999997E+02  0.45594000000E+02  0.51100000000E-03 0.  1.
         11   -1    0    0    0    0 -0.00000000000E+00 -0.00000000000E+00 -0.45593999997E+02  0.45594000000E+02  0.51100000000E-03 0. -1.
    9900012    2    1    2    0    0 -0.33643735543E+02 -0.68181765782E+01 -0.26556250616E+02  0.47787275123E+02  0.20000018594E+02 0.  0.
        -12    1    1    2    0    0  0.33643735543E+02  0.68181765782E+01  0.26556250616E+02  0.43400724877E+02  0.00000000000E+00 0.  1.
         11    1    3    3    0    0 -0.12359803775E+02 -0.31448492737E+01 -0.11382727507E+02  0.17094481919E+02  0.51100000000E-03 0. -1.
        -11    1    3    3    0    0 -0.70201556166E+01  0.11862777126E+01 -0.13841386590E+02  0.15565147693E+02  0.51100000000E-03 0.  1.
        -12    1    3    3    0    0 -0.14263776151E+02 -0.48596050171E+01 -0.13321365186E+01  0.15127645511E+02  0.00000000000E+00 0.  1.
</event>
<event>
 7    1  0.2294216E-010  0.4778727E+02  0.7816164E-02  0.1312668E+00
        -11   -1    0    0    0    0  0.00000000000E+00  0.00000000000E+00  0.45593999997E+02  0.45594000000E+02  0.51100000000E-03 0. -1.
         11   -1    0    0    0    0 -0.00000000000E+00 -0.00000000000E+00 -0.45593999997E+02  0.45594000000E+02  0.51100000000E-03 0.  1.
    9900012    2    1    2    0    0  0.20723544466E+01 -0.27924630729E+02  0.33159367766E+02  0.47787270456E+02  0.19999997319E+02 0.  0.
        -12    1    1    2    0    0 -0.20723544466E+01  0.27924630729E+02 -0.33159367766E+02  0.43400729544E+02  0.00000000000E+00 0.  1.
         11    1    3    3    0    0  0.38384906903E+01 -0.51506463856E+01  0.60885245882E+01  0.88506101988E+01  0.51100000000E-03 0. -1.
        -11    1    3    3    0    0  0.25472590860E+01 -0.64420219279E+01  0.18984599383E+02  0.20208987837E+02  0.51100000000E-03 0.  1.
        -12    1    3    3    0    0 -0.43133953297E+01 -0.16331962415E+02  0.80862437943E+01  0.18727672421E+02  0.00000000000E+00 0.  1.
</event>
<event>
 7    1  0.2294216E-010  0.4778727E+02  0.7816164E-02  0.1312668E+00
        -11   -1    0    0    0    0  0.00000000000E+00  0.00000000000E+00  0.45593999997E+02  0.45594000000E+02  0.51100000000E-03 0.  1.
         11   -1    0    0    0    0 -0.00000000000E+00 -0.00000000000E+00 -0.45593999997E+02  0.45594000000E+02  0.51100000000E-03 0. -1.
    9900012    2    1    2    0    0  0.20941299023E+02  0.33856784824E+01 -0.37863205346E+02  0.47787272557E+02  0.20000006895E+02 0.  0.
        -12    1    1    2    0    0 -0.20941299023E+02 -0.33856784824E+01  0.37863205346E+02  0.43400727443E+02  0.00000000000E+00 0.  1.
         11    1    3    3    0    0  0.16739822756E+01  0.52350132620E+01 -0.10608116783E+02  0.11947373036E+02  0.51100000000E-03 0. -1.
        -11    1    3    3    0    0  0.10614390543E+02  0.42753821114E+01 -0.19837613319E+02  0.22901420944E+02  0.51100000000E-03 0.  1.
        -12    1    3    3    0    0  0.86529262045E+01 -0.61247168909E+01 -0.74174752435E+01  0.12938478577E+02  0.00000000000E+00 0.  1.
</event>
<event>
 7    1  0.2294216E-010  0.4778727E+02  0.7816164E-02  0.1312668E+00
        -11   -1    0    0    0    0  0.00000000000E+00  0.00000000000E+00  0.45593999997E+02  0.45594000000E+02  0.51100000000E-03 0.  1.
         11   -1    0    0    0    0 -0.00000000000E+00 -0.00000000000E+00 -0.45593999997E+02  0.45594000000E+02  0.51100000000E-03 0. -1.
    9900012    2    1    2    0    0  0.11555665167E+02 -0.34343009939E+02 -0.23888241012E+02  0.47787265124E+02  0.19999973008E+02 0.  0.
        -12    1    1    2    0    0 -0.11555665167E+02  0.34343009939E+02  0.23888241012E+02  0.43400734876E+02  0.00000000000E+00 0.  1.
         11    1    3    3    0    0  0.87358890174E+00  0.11631013145E+01 -0.30572411375E+01  0.33856588533E+01  0.51100000000E-03 0.  1.
        -11    1    3    3    0    0 -0.28974676233E+01 -0.43841998365E+01 -0.29118114801E+01  0.60079258643E+01  0.51100000000E-03 0. -1.
        -12    1    3    3    0    0  0.13579543888E+02 -0.31121911417E+02 -0.17919188394E+02  0.38393680407E+02  0.00000000000E+00 0.  1.
</event>
<event>
 7    1  0.2294216E-010  0.4778727E+02  0.7816164E-02  0.1312668E+00
        -11   -1    0    0    0    0  0.00000000000E+00  0.00000000000E+00  0.45593999997E+02  0.45594000000E+02  0.51100000000E-03 0.  1.
         11   -1    0    0    0    0 -0.00000000000E+00 -0.00000000000E+00 -0.45593999997E+02  0.45594000000E+02  0.51100000000E-03 0. -1.
    9900012    2    1    2    0    0 -0.34438760785E+02 -0.21364281163E+02 -0.15529400272E+02  0.47787273891E+02  0.20000012980E+02 0.  0.
        -12    1    1    2    0    0  0.34438760785E+02  0.21364281163E+02  0.15529400272E+02  0.43400726109E+02  0.00000000000E+00 0.  1.
         11    1    3    3    0    0 -0.90209464776E+01 -0.80741087409E+01 -0.11791713705E+02  0.16900095256E+02  0.51100000000E-03 0. -1.
        -11    1    3    3    0    0 -0.17027364927E+02 -0.94935159842E+01 -0.75685837191E+01  0.20912710534E+02  0.51100000000E-03 0.  1.
        -12    1    3    3    0    0 -0.83904493802E+01 -0.37966564375E+01  0.38308971526E+01  0.99744681011E+01  0.00000000000E+00 0.  1.
</event>
<event>
 7    1  0.2294216E-010  0.4778727E+02  0.7816164E-02  0.1312668E+00
        -11   -1    0    0    0    0  0.00000000000E+00  0.00000000000E+00  0.45593999997E+02  0.45594000000E+02  0.51100000000E-03 0. -1.
         11   -1    0    0    0    0 -0.00000000000E+00 -0.00000000000E+00 -0.45593999997E+02  0.45594000000E+02  0.51100000000E-03 0.  1.
    9900012    2    1    2    0    0  0.21892285832E+02 -0.24705883120E+02  0.28177477471E+02  0.47787273320E+02  0.20000010376E+02 0.  0.
        -12    1    1    2    0    0 -0.21892285832E+02  0.24705883120E+02 -0.28177477471E+02  0.43400726680E+02  0.00000000000E+00 0.  1.
         11    1    3    3    0    0  0.20240048208E+01 -0.46012088301E+01  0.84441940966E+01  0.98271121097E+01  0.51100000000E-03 0. -1.
        -11    1    3    3    0    0 -0.10149393567E+01  0.94602624025E+00  0.43283685931E+01  0.45453099436E+01  0.51100000000E-03 0.  1.
         12    1    3    3    0    0  0.20883220368E+02 -0.21050700531E+02  0.15404914781E+02  0.33414851267E+02  0.00000000000E+00 0. -1.
</event>
<event>
 7    1  0.2294216E-010  0.4778727E+02  0.7816164E-02  0.1312668E+00
        -11   -1    0    0    0    0  0.00000000000E+00  0.00000000000E+00  0.45593999997E+02  0.45594000000E+02  0.51100000000E-03 0.  1.
         11   -1    0    0    0    0 -0.00000000000E+00 -0.00000000000E+00 -0.45593999997E+02  0.45594000000E+02  0.51100000000E-03 0. -1.
    9900012    2    1    2    0    0  0.35213477331E+01 -0.17033068665E+01 -0.43224093566E+02  0.47787269490E+02  0.19999992914E+02 0.  0.
        -12    1    1    2    0    0 -0.35213477331E+01  0.17033068665E+01  0.43224093566E+02  0.43400730510E+02  0.00000000000E+00 0.  1.
         11    1    3    3    0    0  0.69558884066E+01  0.99205784848E+00 -0.23822315625E+02  0.24836893612E+02  0.51100000000E-03 0. -1.
        -11    1    3    3    0    0  0.24670192871E+01  0.22752110040E+00 -0.17118640163E-01  0.24775478447E+01  0.51100000000E-03 0.  1.
         12    1    3    3    0    0 -0.59015599605E+01 -0.29228858153E+01 -0.19384659302E+02  0.20472828034E+02  0.00000000000E+00 0. -1.
</event>
<event>
 7    1  0.2294216E-010  0.4778727E+02  0.7816164E-02  0.1312668E+00
        -11   -1    0    0    0    0  0.00000000000E+00  0.00000000000E+00  0.45593999997E+02  0.45594000000E+02  0.51100000000E-03 0. -1.
         11   -1    0    0    0    0 -0.00000000000E+00 -0.00000000000E+00 -0.45593999997E+02  0.45594000000E+02  0.51100000000E-03 0.  1.
    9900012    2    1    2    0    0  0.22636022102E+02 -0.29793867856E+02  0.21989982067E+02  0.47787269940E+02  0.19999994966E+02 0.  0.
        -12    1    1    2    0    0 -0.22636022102E+02  0.29793867856E+02 -0.21989982067E+02  0.43400730060E+02  0.00000000000E+00 0.  1.
         11    1    3    3    0    0 -0.21256581757E+01 -0.10615715438E+02  0.40057549479E+01  0.11543738992E+02  0.51100000000E-03 0. -1.
        -11    1    3    3    0    0  0.52812096707E+01 -0.34668733233E+01  0.49520896667E+01  0.80270529183E+01  0.51100000000E-03 0.  1.
         12    1    3    3    0    0  0.19480470607E+02 -0.15711279094E+02  0.13032137452E+02  0.28216478030E+02  0.00000000000E+00 0. -1.
</event>
<event>
 7    1  0.2294216E-010  0.4778727E+02  0.7816164E-02  0.1312668E+00
        -11   -1    0    0    0    0  0.00000000000E+00  0.00000000000E+00  0.45593999997E+02  0.45594000000E+02  0.51100000000E-03 0.  1.
         11   -1    0    0    0    0 -0.00000000000E+00 -0.00000000000E+00 -0.45593999997E+02  0.45594000000E+02  0.51100000000E-03 0. -1.
    9900012    2    1    2    0    0 -0.41636210611E+02 -0.10824438726E+02 -0.57342090239E+01  0.47787266586E+02  0.19999979672E+02 0.  0.
        -12    1    1    2    0    0  0.41636210611E+02  0.10824438726E+02  0.57342090239E+01  0.43400733414E+02  0.00000000000E+00 0.  1.
         11    1    3    3    0    0 -0.41060858395E+02 -0.64164706072E+01 -0.44694518944E+01  0.41798818018E+02  0.51100000000E-03 0. -1.
        -11    1    3    3    0    0 -0.20824006056E+01 -0.22590212044E+01 -0.13646616863E+01  0.33618255254E+01  0.51100000000E-03 0.  1.
         12    1    3    3    0    0  0.15070483898E+01 -0.21489469142E+01  0.99904556831E-01  0.26266230429E+01  0.00000000000E+00 0. -1.
</event>
<event>
 7    1  0.2294216E-010  0.4778727E+02  0.7816164E-02  0.1312668E+00
        -11   -1    0    0    0    0  0.00000000000E+00  0.00000000000E+00  0.45593999997E+02  0.45594000000E+02  0.51100000000E-03 0. -1.
         11   -1    0    0    0    0 -0.00000000000E+00 -0.00000000000E+00 -0.45593999997E+02  0.45594000000E+02  0.51100000000E-03 0.  1.
    9900012    2    1    2    0    0 -0.35549819782E+02 -0.29089886470E+01  0.24725924354E+02  0.47787271473E+02  0.20000001956E+02 0.  0.
        -12    1    1    2    0    0  0.35549819782E+02  0.29089886470E+01 -0.24725924354E+02  0.43400728527E+02  0.00000000000E+00 0.  1.
         11    1    3    3    0    0 -0.19026057308E+02 -0.31701824724E+01  0.16865591167E+02  0.25622042839E+02  0.51100000000E-03 0. -1.
        -11    1    3    3    0    0 -0.62491798666E+01 -0.59783952245E+01  0.24921243302E+01  0.90002301306E+01  0.51100000000E-03 0.  1.
         12    1    3    3    0    0 -0.10274582607E+02  0.62395890499E+01  0.53682088574E+01  0.13164998504E+02  0.00000000000E+00 0. -1.
</event>
<event>
 7    1  0.2294216E-010  0.4778727E+02  0.7816164E-02  0.1312668E+00
        -11   -1    0    0    0    0  0.00000000000E+00  0.00000000000E+00  0.45593999997E+02  0.45594000000E+02  0.51100000000E-03 0. -1.
         11   -1    0    0    0    0 -0.00000000000E+00 -0.00000000000E+00 -0.45593999997E+02  0.45594000000E+02  0.51100000000E-03 0.  1.
    9900012    2    1    2    0    0 -0.23997593623E+02 -0.31484391919E+02  0.17789660255E+02  0.47787269059E+02  0.19999990947E+02 0.  0.
        -12    1    1    2    0    0  0.23997593623E+02  0.31484391919E+02 -0.17789660255E+02  0.43400730941E+02  0.00000000000E+00 0.  1.
         11    1    3    3    0    0 -0.68593983655E+01 -0.12021543377E+02  0.38508611377E+01  0.14366557795E+02  0.51100000000E-03 0. -1.
        -11    1    3    3    0    0 -0.49048944628E+01 -0.16507051193E+02  0.48299144734E+01  0.17884876373E+02  0.51100000000E-03 0.  1.
         12    1    3    3    0    0 -0.12233300795E+02 -0.29557973485E+01  0.91088846442E+01  0.15535834891E+02  0.00000000000E+00 0. -1.
</event>
<event>
 7    1  0.2294216E-010  0.4778727E+02  0.7816164E-02  0.1312668E+00
        -11   -1    0    0    0    0  0.00000000000E+00  0.00000000000E+00  0.45593999997E+02  0.45594000000E+02  0.51100000000E-03 0.  1.
         11   -1    0    0    0    0 -0.00000000000E+00 -0.00000000000E+00 -0.45593999997E+02  0.45594000000E+02  0.51100000000E-03 0. -1.
    9900012    2    1    2    0    0  0.26952000728E+02  0.12070462389E+01 -0.33996411916E+02  0.47787270432E+02  0.19999997209E+02 0.  0.
        -12    1    1    2    0    0 -0.26952000728E+02 -0.12070462389E+01  0.33996411916E+02  0.43400729568E+02  0.00000000000E+00 0.  1.
         11    1    3    3    0    0  0.11040533716E+01  0.22935703193E+00 -0.65387750375E+01  0.66352933430E+01  0.51100000000E-03 0. -1.
        -11    1    3    3    0    0  0.10436842850E+02 -0.74088364116E+01 -0.87505353963E+01  0.15504528875E+02  0.51100000000E-03 0.  1.
         12    1    3    3    0    0  0.15411104506E+02  0.83865256186E+01 -0.18707101482E+02  0.25647448214E+02  0.00000000000E+00 0. -1.
</event>
<event>
 7    1  0.2294216E-010  0.4778727E+02  0.7816164E-02  0.1312668E+00
        -11   -1    0    0    0    0  0.00000000000E+00  0.00000000000E+00  0.45593999997E+02  0.45594000000E+02  0.51100000000E-03 0. -1.
         11   -1    0    0    0    0 -0.00000000000E+00 -0.00000000000E+00 -0.45593999997E+02  0.45594000000E+02  0.51100000000E-03 0.  1.
    9900012    2    1    2    0    0  0.35316162176E+02  0.24866205169E+02  0.42501552117E+01  0.47787270862E+02  0.19999999169E+02 0.  0.
        -12    1    1    2    0    0 -0.35316162176E+02 -0.24866205169E+02 -0.42501552117E+01  0.43400729138E+02  0.00000000000E+00 0.  1.
         11    1    3    3    0    0  0.23508160274E+02  0.17417363966E+02 -0.11752655438E+01  0.29281041927E+02  0.51100000000E-03 0.  1.
        -11    1    3    3    0    0  0.13924657908E+02  0.65017262120E+01  0.48809529890E+01  0.16124274989E+02  0.51100000000E-03 0. -1.
        -12    1    3    3    0    0 -0.21166560054E+01  0.94711499143E+00  0.54446776645E+00  0.23819539460E+01  0.00000000000E+00 0.  1.
</event>
<event>
 7    1  0.2294216E-010  0.4778725E+02  0.7816164E-02  0.1312668E+00
        -11   -1    0    0    0    0  0.00000000000E+00  0.00000000000E+00  0.45593999997E+02  0.45594000000E+02  0.51100000000E-03 0. -1.
         11   -1    0    0    0    0 -0.00000000000E+00 -0.00000000000E+00 -0.45593999997E+02  0.45594000000E+02  0.51100000000E-03 0.  1.
    9900012    2    1    2    0    0 -0.42287209109E+02  0.97505897832E+01 -0.58537210848E+00  0.47787254432E+02  0.19999924257E+02 0.  0.
        -12    1    1    2    0    0  0.42287209109E+02 -0.97505897832E+01  0.58537210848E+00  0.43400745568E+02  0.00000000000E+00 0.  1.
         11    1    3    3    0    0 -0.14603035322E+02  0.45331228672E+01  0.61462162840E+01  0.16479496911E+02  0.51100000000E-03 0. -1.
        -11    1    3    3    0    0 -0.19744368890E+02  0.67991609689E+01 -0.16383495302E+00  0.20882900539E+02  0.51100000000E-03 0.  1.
        -12    1    3    3    0    0 -0.79398048966E+01 -0.15816940529E+01 -0.65677534395E+01  0.10424856983E+02  0.00000000000E+00 0.  1.
</event>
<event>
 7    1  0.2294216E-010  0.4778727E+02  0.7816164E-02  0.1312668E+00
        -11   -1    0    0    0    0  0.00000000000E+00  0.00000000000E+00  0.45593999997E+02  0.45594000000E+02  0.51100000000E-03 0.  1.
         11   -1    0    0    0    0 -0.00000000000E+00 -0.00000000000E+00 -0.45593999997E+02  0.45594000000E+02  0.51100000000E-03 0. -1.
    9900012    2    1    2    0    0  0.14004616962E+02 -0.16703789279E+01 -0.41045147094E+02  0.47787267725E+02  0.19999984867E+02 0.  0.
        -12    1    1    2    0    0 -0.14004616962E+02  0.16703789279E+01  0.41045147094E+02  0.43400732275E+02  0.00000000000E+00 0.  1.
         11    1    3    3    0    0 -0.99397787379E+00 -0.14814083953E+01 -0.41285144941E+01  0.44974654014E+01  0.51100000000E-03 0. -1.
        -11    1    3    3    0    0  0.26957933172E+01  0.65159604688E+01 -0.20649934990E+02  0.21820743750E+02  0.51100000000E-03 0.  1.
         12    1    3    3    0    0  0.12302801518E+02 -0.67049310014E+01 -0.16266697610E+02  0.21469058574E+02  0.00000000000E+00 0. -1.
</event>
<event>
 7    1  0.2294216E-010  0.4778727E+02  0.7816164E-02  0.1312668E+00
        -11   -1    0    0    0    0  0.00000000000E+00  0.00000000000E+00  0.45593999997E+02  0.45594000000E+02  0.51100000000E-03 0.  1.
         11   -1    0    0    0    0 -0.00000000000E+00 -0.00000000000E+00 -0.45593999997E+02  0.45594000000E+02  0.51100000000E-03 0. -1.
    9900012    2    1    2    0    0 -0.30414401504E+01  0.18730434098E+02 -0.39032601999E+02  0.47787267996E+02  0.19999986101E+02 0.  0.
        -12    1    1    2    0    0  0.30414401504E+01 -0.18730434098E+02  0.39032601999E+02  0.43400732004E+02  0.00000000000E+00 0.  1.
         11    1    3    3    0    0 -0.40811292997E+00  0.46744879256E+01 -0.27887630655E+01  0.54584423810E+01  0.51100000000E-03 0. -1.
        -11    1    3    3    0    0  0.60293156149E+01  0.30255461418E+01 -0.61556380752E+01  0.91322755441E+01  0.51100000000E-03 0.  1.
         12    1    3    3    0    0 -0.86626428354E+01  0.11030400030E+02 -0.30088200858E+02  0.33196550071E+02  0.00000000000E+00 0. -1.
</event>
<event>
 7    1  0.2294216E-010  0.4778727E+02  0.7816164E-02  0.1312668E+00
        -11   -1    0    0    0    0  0.00000000000E+00  0.00000000000E+00  0.45593999997E+02  0.45594000000E+02  0.51100000000E-03 0.  1.
         11   -1    0    0    0    0 -0.00000000000E+00 -0.00000000000E+00 -0.45593999997E+02  0.45594000000E+02  0.51100000000E-03 0. -1.
    9900012    2    1    2    0    0  0.27455463151E+02  0.33328595903E+02 -0.43618396158E+01  0.47787269516E+02  0.19999993033E+02 0.  0.
        -12    1    1    2    0    0 -0.27455463151E+02 -0.33328595903E+02  0.43618396158E+01  0.43400730484E+02  0.00000000000E+00 0.  1.
         11    1    3    3    0    0  0.66555711053E+01  0.92689377830E+01  0.41236772912E+01  0.12133200280E+02  0.51100000000E-03 0.  1.
        -11    1    3    3    0    0  0.10783803991E+02  0.31192381663E+01 -0.10273593902E+01  0.11272778843E+02  0.51100000000E-03 0. -1.
         12    1    3    3    0    0  0.10016088054E+02  0.20940419953E+02 -0.74581575168E+01  0.24381290394E+02  0.00000000000E+00 0. -1.
</event>
<event>
 7    1  0.2294216E-010  0.4778728E+02  0.7816164E-02  0.1312668E+00
        -11   -1    0    0    0    0  0.00000000000E+00  0.00000000000E+00  0.45593999997E+02  0.45594000000E+02  0.51100000000E-03 0.  1.
         11   -1    0    0    0    0 -0.00000000000E+00 -0.00000000000E+00 -0.45593999997E+02  0.45594000000E+02  0.51100000000E-03 0. -1.
    9900012    2    1    2    0    0  0.34151470211E+02  0.26149674228E+02 -0.57874435175E+01  0.47787275556E+02  0.20000020569E+02 0.  0.
        -12    1    1    2    0    0 -0.34151470211E+02 -0.26149674228E+02  0.57874435175E+01  0.43400724444E+02  0.00000000000E+00 0.  1.
         11    1    3    3    0    0  0.96267078221E+01  0.13853861982E+02 -0.56101714765E+01  0.17778555047E+02  0.51100000000E-03 0. -1.
        -11    1    3    3    0    0  0.34749911117E+01  0.73728116626E+01  0.16422306088E+01  0.83144955753E+01  0.51100000000E-03 0.  1.
         12    1    3    3    0    0  0.21049771277E+02  0.49230005835E+01 -0.18195026498E+01  0.21694224934E+02  0.00000000000E+00 0. -1.
</event>
<event>
 7    1  0.2294216E-010  0.4778727E+02  0.7816164E-02  0.1312668E+00
        -11   -1    0    0    0    0  0.00000000000E+00  0.00000000000E+00  0.45593999997E+02  0.45594000000E+02  0.51100000000E-03 0. -1.
         11   -1    0    0    0    0 -0.00000000000E+00 -0.00000000000E+00 -0.45593999997E+02  0.45594000000E+02  0.51100000000E-03 0.  1.
    9900012    2    1    2    0    0 -0.24263510257E+01 -0.21675097310E+02  0.37522343729E+02  0.47787270725E+02  0.19999998543E+02 0.  0.
        -12    1    1    2    0    0  0.24263510257E+01  0.21675097310E+02 -0.37522343729E+02  0.43400729275E+02  0.00000000000E+00 0.  1.
         11    1    3    3    0    0  0.82627793198E+00  0.24262524514E+00  0.93775402222E+01  0.94169986254E+01  0.51100000000E-03 0. -1.
        -11    1    3    3    0    0  0.42943456661E+01 -0.19217176013E+01  0.52669015136E+01  0.70621990240E+01  0.51100000000E-03 0.  1.
         12    1    3    3    0    0 -0.75469746239E+01 -0.19996004953E+02  0.22877901993E+02  0.31308073075E+02  0.00000000000E+00 0. -1.
</event>
<event>
 7    1  0.2294216E-010  0.4778727E+02  0.7816164E-02  0.1312668E+00
        -11   -1    0    0    0    0  0.00000000000E+00  0.00000000000E+00  0.45593999997E+02  0.45594000000E+02  0.51100000000E-03 0.  1.
         11   -1    0    0    0    0 -0.00000000000E+00 -0.00000000000E+00 -0.45593999997E+02  0.45594000000E+02  0.51100000000E-03 0. -1.
    9900012    2    1    2    0    0  0.24682273048E+02 -0.35645558324E+02  0.19500767061E+01  0.47787271548E+02  0.20000002294E+02 0.  0.
        -12    1    1    2    0    0 -0.24682273048E+02  0.35645558324E+02 -0.19500767061E+01  0.43400728452E+02  0.00000000000E+00 0.  1.
         11    1    3    3    0    0  0.12297703912E+02 -0.26066608618E+02 -0.58770597751E+01  0.29414986626E+02  0.51100000000E-03 0. -1.
        -11    1    3    3    0    0  0.25428213095E+01 -0.37999186084E+01  0.46588645071E+01  0.65276596417E+01  0.51100000000E-03 0.  1.
        -12    1    3    3    0    0  0.98417478271E+01 -0.57790310974E+01  0.31682719741E+01  0.11844625280E+02  0.00000000000E+00 0.  1.
</event>
<event>
 7    1  0.2294216E-010  0.4778724E+02  0.7816164E-02  0.1312668E+00
        -11   -1    0    0    0    0  0.00000000000E+00  0.00000000000E+00  0.45593999997E+02  0.45594000000E+02  0.51100000000E-03 0.  1.
         11   -1    0    0    0    0 -0.00000000000E+00 -0.00000000000E+00 -0.45593999997E+02  0.45594000000E+02  0.51100000000E-03 0. -1.
    9900012    2    1    2    0    0 -0.30818592328E+02 -0.11751124122E+01 -0.30536195447E+02  0.47787242465E+02  0.19999869694E+02 0.  0.
        -12    1    1    2    0    0  0.30818592328E+02  0.11751124122E+01  0.30536195447E+02  0.43400757535E+02  0.00000000000E+00 0.  1.
         11    1    3    3    0    0 -0.19669995746E+02  0.84401190415E+01 -0.16506522273E+02  0.27029791340E+02  0.51100000000E-03 0. -1.
        -11    1    3    3    0    0 -0.28073806520E+01 -0.35264911734E+01 -0.20817450775E+01  0.49649963696E+01  0.51100000000E-03 0.  1.
         12    1    3    3    0    0 -0.83412159295E+01 -0.60887402804E+01 -0.11947928097E+02  0.15792454755E+02  0.00000000000E+00 0. -1.
</event>
<event>
 7    1  0.2294216E-010  0.4778727E+02  0.7816164E-02  0.1312668E+00
        -11   -1    0    0    0    0  0.00000000000E+00  0.00000000000E+00  0.45593999997E+02  0.45594000000E+02  0.51100000000E-03 0. -1.
         11   -1    0    0    0    0 -0.00000000000E+00 -0.00000000000E+00 -0.45593999997E+02  0.45594000000E+02  0.51100000000E-03 0.  1.
    9900012    2    1    2    0    0  0.37840683091E+01  0.92487715391E+01  0.42234634965E+02  0.47787270299E+02  0.19999996603E+02 0.  0.
        -12    1    1    2    0    0 -0.37840683091E+01 -0.92487715391E+01 -0.42234634965E+02  0.43400729701E+02  0.00000000000E+00 0.  1.
         11    1    3    3    0    0 -0.63786465581E+00  0.65022321628E+01  0.70819105922E+01  0.96353179664E+01  0.51100000000E-03 0. -1.
        -11    1    3    3    0    0 -0.48622520667E+01  0.16163104133E+01  0.87275102551E+01  0.10120444161E+02  0.51100000000E-03 0.  1.
        -12    1    3    3    0    0  0.92841850316E+01  0.11302289631E+01  0.26425214117E+02  0.28031508171E+02  0.00000000000E+00 0.  1.
</event>
<event>
 7    1  0.2294216E-010  0.4778727E+02  0.7816164E-02  0.1312668E+00
        -11   -1    0    0    0    0  0.00000000000E+00  0.00000000000E+00  0.45593999997E+02  0.45594000000E+02  0.51100000000E-03 0.  1.
         11   -1    0    0    0    0 -0.00000000000E+00 -0.00000000000E+00 -0.45593999997E+02  0.45594000000E+02  0.51100000000E-03 0. -1.
    9900012    2    1    2    0    0  0.24916720524E+01 -0.34770161500E+02 -0.25854418882E+02  0.47787268024E+02  0.19999986229E+02 0.  0.
        -12    1    1    2    0    0 -0.24916720524E+01  0.34770161500E+02  0.25854418882E+02  0.43400731976E+02  0.00000000000E+00 0.  1.
         11    1    3    3    0    0 -0.20661067459E+01 -0.58221184130E+01 -0.13129954129E+02  0.14510739319E+02  0.51100000000E-03 0. -1.
        -11    1    3    3    0    0 -0.16464960005E+01 -0.45007602283E+01  0.46296626169E+00  0.48147824181E+01  0.51100000000E-03 0.  1.
         12    1    3    3    0    0  0.62042747987E+01 -0.24447282858E+02 -0.13187431015E+02  0.28461746287E+02  0.00000000000E+00 0. -1.
</event>
<event>
 7    1  0.2294216E-010  0.4778727E+02  0.7816164E-02  0.1312668E+00
        -11   -1    0    0    0    0  0.00000000000E+00  0.00000000000E+00  0.45593999997E+02  0.45594000000E+02  0.51100000000E-03 0.  1.
         11   -1    0    0    0    0 -0.00000000000E+00 -0.00000000000E+00 -0.45593999997E+02  0.45594000000E+02  0.51100000000E-03 0. -1.
    9900012    2    1    2    0    0 -0.21813358766E+02  0.30920179761E+02 -0.21254251548E+02  0.47787270214E+02  0.19999996214E+02 0.  0.
        -12    1    1    2    0    0  0.21813358766E+02 -0.30920179761E+02  0.21254251548E+02  0.43400729786E+02  0.00000000000E+00 0.  1.
         11    1    3    3    0    0 -0.57071635935E+01 -0.15442525632E+01 -0.52802361262E+01  0.79269998153E+01  0.51100000000E-03 0. -1.
        -11    1    3    3    0    0 -0.49806948255E+01  0.68576867435E+01 -0.23561149645E+01  0.87969577926E+01  0.51100000000E-03 0.  1.
         12    1    3    3    0    0 -0.11125500347E+02  0.25606745581E+02 -0.13617900457E+02  0.31063312606E+02  0.00000000000E+00 0. -1.
</event>
<event>
 7    1  0.2294216E-010  0.4778727E+02  0.7816164E-02  0.1312668E+00
        -11   -1    0    0    0    0  0.00000000000E+00  0.00000000000E+00  0.45593999997E+02  0.45594000000E+02  0.51100000000E-03 0. -1.
         11   -1    0    0    0    0 -0.00000000000E+00 -0.00000000000E+00 -0.45593999997E+02  0.45594000000E+02  0.51100000000E-03 0.  1.
    9900012    2    1    2    0    0 -0.17402161191E+02  0.20187348114E+02 -0.34252872511E+02  0.47787268287E+02  0.19999987428E+02 0.  0.
        -12    1    1    2    0    0  0.17402161191E+02 -0.20187348114E+02  0.34252872511E+02  0.43400731713E+02  0.00000000000E+00 0.  1.
         11    1    3    3    0    0  0.68221983534E+00  0.39865364400E+00 -0.12664885513E+01  0.14927632576E+01  0.51100000000E-03 0. -1.
        -11    1    3    3    0    0  0.37652411988E+01  0.38584513987E+01 -0.45556708576E+01  0.70582452285E+01  0.51100000000E-03 0.  1.
         12    1    3    3    0    0 -0.21849622225E+02  0.15930243071E+02 -0.28430713102E+02  0.39236259801E+02  0.00000000000E+00 0. -1.
</event>
<event>
 7    1  0.2294216E-010  0.4778727E+02  0.7816164E-02  0.1312668E+00
        -11   -1    0    0    0    0  0.00000000000E+00  0.00000000000E+00  0.45593999997E+02  0.45594000000E+02  0.51100000000E-03 0.  1.
         11   -1    0    0    0    0 -0.00000000000E+00 -0.00000000000E+00 -0.45593999997E+02  0.45594000000E+02  0.51100000000E-03 0. -1.
    9900012    2    1    2    0    0 -0.22493904061E+02  0.13908678496E+01 -0.37090602846E+02  0.47787273591E+02  0.20000011613E+02 0.  0.
        -12    1    1    2    0    0  0.22493904061E+02 -0.13908678496E+01  0.37090602846E+02  0.43400726409E+02  0.00000000000E+00 0.  1.
         11    1    3    3    0    0 -0.56395145212E+01  0.67284763952E+00 -0.10647925347E+02  0.12067939445E+02  0.51100000000E-03 0. -1.
        -11    1    3    3    0    0 -0.19330913554E+02 -0.27355804704E+01 -0.23491583093E+02  0.30545410389E+02  0.51100000000E-03 0.  1.
         12    1    3    3    0    0  0.24765240144E+01  0.34536006805E+01 -0.29510944056E+01  0.51739237572E+01  0.00000000000E+00 0. -1.
</event>
<event>
 7    1  0.2294216E-010  0.4778727E+02  0.7816164E-02  0.1312668E+00
        -11   -1    0    0    0    0  0.00000000000E+00  0.00000000000E+00  0.45593999997E+02  0.45594000000E+02  0.51100000000E-03 0.  1.
         11   -1    0    0    0    0 -0.00000000000E+00 -0.00000000000E+00 -0.45593999997E+02  0.45594000000E+02  0.51100000000E-03 0. -1.
    9900012    2    1    2    0    0  0.85165921719E+00  0.35368629073E+01 -0.43247989623E+02  0.47787270408E+02  0.19999997100E+02 0.  0.
        -12    1    1    2    0    0 -0.85165921719E+00 -0.35368629073E+01  0.43247989623E+02  0.43400729592E+02  0.00000000000E+00 0.  1.
         11    1    3    3    0    0  0.97107002669E+00  0.54057761641E+01 -0.20355558732E+02  0.21083504559E+02  0.51100000000E-03 0. -1.
        -11    1    3    3    0    0  0.61739716287E+01 -0.17838772962E+01 -0.16614512624E+02  0.17814100423E+02  0.51100000000E-03 0.  1.
         12    1    3    3    0    0 -0.62933824382E+01 -0.85035960554E-01 -0.62779182671E+01  0.88896654266E+01  0.00000000000E+00 0. -1.
</event>
<event>
 7    1  0.2294216E-010  0.4778727E+02  0.7816164E-02  0.1312668E+00
        -11   -1    0    0    0    0  0.00000000000E+00  0.00000000000E+00  0.45593999997E+02  0.45594000000E+02  0.51100000000E-03 0.  1.
         11   -1    0    0    0    0 -0.00000000000E+00 -0.00000000000E+00 -0.45593999997E+02  0.45594000000E+02  0.51100000000E-03 0. -1.
    9900012    2    1    2    0    0 -0.77571768464E+01 -0.22357296448E+02 -0.36381325510E+02  0.47787270249E+02  0.19999996373E+02 0.  0.
        -12    1    1    2    0    0  0.77571768464E+01  0.22357296448E+02  0.36381325510E+02  0.43400729751E+02  0.00000000000E+00 0.  1.
         11    1    3    3    0    0 -0.64555563847E+01 -0.99685718421E+01 -0.29222203860E+02  0.31543364302E+02  0.51100000000E-03 0. -1.
        -11    1    3    3    0    0  0.35593191946E-01  0.80570364854E+00 -0.17392637948E+01  0.19171499820E+01  0.51100000000E-03 0.  1.
        -12    1    3    3    0    0 -0.13372136537E+01 -0.13194428254E+02 -0.54198578554E+01  0.14326755965E+02  0.00000000000E+00 0.  1.
</event>
<event>
 7    1  0.2294216E-010  0.4778726E+02  0.7816164E-02  0.1312668E+00
        -11   -1    0    0    0    0  0.00000000000E+00  0.00000000000E+00  0.45593999997E+02  0.45594000000E+02  0.51100000000E-03 0.  1.
         11   -1    0    0    0    0 -0.00000000000E+00 -0.00000000000E+00 -0.45593999997E+02  0.45594000000E+02  0.51100000000E-03 0. -1.
    9900012    2    1    2    0    0  0.37877903459E+02  0.16084674958E+02 -0.13790275881E+02  0.47787262128E+02  0.19999959346E+02 0.  0.
        -12    1    1    2    0    0 -0.37877903459E+02 -0.16084674958E+02  0.13790275881E+02  0.43400737872E+02  0.00000000000E+00 0.  1.
         11    1    3    3    0    0  0.27406090912E+02  0.97519615042E+01 -0.97440495882E+00  0.29105738911E+02  0.51100000000E-03 0. -1.
        -11    1    3    3    0    0  0.34717298642E+00 -0.96486748746E+00 -0.16081238280E+01  0.19072390669E+01  0.51100000000E-03 0.  1.
        -12    1    3    3    0    0  0.10124639561E+02  0.72975809414E+01 -0.11207747094E+02  0.16774284150E+02  0.00000000000E+00 0.  1.
</event>
<event>
 7    1  0.2294216E-010  0.4778725E+02  0.7816164E-02  0.1312668E+00
        -11   -1    0    0    0    0  0.00000000000E+00  0.00000000000E+00  0.45593999997E+02  0.45594000000E+02  0.51100000000E-03 0.  1.
         11   -1    0    0    0    0 -0.00000000000E+00 -0.00000000000E+00 -0.45593999997E+02  0.45594000000E+02  0.51100000000E-03 0. -1.
    9900012    2    1    2    0    0  0.20854374159E+02 -0.13694602461E+02 -0.35513063221E+02  0.47787254414E+02  0.19999924175E+02 0.  0.
        -12    1    1    2    0    0 -0.20854374159E+02  0.13694602461E+02  0.35513063221E+02  0.43400745586E+02  0.00000000000E+00 0.  1.
         11    1    3    3    0    0  0.16953344174E+02 -0.44962841028E+01 -0.19869460663E+02  0.26503356707E+02  0.51100000000E-03 0. -1.
        -11    1    3    3    0    0  0.15918561366E+01 -0.38943223116E+00  0.12708443701E+01  0.20738151066E+01  0.51100000000E-03 0.  1.
         12    1    3    3    0    0  0.23091738478E+01 -0.88088861265E+01 -0.16914446928E+02  0.19210082600E+02  0.00000000000E+00 0. -1.
</event>
<event>
 7    1  0.2294216E-010  0.4778727E+02  0.7816164E-02  0.1312668E+00
        -11   -1    0    0    0    0  0.00000000000E+00  0.00000000000E+00  0.45593999997E+02  0.45594000000E+02  0.51100000000E-03 0.  1.
         11   -1    0    0    0    0 -0.00000000000E+00 -0.00000000000E+00 -0.45593999997E+02  0.45594000000E+02  0.51100000000E-03 0. -1.
    9900012    2    1    2    0    0 -0.40607772918E+01 -0.37694324627E+02 -0.21125134415E+02  0.47787270451E+02  0.19999997294E+02 0.  0.
        -12    1    1    2    0    0  0.40607772918E+01  0.37694324627E+02  0.21125134415E+02  0.43400729549E+02  0.00000000000E+00 0.  1.
         11    1    3    3    0    0 -0.29970039592E+01 -0.37646358543E+02 -0.21778196607E+02  0.43594956039E+02  0.51100000000E-03 0. -1.
        -11    1    3    3    0    0  0.90051941334E+00  0.24953772747E+00 -0.11690119564E+01  0.14965939685E+01  0.51100000000E-03 0.  1.
         12    1    3    3    0    0 -0.19642927459E+01 -0.29750381169E+00  0.18220741480E+01  0.26957204437E+01  0.00000000000E+00 0. -1.
</event>
<event>
 7    1  0.2294216E-010  0.4778727E+02  0.7816164E-02  0.1312668E+00
        -11   -1    0    0    0    0  0.00000000000E+00  0.00000000000E+00  0.45593999997E+02  0.45594000000E+02  0.51100000000E-03 0.  1.
         11   -1    0    0    0    0 -0.00000000000E+00 -0.00000000000E+00 -0.45593999997E+02  0.45594000000E+02  0.51100000000E-03 0. -1.
    9900012    2    1    2    0    0  0.14686959359E+02 -0.18965092750E+01 -0.40796077223E+02  0.47787269137E+02  0.19999991302E+02 0.  0.
        -12    1    1    2    0    0 -0.14686959359E+02  0.18965092750E+01  0.40796077223E+02  0.43400730863E+02  0.00000000000E+00 0.  1.
         11    1    3    3    0    0  0.51856825790E+01 -0.71501192320E+01 -0.11545293278E+02  0.14536481899E+02  0.51100000000E-03 0. -1.
        -11    1    3    3    0    0  0.16752703518E+01  0.13452472044E+01  0.52907204597E+00  0.22127219174E+01  0.51100000000E-03 0.  1.
         12    1    3    3    0    0  0.78260064285E+01  0.39083627527E+01 -0.29779855991E+02  0.31038065321E+02  0.00000000000E+00 0. -1.
</event>
<event>
 7    1  0.2294216E-010  0.4778727E+02  0.7816164E-02  0.1312668E+00
        -11   -1    0    0    0    0  0.00000000000E+00  0.00000000000E+00  0.45593999997E+02  0.45594000000E+02  0.51100000000E-03 0.  1.
         11   -1    0    0    0    0 -0.00000000000E+00 -0.00000000000E+00 -0.45593999997E+02  0.45594000000E+02  0.51100000000E-03 0. -1.
    9900012    2    1    2    0    0  0.41332280075E+02 -0.61120965803E+01 -0.11743452146E+02  0.47787265339E+02  0.19999973986E+02 0.  0.
        -12    1    1    2    0    0 -0.41332280075E+02  0.61120965803E+01  0.11743452146E+02  0.43400734661E+02  0.00000000000E+00 0.  1.
         11    1    3    3    0    0  0.11281397741E+02 -0.65303067844E+01 -0.74949771907E+01  0.15036273642E+02  0.51100000000E-03 0. -1.
        -11    1    3    3    0    0  0.48810792549E+01 -0.20614122234E+01  0.34391225693E+01  0.63167966055E+01  0.51100000000E-03 0.  1.
         12    1    3    3    0    0  0.25169803079E+02  0.24796224275E+01 -0.76875975242E+01  0.26434195091E+02  0.00000000000E+00 0. -1.
</event>
<event>
 7    1  0.2294216E-010  0.4778727E+02  0.7816164E-02  0.1312668E+00
        -11   -1    0    0    0    0  0.00000000000E+00  0.00000000000E+00  0.45593999997E+02  0.45594000000E+02  0.51100000000E-03 0.  1.
         11   -1    0    0    0    0 -0.00000000000E+00 -0.00000000000E+00 -0.45593999997E+02  0.45594000000E+02  0.51100000000E-03 0. -1.
    9900012    2    1    2    0    0  0.68408425823E+01  0.37909475013E+02 -0.19992444576E+02  0.47787271169E+02  0.20000000566E+02 0.  0.
        -12    1    1    2    0    0 -0.68408425823E+01 -0.37909475013E+02  0.19992444576E+02  0.43400728831E+02  0.00000000000E+00 0.  1.
         11    1    3    3    0    0 -0.50016134728E+00  0.11812621298E+02 -0.76698328953E+01  0.14093066388E+02  0.51100000000E-03 0. -1.
        -11    1    3    3    0    0 -0.70596106767E-01  0.16732952121E+02 -0.13762328851E+02  0.21665603296E+02  0.51100000000E-03 0.  1.
        -12    1    3    3    0    0  0.74116000363E+01  0.93639015937E+01  0.14397171710E+01  0.12028601485E+02  0.00000000000E+00 0.  1.
</event>
<event>
 7    1  0.2294216E-010  0.4778727E+02  0.7816164E-02  0.1312668E+00
        -11   -1    0    0    0    0  0.00000000000E+00  0.00000000000E+00  0.45593999997E+02  0.45594000000E+02  0.51100000000E-03 0.  1.
         11   -1    0    0    0    0 -0.00000000000E+00 -0.00000000000E+00 -0.45593999997E+02  0.45594000000E+02  0.51100000000E-03 0. -1.
    9900012    2    1    2    0    0  0.22724822096E+02  0.18249606096E+02 -0.32158320334E+02  0.47787271565E+02  0.20000002375E+02 0.  0.
        -12    1    1    2    0    0 -0.22724822096E+02 -0.18249606096E+02  0.32158320334E+02  0.43400728435E+02  0.00000000000E+00 0.  1.
         11    1    3    3    0    0  0.52530190443E+01 -0.86669813103E+00 -0.12755342627E+02  0.13821871816E+02  0.51100000000E-03 0.  1.
        -11    1    3    3    0    0  0.79940200736E+01  0.20347728994E+01 -0.70623406686E+01  0.10859158055E+02  0.51100000000E-03 0. -1.
         12    1    3    3    0    0  0.94777829785E+01  0.17081531327E+02 -0.12340637039E+02  0.23106241694E+02  0.00000000000E+00 0. -1.
</event>
<event>
 7    1  0.2294216E-010  0.4778728E+02  0.7816164E-02  0.1312668E+00
        -11   -1    0    0    0    0  0.00000000000E+00  0.00000000000E+00  0.45593999997E+02  0.45594000000E+02  0.51100000000E-03 0.  1.
         11   -1    0    0    0    0 -0.00000000000E+00 -0.00000000000E+00 -0.45593999997E+02  0.45594000000E+02  0.51100000000E-03 0. -1.
    9900012    2    1    2    0    0  0.35293301998E+02  0.16899826993E+02 -0.18772362692E+02  0.47787275128E+02  0.20000018621E+02 0.  0.
        -12    1    1    2    0    0 -0.35293301998E+02 -0.16899826993E+02  0.18772362692E+02  0.43400724872E+02  0.00000000000E+00 0.  1.
         11    1    3    3    0    0  0.10237782172E+02  0.71468249646E+01 -0.13157684049E+02  0.18138741430E+02  0.51100000000E-03 0. -1.
        -11    1    3    3    0    0  0.26191711389E+01 -0.10344613661E+01  0.21806261146E+01  0.35616426387E+01  0.51100000000E-03 0.  1.
         12    1    3    3    0    0  0.22436348687E+02  0.10787463394E+02 -0.77953047582E+01  0.26086891060E+02  0.00000000000E+00 0. -1.
</event>
<event>
 7    1  0.2294216E-010  0.4778727E+02  0.7816164E-02  0.1312668E+00
        -11   -1    0    0    0    0  0.00000000000E+00  0.00000000000E+00  0.45593999997E+02  0.45594000000E+02  0.51100000000E-03 0.  1.
         11   -1    0    0    0    0 -0.00000000000E+00 -0.00000000000E+00 -0.45593999997E+02  0.45594000000E+02  0.51100000000E-03 0. -1.
    9900012    2    1    2    0    0  0.46332862778E+01  0.22133970297E+02 -0.37043803647E+02  0.47787269920E+02  0.19999994875E+02 0.  0.
        -12    1    1    2    0    0 -0.46332862778E+01 -0.22133970297E+02  0.37043803647E+02  0.43400730080E+02  0.00000000000E+00 0.  1.
         11    1    3    3    0    0 -0.25939159497E+01  0.75824595122E+01 -0.10593174907E+02  0.13282975836E+02  0.51100000000E-03 0. -1.
        -11    1    3    3    0    0 -0.19503494242E+01 -0.21998558914E+01 -0.24238158013E+01  0.38102640485E+01  0.51100000000E-03 0.  1.
         12    1    3    3    0    0  0.91775516517E+01  0.16751366676E+02 -0.24026812939E+02  0.30694030036E+02  0.00000000000E+00 0. -1.
</event>
<event>
 7    1  0.2294216E-010  0.4778727E+02  0.7816164E-02  0.1312668E+00
        -11   -1    0    0    0    0  0.00000000000E+00  0.00000000000E+00  0.45593999997E+02  0.45594000000E+02  0.51100000000E-03 0. -1.
         11   -1    0    0    0    0 -0.00000000000E+00 -0.00000000000E+00 -0.45593999997E+02  0.45594000000E+02  0.51100000000E-03 0.  1.
    9900012    2    1    2    0    0 -0.30551779619E+02 -0.12729231746E+02  0.28074517722E+02  0.47787272770E+02  0.20000007869E+02 0.  0.
        -12    1    1    2    0    0  0.30551779619E+02  0.12729231746E+02 -0.28074517722E+02  0.43400727230E+02  0.00000000000E+00 0.  1.
         11    1    3    3    0    0 -0.29117005292E+01 -0.99208223757E+00 -0.62698344110E+00  0.31393208874E+01  0.51100000000E-03 0. -1.
        -11    1    3    3    0    0  0.20559029399E+01 -0.20013828498E+01  0.33205376128E+01  0.43884211864E+01  0.51100000000E-03 0.  1.
         12    1    3    3    0    0 -0.29695982029E+02 -0.97357666591E+01  0.25380963551E+02  0.40259530696E+02  0.00000000000E+00 0. -1.
</event>
<event>
 7    1  0.2294216E-010  0.4778725E+02  0.7816164E-02  0.1312668E+00
        -11   -1    0    0    0    0  0.00000000000E+00  0.00000000000E+00  0.45593999997E+02  0.45594000000E+02  0.51100000000E-03 0. -1.
         11   -1    0    0    0    0 -0.00000000000E+00 -0.00000000000E+00 -0.45593999997E+02  0.45594000000E+02  0.51100000000E-03 0.  1.
    9900012    2    1    2    0    0 -0.10658111907E+02 -0.28724390713E+02  0.30739857253E+02  0.47787253518E+02  0.19999920091E+02 0.  0.
        -12    1    1    2    0    0  0.10658111907E+02  0.28724390713E+02 -0.30739857253E+02  0.43400746482E+02  0.00000000000E+00 0.  1.
         11    1    3    3    0    0 -0.44649833063E+01  0.14924861685E+01  0.31634555250E+01  0.56719522220E+01  0.51100000000E-03 0.  1.
        -11    1    3    3    0    0 -0.24239268417E+01 -0.99550185700E+01  0.45439015478E+01  0.11208249533E+02  0.51100000000E-03 0. -1.
         12    1    3    3    0    0 -0.37692017590E+01 -0.20261858312E+02  0.23032500180E+02  0.30907051763E+02  0.00000000000E+00 0. -1.
</event>
<event>
 7    1  0.2294216E-010  0.4778727E+02  0.7816164E-02  0.1312668E+00
        -11   -1    0    0    0    0  0.00000000000E+00  0.00000000000E+00  0.45593999997E+02  0.45594000000E+02  0.51100000000E-03 0.  1.
         11   -1    0    0    0    0 -0.00000000000E+00 -0.00000000000E+00 -0.45593999997E+02  0.45594000000E+02  0.51100000000E-03 0. -1.
    9900012    2    1    2    0    0 -0.12048983258E+02  0.37352184825E+02 -0.18527261941E+02  0.47787272543E+02  0.20000006832E+02 0.  0.
        -12    1    1    2    0    0  0.12048983258E+02 -0.37352184825E+02  0.18527261941E+02  0.43400727457E+02  0.00000000000E+00 0.  1.
         11    1    3    3    0    0 -0.89268532963E+01  0.64221260621E+01 -0.10650064506E+02  0.15308699722E+02  0.51100000000E-03 0. -1.
        -11    1    3    3    0    0  0.13504833849E+01  0.87794921886E+01 -0.28473509637E+01  0.93279524138E+01  0.51100000000E-03 0.  1.
         12    1    3    3    0    0 -0.44726133467E+01  0.22150566575E+02 -0.50298464718E+01  0.23150620407E+02  0.00000000000E+00 0. -1.
</event>
<event>
 7    1  0.2294216E-010  0.4778727E+02  0.7816164E-02  0.1312668E+00
        -11   -1    0    0    0    0  0.00000000000E+00  0.00000000000E+00  0.45593999997E+02  0.45594000000E+02  0.51100000000E-03 0.  1.
         11   -1    0    0    0    0 -0.00000000000E+00 -0.00000000000E+00 -0.45593999997E+02  0.45594000000E+02  0.51100000000E-03 0. -1.
    9900012    2    1    2    0    0 -0.33903954913E+02  0.24567036472E+02  0.11428287021E+02  0.47787272079E+02  0.20000004719E+02 0.  0.
        -12    1    1    2    0    0  0.33903954913E+02 -0.24567036472E+02 -0.11428287021E+02  0.43400727921E+02  0.00000000000E+00 0.  1.
         11    1    3    3    0    0 -0.36939265140E+01  0.31855289624E+00  0.39662258043E+01  0.54293200707E+01  0.51100000000E-03 0.  1.
        -11    1    3    3    0    0 -0.17757782356E+02  0.60428051755E+01  0.77587947529E+01  0.20299094188E+02  0.51100000000E-03 0. -1.
         12    1    3    3    0    0 -0.12452246044E+02  0.18205678400E+02 -0.29673353639E+00  0.22058857820E+02  0.00000000000E+00 0. -1.
</event>
<event>
 7    1  0.2294216E-010  0.4778727E+02  0.7816164E-02  0.1312668E+00
        -11   -1    0    0    0    0  0.00000000000E+00  0.00000000000E+00  0.45593999997E+02  0.45594000000E+02  0.51100000000E-03 0.  1.
         11   -1    0    0    0    0 -0.00000000000E+00 -0.00000000000E+00 -0.45593999997E+02  0.45594000000E+02  0.51100000000E-03 0. -1.
    9900012    2    1    2    0    0 -0.21372901496E+02  0.36663107549E+02 -0.90905971247E+01  0.47787270403E+02  0.19999997073E+02 0.  0.
        -12    1    1    2    0    0  0.21372901496E+02 -0.36663107549E+02  0.90905971247E+01  0.43400729597E+02  0.00000000000E+00 0.  1.
         11    1    3    3    0    0 -0.47537366337E+01  0.16345667151E+02 -0.69426583628E+01  0.18384214750E+02  0.51100000000E-03 0. -1.
        -11    1    3    3    0    0 -0.12670515256E+01  0.11382756655E+02 -0.20785948709E+01  0.11640151440E+02  0.51100000000E-03 0.  1.
         12    1    3    3    0    0 -0.15352113336E+02  0.89346837432E+01 -0.69343891040E-01  0.17762904212E+02  0.00000000000E+00 0. -1.
</event>
<event>
 7    1  0.2294216E-010  0.4778727E+02  0.7816164E-02  0.1312668E+00
        -11   -1    0    0    0    0  0.00000000000E+00  0.00000000000E+00  0.45593999997E+02  0.45594000000E+02  0.51100000000E-03 0.  1.
         11   -1    0    0    0    0 -0.00000000000E+00 -0.00000000000E+00 -0.45593999997E+02  0.45594000000E+02  0.51100000000E-03 0. -1.
    9900012    2    1    2    0    0 -0.22601949668E+01 -0.30647567174E+02 -0.30647049656E+02  0.47787268352E+02  0.19999987724E+02 0.  0.
        -12    1    1    2    0    0  0.22601949668E+01  0.30647567174E+02  0.30647049656E+02  0.43400731648E+02  0.00000000000E+00 0.  1.
         11    1    3    3    0    0 -0.40500960859E+01 -0.21818304987E+01 -0.13647297375E+02  0.14401818932E+02  0.51100000000E-03 0. -1.
        -11    1    3    3    0    0 -0.20161092157E+00 -0.11451339195E+02 -0.51618561011E+01  0.12562586317E+02  0.51100000000E-03 0.  1.
         12    1    3    3    0    0  0.19915120406E+01 -0.17014397480E+02 -0.11837896180E+02  0.20822863103E+02  0.00000000000E+00 0. -1.
</event>
<event>
 7    1  0.2294216E-010  0.4778728E+02  0.7816164E-02  0.1312668E+00
        -11   -1    0    0    0    0  0.00000000000E+00  0.00000000000E+00  0.45593999997E+02  0.45594000000E+02  0.51100000000E-03 0. -1.
         11   -1    0    0    0    0 -0.00000000000E+00 -0.00000000000E+00 -0.45593999997E+02  0.45594000000E+02  0.51100000000E-03 0.  1.
    9900012    2    1    2    0    0 -0.27929330983E+02 -0.33220096057E+02 -0.24192842076E-01  0.47787275392E+02  0.20000019821E+02 0.  0.
        -12    1    1    2    0    0  0.27929330983E+02  0.33220096057E+02  0.24192842076E-01  0.43400724608E+02  0.00000000000E+00 0.  1.
         11    1    3    3    0    0 -0.22753552846E+02 -0.17509530035E+02 -0.22842899790E+01  0.28801489373E+02  0.51100000000E-03 0. -1.
        -11    1    3    3    0    0 -0.65571319921E+01 -0.83765819535E+01 -0.13004194887E+01  0.10717005006E+02  0.51100000000E-03 0.  1.
        -12    1    3    3    0    0  0.13813538543E+01 -0.73339840692E+01  0.35605166256E+01  0.82687810130E+01  0.00000000000E+00 0.  1.
</event>
<event>
 7    1  0.2294216E-010  0.4778725E+02  0.7816164E-02  0.1312668E+00
        -11   -1    0    0    0    0  0.00000000000E+00  0.00000000000E+00  0.45593999997E+02  0.45594000000E+02  0.51100000000E-03 0.  1.
         11   -1    0    0    0    0 -0.00000000000E+00 -0.00000000000E+00 -0.45593999997E+02  0.45594000000E+02  0.51100000000E-03 0. -1.
    9900012    2    1    2    0    0  0.24859370789E+02  0.35099694628E+02 -0.58007302962E+01  0.47787247115E+02  0.19999890898E+02 0.  0.
        -12    1    1    2    0    0 -0.24859370789E+02 -0.35099694628E+02  0.58007302962E+01  0.43400752885E+02  0.00000000000E+00 0.  1.
         11    1    3    3    0    0  0.16283021680E+02  0.79973649426E+01  0.17495384845E+01  0.18225134464E+02  0.51100000000E-03 0. -1.
        -11    1    3    3    0    0  0.17708332836E+01  0.95371107049E+01 -0.33472549106E+01  0.10261405694E+02  0.51100000000E-03 0.  1.
         12    1    3    3    0    0  0.68055158248E+01  0.17565218980E+02 -0.42030138701E+01  0.19300706958E+02  0.00000000000E+00 0. -1.
</event>
<event>
 7    1  0.2294216E-010  0.4778727E+02  0.7816164E-02  0.1312668E+00
        -11   -1    0    0    0    0  0.00000000000E+00  0.00000000000E+00  0.45593999997E+02  0.45594000000E+02  0.51100000000E-03 0. -1.
         11   -1    0    0    0    0 -0.00000000000E+00 -0.00000000000E+00 -0.45593999997E+02  0.45594000000E+02  0.51100000000E-03 0.  1.
    9900012    2    1    2    0    0 -0.77080079679E+01 -0.42151968776E+02  0.68863549906E+01  0.47787265633E+02  0.19999975328E+02 0.  0.
        -12    1    1    2    0    0  0.77080079679E+01  0.42151968776E+02 -0.68863549906E+01  0.43400734367E+02  0.00000000000E+00 0.  1.
         11    1    3    3    0    0  0.15247960594E+01 -0.12166677988E+02  0.38803039246E+01  0.12861174717E+02  0.51100000000E-03 0. -1.
        -11    1    3    3    0    0 -0.98459404786E+00 -0.22560603922E+02 -0.21595018244E+01  0.22685099143E+02  0.51100000000E-03 0.  1.
         12    1    3    3    0    0 -0.82482099794E+01 -0.74246868661E+01  0.51655528904E+01  0.12240991773E+02  0.00000000000E+00 0. -1.
</event>
<event>
 7    1  0.2294216E-010  0.4778733E+02  0.7816164E-02  0.1312667E+00
        -11   -1    0    0    0    0  0.00000000000E+00  0.00000000000E+00  0.45593999997E+02  0.45594000000E+02  0.51100000000E-03 0. -1.
         11   -1    0    0    0    0 -0.00000000000E+00 -0.00000000000E+00 -0.45593999997E+02  0.45594000000E+02  0.51100000000E-03 0.  1.
    9900012    2    1    2    0    0  0.26432841103E+02 -0.33484259413E+02  0.79829262062E+01  0.47787333783E+02  0.20000286049E+02 0.  0.
        -12    1    1    2    0    0 -0.26432841103E+02  0.33484259413E+02 -0.79829262062E+01  0.43400666217E+02  0.00000000000E+00 0.  1.
         11    1    3    3    0    0  0.86975351820E+01 -0.22762310710E+02  0.91411671804E+01  0.26025580585E+02  0.51100000000E-03 0. -1.
        -11    1    3    3    0    0  0.48115131683E+01 -0.36370830509E+01 -0.32892802362E+01  0.68701089382E+01  0.51100000000E-03 0.  1.
         12    1    3    3    0    0  0.12923792753E+02 -0.70848656521E+01  0.21310392620E+01  0.14891644260E+02  0.00000000000E+00 0. -1.
</event>
<event>
 7    1  0.2294216E-010  0.4778727E+02  0.7816164E-02  0.1312668E+00
        -11   -1    0    0    0    0  0.00000000000E+00  0.00000000000E+00  0.45593999997E+02  0.45594000000E+02  0.51100000000E-03 0. -1.
         11   -1    0    0    0    0 -0.00000000000E+00 -0.00000000000E+00 -0.45593999997E+02  0.45594000000E+02  0.51100000000E-03 0.  1.
    9900012    2    1    2    0    0 -0.41535464594E+02  0.12306063272E+02 -0.26437756212E+01  0.47787267727E+02  0.19999984873E+02 0.  0.
        -12    1    1    2    0    0  0.41535464594E+02 -0.12306063272E+02  0.26437756212E+01  0.43400732273E+02  0.00000000000E+00 0.  1.
         11    1    3    3    0    0 -0.11533778550E+01  0.24834805359E+01 -0.16114153348E+01  0.31772024945E+01  0.51100000000E-03 0. -1.
        -11    1    3    3    0    0 -0.21960180617E+01  0.28210836191E+01 -0.43678744481E+01  0.56444074595E+01  0.51100000000E-03 0.  1.
        -12    1    3    3    0    0 -0.38186068678E+02  0.70014991166E+01  0.33355141617E+01  0.38965657773E+02  0.00000000000E+00 0.  1.
</event>
<event>
 7    1  0.2294216E-010  0.4778728E+02  0.7816164E-02  0.1312668E+00
        -11   -1    0    0    0    0  0.00000000000E+00  0.00000000000E+00  0.45593999997E+02  0.45594000000E+02  0.51100000000E-03 0.  1.
         11   -1    0    0    0    0 -0.00000000000E+00 -0.00000000000E+00 -0.45593999997E+02  0.45594000000E+02  0.51100000000E-03 0. -1.
    9900012    2    1    2    0    0  0.42652555906E+01 -0.20962324934E+02 -0.37762564420E+02  0.47787277155E+02  0.20000027860E+02 0.  0.
        -12    1    1    2    0    0 -0.42652555906E+01  0.20962324934E+02  0.37762564420E+02  0.43400722845E+02  0.00000000000E+00 0.  1.
         11    1    3    3    0    0 -0.34298141714E+00 -0.87002492614E+01 -0.19673447344E+02  0.21514100124E+02  0.51100000000E-03 0. -1.
        -11    1    3    3    0    0 -0.44443415190E+01 -0.15860674499E+01 -0.68699316767E+01  0.83344911660E+01  0.51100000000E-03 0.  1.
         12    1    3    3    0    0  0.90525785267E+01 -0.10676008222E+02 -0.11219185400E+02  0.17938685865E+02  0.00000000000E+00 0. -1.
</event>
<event>
 7    1  0.2294216E-010  0.4778727E+02  0.7816164E-02  0.1312668E+00
        -11   -1    0    0    0    0  0.00000000000E+00  0.00000000000E+00  0.45593999997E+02  0.45594000000E+02  0.51100000000E-03 0.  1.
         11   -1    0    0    0    0 -0.00000000000E+00 -0.00000000000E+00 -0.45593999997E+02  0.45594000000E+02  0.51100000000E-03 0. -1.
    9900012    2    1    2    0    0 -0.36509211394E+02  0.23347147661E+02 -0.23688843392E+01  0.47787269205E+02  0.19999991614E+02 0.  0.
        -12    1    1    2    0    0  0.36509211394E+02 -0.23347147661E+02  0.23688843392E+01  0.43400730795E+02  0.00000000000E+00 0.  1.
         11    1    3    3    0    0 -0.13386580022E+02  0.15587250590E+02 -0.74850924108E+00  0.20560232781E+02  0.51100000000E-03 0. -1.
        -11    1    3    3    0    0 -0.36534191530E+01  0.40367064853E+01 -0.46685517071E+01  0.71720182696E+01  0.51100000000E-03 0.  1.
        -12    1    3    3    0    0 -0.19469212219E+02  0.37231905857E+01  0.30481766089E+01  0.20055018155E+02  0.00000000000E+00 0.  1.
</event>
<event>
 7    1  0.2294216E-010  0.4778729E+02  0.7816164E-02  0.1312668E+00
        -11   -1    0    0    0    0  0.00000000000E+00  0.00000000000E+00  0.45593999997E+02  0.45594000000E+02  0.51100000000E-03 0. -1.
         11   -1    0    0    0    0 -0.00000000000E+00 -0.00000000000E+00 -0.45593999997E+02  0.45594000000E+02  0.51100000000E-03 0.  1.
    9900012    2    1    2    0    0  0.96924783465E+01  0.26047033313E+01  0.42224322577E+02  0.47787285339E+02  0.20000065175E+02 0.  0.
        -12    1    1    2    0    0 -0.96924783465E+01 -0.26047033313E+01 -0.42224322577E+02  0.43400714661E+02  0.00000000000E+00 0.  1.
         11    1    3    3    0    0 -0.42549249228E+00  0.49043709343E+01  0.13669323804E+02  0.14528740883E+02  0.51100000000E-03 0. -1.
        -11    1    3    3    0    0  0.86658186667E+01  0.42664948160E+01  0.12100835778E+02  0.15483204383E+02  0.51100000000E-03 0.  1.
         12    1    3    3    0    0  0.14521521721E+01 -0.65661624190E+01  0.16454162995E+02  0.17775340073E+02  0.00000000000E+00 0. -1.
</event>
<event>
 7    1  0.2294216E-010  0.4778727E+02  0.7816164E-02  0.1312668E+00
        -11   -1    0    0    0    0  0.00000000000E+00  0.00000000000E+00  0.45593999997E+02  0.45594000000E+02  0.51100000000E-03 0.  1.
         11   -1    0    0    0    0 -0.00000000000E+00 -0.00000000000E+00 -0.45593999997E+02  0.45594000000E+02  0.51100000000E-03 0. -1.
    9900012    2    1    2    0    0 -0.43061983646E+02 -0.90465075266E+00 -0.53357653212E+01  0.47787271664E+02  0.20000002826E+02 0.  0.
        -12    1    1    2    0    0  0.43061983646E+02  0.90465075266E+00  0.53357653212E+01  0.43400728336E+02  0.00000000000E+00 0.  1.
         11    1    3    3    0    0 -0.18977278150E+02 -0.78257207006E+01 -0.35695813403E+01  0.20835568187E+02  0.51100000000E-03 0. -1.
        -11    1    3    3    0    0  0.82611411310E+00  0.30109203165E+00  0.60518710703E+00  0.10674139942E+01  0.51100000000E-03 0.  1.
        -12    1    3    3    0    0 -0.24910819609E+02  0.66199779163E+01 -0.23713710880E+01  0.25884289483E+02  0.00000000000E+00 0.  1.
</event>
<event>
 7    1  0.2294216E-010  0.4778727E+02  0.7816164E-02  0.1312668E+00
        -11   -1    0    0    0    0  0.00000000000E+00  0.00000000000E+00  0.45593999997E+02  0.45594000000E+02  0.51100000000E-03 0.  1.
         11   -1    0    0    0    0 -0.00000000000E+00 -0.00000000000E+00 -0.45593999997E+02  0.45594000000E+02  0.51100000000E-03 0. -1.
    9900012    2    1    2    0    0  0.29493390895E+02  0.85436806397E+01 -0.30671959091E+02  0.47787266598E+02  0.19999979726E+02 0.  0.
        -12    1    1    2    0    0 -0.29493390895E+02 -0.85436806397E+01  0.30671959091E+02  0.43400733402E+02  0.00000000000E+00 0.  1.
         11    1    3    3    0    0  0.54517856108E+01  0.76497624540E+00 -0.11474526150E+00  0.55063891743E+01  0.51100000000E-03 0. -1.
        -11    1    3    3    0    0  0.15457087878E+02 -0.25760700745E+01 -0.14681436215E+02  0.21473292069E+02  0.51100000000E-03 0.  1.
        -12    1    3    3    0    0  0.85845174063E+01  0.10354774469E+02 -0.15875777615E+02  0.20807585354E+02  0.00000000000E+00 0.  1.
</event>
<event>
 7    1  0.2294216E-010  0.4778728E+02  0.7816164E-02  0.1312668E+00
        -11   -1    0    0    0    0  0.00000000000E+00  0.00000000000E+00  0.45593999997E+02  0.45594000000E+02  0.51100000000E-03 0. -1.
         11   -1    0    0    0    0 -0.00000000000E+00 -0.00000000000E+00 -0.45593999997E+02  0.45594000000E+02  0.51100000000E-03 0.  1.
    9900012    2    1    2    0    0  0.16021870680E+02 -0.33022416385E+02  0.23161223327E+02  0.47787278923E+02  0.20000035924E+02 0.  0.
        -12    1    1    2    0    0 -0.16021870680E+02  0.33022416385E+02 -0.23161223327E+02  0.43400721077E+02  0.00000000000E+00 0.  1.
         11    1    3    3    0    0  0.13154995033E+02 -0.14403625479E+02  0.47255649599E+01  0.20071105742E+02  0.51100000000E-03 0. -1.
        -11    1    3    3    0    0  0.57009717087E+00 -0.32198924372E+01 -0.38256520377E+00  0.32922749714E+01  0.51100000000E-03 0.  1.
        -12    1    3    3    0    0  0.22967784760E+01 -0.15398898468E+02  0.18818223571E+02  0.24423898210E+02  0.00000000000E+00 0.  1.
</event>
<event>
 7    1  0.2294216E-010  0.4778727E+02  0.7816164E-02  0.1312668E+00
        -11   -1    0    0    0    0  0.00000000000E+00  0.00000000000E+00  0.45593999997E+02  0.45594000000E+02  0.51100000000E-03 0.  1.
         11   -1    0    0    0    0 -0.00000000000E+00 -0.00000000000E+00 -0.45593999997E+02  0.45594000000E+02  0.51100000000E-03 0. -1.
    9900012    2    1    2    0    0 -0.31719231514E+02  0.27489100507E+02 -0.11039161967E+02  0.47787269690E+02  0.19999993825E+02 0.  0.
        -12    1    1    2    0    0  0.31719231514E+02 -0.27489100507E+02  0.11039161967E+02  0.43400730310E+02  0.00000000000E+00 0.  1.
         11    1    3    3    0    0 -0.28222876261E+01  0.48020614020E+01 -0.30828556454E+01  0.63662469592E+01  0.51100000000E-03 0. -1.
        -11    1    3    3    0    0 -0.27390913598E+02  0.15294618570E+02 -0.11058609428E+02  0.33263799357E+02  0.51100000000E-03 0.  1.
        -12    1    3    3    0    0 -0.15060302895E+01  0.73924205357E+01  0.31023031063E+01  0.81572233740E+01  0.00000000000E+00 0.  1.
</event>
<event>
 7    1  0.2294216E-010  0.4778727E+02  0.7816164E-02  0.1312668E+00
        -11   -1    0    0    0    0  0.00000000000E+00  0.00000000000E+00  0.45593999997E+02  0.45594000000E+02  0.51100000000E-03 0.  1.
         11   -1    0    0    0    0 -0.00000000000E+00 -0.00000000000E+00 -0.45593999997E+02  0.45594000000E+02  0.51100000000E-03 0. -1.
    9900012    2    1    2    0    0 -0.27332758195E+02 -0.31041604350E+02 -0.13151511508E+02  0.47787272746E+02  0.20000007758E+02 0.  0.
        -12    1    1    2    0    0  0.27332758195E+02  0.31041604350E+02  0.13151511508E+02  0.43400727254E+02  0.00000000000E+00 0.  1.
         11    1    3    3    0    0 -0.19234655379E+01  0.48090506096E+00  0.10348648892E+01  0.22365006044E+01  0.51100000000E-03 0. -1.
        -11    1    3    3    0    0 -0.29150535654E+01 -0.87919222539E+01  0.23401144102E+01  0.95536155418E+01  0.51100000000E-03 0.  1.
         12    1    3    3    0    0 -0.22494239092E+02 -0.22730587157E+02 -0.16526490808E+02  0.35997156600E+02  0.00000000000E+00 0. -1.
</event>
<event>
 7    1  0.2294216E-010  0.4778727E+02  0.7816164E-02  0.1312668E+00
        -11   -1    0    0    0    0  0.00000000000E+00  0.00000000000E+00  0.45593999997E+02  0.45594000000E+02  0.51100000000E-03 0. -1.
         11   -1    0    0    0    0 -0.00000000000E+00 -0.00000000000E+00 -0.45593999997E+02  0.45594000000E+02  0.51100000000E-03 0.  1.
    9900012    2    1    2    0    0  0.37109268108E+00  0.38972030662E+02  0.19096239904E+02  0.47787271179E+02  0.20000000613E+02 0.  0.
        -12    1    1    2    0    0 -0.37109268108E+00 -0.38972030662E+02 -0.19096239904E+02  0.43400728821E+02  0.00000000000E+00 0.  1.
         11    1    3    3    0    0  0.15305577028E+00  0.40289883816E+00  0.24265067607E+01  0.24644855169E+01  0.51100000000E-03 0. -1.
        -11    1    3    3    0    0 -0.54191350915E+00  0.81201756255E+01  0.12013474391E+02  0.14510495844E+02  0.51100000000E-03 0.  1.
         12    1    3    3    0    0  0.75995041995E+00  0.30448956199E+02  0.46562587523E+01  0.30812289818E+02  0.00000000000E+00 0. -1.
</event>
<event>
 7    1  0.2294216E-010  0.4778727E+02  0.7816164E-02  0.1312668E+00
        -11   -1    0    0    0    0  0.00000000000E+00  0.00000000000E+00  0.45593999997E+02  0.45594000000E+02  0.51100000000E-03 0.  1.
         11   -1    0    0    0    0 -0.00000000000E+00 -0.00000000000E+00 -0.45593999997E+02  0.45594000000E+02  0.51100000000E-03 0. -1.
    9900012    2    1    2    0    0 -0.54358073479E+01  0.28931326100E+02 -0.31891274906E+02  0.47787273664E+02  0.20000011942E+02 0.  0.
        -12    1    1    2    0    0  0.54358073479E+01 -0.28931326100E+02  0.31891274906E+02  0.43400726336E+02  0.00000000000E+00 0.  1.
         11    1    3    3    0    0 -0.11137157722E+01  0.44981802158E+01 -0.13378742437E+02  0.14158557043E+02  0.51100000000E-03 0. -1.
        -11    1    3    3    0    0 -0.31027329992E+01  0.22034631802E+02 -0.20521978263E+02  0.30270506154E+02  0.51100000000E-03 0.  1.
        -12    1    3    3    0    0 -0.12193585764E+01  0.23985140819E+01  0.20094457944E+01  0.33582104669E+01  0.00000000000E+00 0.  1.
</event>
<event>
 7    1  0.2294216E-010  0.4778733E+02  0.7816164E-02  0.1312668E+00
        -11   -1    0    0    0    0  0.00000000000E+00  0.00000000000E+00  0.45593999997E+02  0.45594000000E+02  0.51100000000E-03 0.  1.
         11   -1    0    0    0    0 -0.00000000000E+00 -0.00000000000E+00 -0.45593999997E+02  0.45594000000E+02  0.51100000000E-03 0. -1.
    9900012    2    1    2    0    0 -0.13551139351E+02  0.40421226193E+02 -0.81307798615E+01  0.47787326206E+02  0.20000251502E+02 0.  0.
        -12    1    1    2    0    0  0.13551139351E+02 -0.40421226193E+02  0.81307798615E+01  0.43400673794E+02  0.00000000000E+00 0.  1.
         11    1    3    3    0    0 -0.32983504933E+00  0.28600877273E+01  0.27644738788E+01  0.39913918694E+01  0.51100000000E-03 0. -1.
        -11    1    3    3    0    0 -0.52648806452E+01  0.36628321447E+01 -0.57201614488E+01  0.85939254587E+01  0.51100000000E-03 0.  1.
         12    1    3    3    0    0 -0.79564236566E+01  0.33898306321E+02 -0.51750922916E+01  0.35202008878E+02  0.00000000000E+00 0. -1.
</event>
<event>
 7    1  0.2294216E-010  0.4778727E+02  0.7816164E-02  0.1312668E+00
        -11   -1    0    0    0    0  0.00000000000E+00  0.00000000000E+00  0.45593999997E+02  0.45594000000E+02  0.51100000000E-03 0.  1.
         11   -1    0    0    0    0 -0.00000000000E+00 -0.00000000000E+00 -0.45593999997E+02  0.45594000000E+02  0.51100000000E-03 0. -1.
    9900012    2    1    2    0    0  0.37841010102E+02 -0.19873625924E+02  0.75312732390E+01  0.47787272707E+02  0.20000007582E+02 0.  0.
        -12    1    1    2    0    0 -0.37841010102E+02  0.19873625924E+02 -0.75312732390E+01  0.43400727293E+02  0.00000000000E+00 0.  1.
         11    1    3    3    0    0  0.32165463791E+02 -0.15374949324E+02  0.12331066724E+01  0.35672491922E+02  0.51100000000E-03 0. -1.
        -11    1    3    3    0    0  0.26959174524E+01 -0.37595760567E+01 -0.50233331667E+00  0.46534634476E+01  0.51100000000E-03 0.  1.
        -12    1    3    3    0    0  0.29796288587E+01 -0.73910054335E+00  0.68004998833E+01  0.74613173376E+01  0.00000000000E+00 0.  1.
</event>
<event>
 7    1  0.2294216E-010  0.4778727E+02  0.7816164E-02  0.1312668E+00
        -11   -1    0    0    0    0  0.00000000000E+00  0.00000000000E+00  0.45593999997E+02  0.45594000000E+02  0.51100000000E-03 0. -1.
         11   -1    0    0    0    0 -0.00000000000E+00 -0.00000000000E+00 -0.45593999997E+02  0.45594000000E+02  0.51100000000E-03 0.  1.
    9900012    2    1    2    0    0 -0.78416534821E+01 -0.41503146839E+02  0.99810068145E+01  0.47787271620E+02  0.20000002626E+02 0.  0.
        -12    1    1    2    0    0  0.78416534821E+01  0.41503146839E+02 -0.99810068145E+01  0.43400728380E+02  0.00000000000E+00 0.  1.
         11    1    3    3    0    0 -0.54112407540E+00  0.10096455491E+01 -0.10150018410E+01  0.15304993950E+01  0.51100000000E-03 0.  1.
        -11    1    3    3    0    0  0.40289820079E+00 -0.10688875931E+02  0.80388710887E+01  0.13380502393E+02  0.51100000000E-03 0. -1.
         12    1    3    3    0    0 -0.77034276075E+01 -0.31823916456E+02  0.29571375668E+01  0.32876269833E+02  0.00000000000E+00 0. -1.
</event>
<event>
 7    1  0.2294216E-010  0.4778727E+02  0.7816164E-02  0.1312668E+00
        -11   -1    0    0    0    0  0.00000000000E+00  0.00000000000E+00  0.45593999997E+02  0.45594000000E+02  0.51100000000E-03 0. -1.
         11   -1    0    0    0    0 -0.00000000000E+00 -0.00000000000E+00 -0.45593999997E+02  0.45594000000E+02  0.51100000000E-03 0.  1.
    9900012    2    1    2    0    0  0.13447156982E+02 -0.19223556770E+02  0.36513725817E+02  0.47787270296E+02  0.19999996590E+02 0.  0.
        -12    1    1    2    0    0 -0.13447156982E+02  0.19223556770E+02 -0.36513725817E+02  0.43400729704E+02  0.00000000000E+00 0.  1.
         11    1    3    3    0    0  0.26618525834E+01  0.15073565740E+01  0.65072779835E+01  0.71904276669E+01  0.51100000000E-03 0. -1.
        -11    1    3    3    0    0 -0.36357794366E+00 -0.23802423039E+01 -0.12209210131E+01  0.26997019701E+01  0.51100000000E-03 0.  1.
        -12    1    3    3    0    0  0.11148882342E+02 -0.18350671040E+02  0.31227368846E+02  0.37897140659E+02  0.00000000000E+00 0.  1.
</event>
<event>
 7    1  0.2294216E-010  0.4778728E+02  0.7816164E-02  0.1312668E+00
        -11   -1    0    0    0    0  0.00000000000E+00  0.00000000000E+00  0.45593999997E+02  0.45594000000E+02  0.51100000000E-03 0.  1.
         11   -1    0    0    0    0 -0.00000000000E+00 -0.00000000000E+00 -0.45593999997E+02  0.45594000000E+02  0.51100000000E-03 0. -1.
    9900012    2    1    2    0    0  0.77931593248E+01 -0.25393882268E+00 -0.42694550036E+02  0.47787280882E+02  0.20000044853E+02 0.  0.
        -12    1    1    2    0    0 -0.77931593248E+01  0.25393882268E+00  0.42694550036E+02  0.43400719118E+02  0.00000000000E+00 0.  1.
         11    1    3    3    0    0 -0.23885443342E+01 -0.16316638139E+01 -0.13221465665E+02  0.13534202061E+02  0.51100000000E-03 0. -1.
        -11    1    3    3    0    0 -0.32319689629E+01  0.23624238264E+01 -0.67574930572E+01  0.78543225291E+01  0.51100000000E-03 0.  1.
        -12    1    3    3    0    0  0.13413672622E+02 -0.98469883522E+00 -0.22715591314E+02  0.26398756292E+02  0.00000000000E+00 0.  1.
</event>
<event>
 7    1  0.2294216E-010  0.4778729E+02  0.7816164E-02  0.1312668E+00
        -11   -1    0    0    0    0  0.00000000000E+00  0.00000000000E+00  0.45593999997E+02  0.45594000000E+02  0.51100000000E-03 0.  1.
         11   -1    0    0    0    0 -0.00000000000E+00 -0.00000000000E+00 -0.45593999997E+02  0.45594000000E+02  0.51100000000E-03 0. -1.
    9900012    2    1    2    0    0 -0.55869998640E+01  0.88392249807E+01 -0.42122149796E+02  0.47787286075E+02  0.20000068530E+02 0.  0.
        -12    1    1    2    0    0  0.55869998640E+01 -0.88392249807E+01  0.42122149796E+02  0.43400713925E+02  0.00000000000E+00 0.  1.
         11    1    3    3    0    0 -0.65039586612E+01  0.89027271512E+01 -0.30583570052E+02  0.32510225874E+02  0.51100000000E-03 0. -1.
        -11    1    3    3    0    0 -0.36439399484E+01 -0.50529213059E+00 -0.10414449255E+01  0.38233789086E+01  0.51100000000E-03 0.  1.
        -12    1    3    3    0    0  0.45608987456E+01  0.44178996017E+00 -0.10497134819E+02  0.11453681292E+02  0.00000000000E+00 0.  1.
</event>
<event>
 7    1  0.2294216E-010  0.4778727E+02  0.7816164E-02  0.1312668E+00
        -11   -1    0    0    0    0  0.00000000000E+00  0.00000000000E+00  0.45593999997E+02  0.45594000000E+02  0.51100000000E-03 0.  1.
         11   -1    0    0    0    0 -0.00000000000E+00 -0.00000000000E+00 -0.45593999997E+02  0.45594000000E+02  0.51100000000E-03 0. -1.
    9900012    2    1    2    0    0  0.33065504414E+02 -0.12368418655E+02 -0.25245162844E+02  0.47787267181E+02  0.19999982386E+02 0.  0.
        -12    1    1    2    0    0 -0.33065504414E+02  0.12368418655E+02  0.25245162844E+02  0.43400732819E+02  0.00000000000E+00 0.  1.
         11    1    3    3    0    0  0.86160478467E+01 -0.28572760336E+01 -0.11738031343E+02  0.14838520374E+02  0.51100000000E-03 0. -1.
        -11    1    3    3    0    0  0.18928210479E+02 -0.12737119827E+02 -0.13586193131E+02  0.26553644147E+02  0.51100000000E-03 0.  1.
        -12    1    3    3    0    0  0.55212460882E+01  0.32259772050E+01  0.79061629552E-01  0.63951026602E+01  0.00000000000E+00 0.  1.
</event>
<event>
 7    1  0.2294216E-010  0.4778726E+02  0.7816164E-02  0.1312668E+00
        -11   -1    0    0    0    0  0.00000000000E+00  0.00000000000E+00  0.45593999997E+02  0.45594000000E+02  0.51100000000E-03 0.  1.
         11   -1    0    0    0    0 -0.00000000000E+00 -0.00000000000E+00 -0.45593999997E+02  0.45594000000E+02  0.51100000000E-03 0. -1.
    9900012    2    1    2    0    0  0.35958399434E+01 -0.64283908649E+01 -0.42771133620E+02  0.47787261007E+02  0.19999954233E+02 0.  0.
        -12    1    1    2    0    0 -0.35958399434E+01  0.64283908649E+01  0.42771133620E+02  0.43400738993E+02  0.00000000000E+00 0.  1.
         11    1    3    3    0    0 -0.32514080935E+00 -0.35255075139E+00  0.18927520242E+01  0.19525673008E+01  0.51100000000E-03 0.  1.
        -11    1    3    3    0    0  0.42884587329E+01 -0.10622990803E+01 -0.12024592817E+02  0.12810549961E+02  0.51100000000E-03 0. -1.
         12    1    3    3    0    0 -0.36747798022E+00 -0.50135410332E+01 -0.32639292828E+02  0.33024143744E+02  0.00000000000E+00 0. -1.
</event>
<event>
 7    1  0.2294216E-010  0.4778727E+02  0.7816164E-02  0.1312668E+00
        -11   -1    0    0    0    0  0.00000000000E+00  0.00000000000E+00  0.45593999997E+02  0.45594000000E+02  0.51100000000E-03 0. -1.
         11   -1    0    0    0    0 -0.00000000000E+00 -0.00000000000E+00 -0.45593999997E+02  0.45594000000E+02  0.51100000000E-03 0.  1.
    9900012    2    1    2    0    0  0.12547759023E+02  0.41145888234E+02  0.57613369776E+01  0.47787269835E+02  0.19999994485E+02 0.  0.
        -12    1    1    2    0    0 -0.12547759023E+02 -0.41145888234E+02 -0.57613369776E+01  0.43400730165E+02  0.00000000000E+00 0.  1.
         11    1    3    3    0    0 -0.92323642547E+00  0.11452339720E+02 -0.16397644225E+01  0.11605915655E+02  0.51100000000E-03 0. -1.
        -11    1    3    3    0    0  0.34128810925E+01  0.23166556863E+02  0.44996839600E+01  0.23845005143E+02  0.51100000000E-03 0.  1.
        -12    1    3    3    0    0  0.10058114356E+02  0.65269916511E+01  0.29014174400E+01  0.12336349038E+02  0.00000000000E+00 0.  1.
</event>
<event>
 7    1  0.2294216E-010  0.4778727E+02  0.7816164E-02  0.1312668E+00
        -11   -1    0    0    0    0  0.00000000000E+00  0.00000000000E+00  0.45593999997E+02  0.45594000000E+02  0.51100000000E-03 0. -1.
         11   -1    0    0    0    0 -0.00000000000E+00 -0.00000000000E+00 -0.45593999997E+02  0.45594000000E+02  0.51100000000E-03 0.  1.
    9900012    2    1    2    0    0 -0.28366393744E+02  0.27174039415E+02 -0.18453803677E+02  0.47787267491E+02  0.19999983798E+02 0.  0.
        -12    1    1    2    0    0  0.28366393744E+02 -0.27174039415E+02  0.18453803677E+02  0.43400732509E+02  0.00000000000E+00 0.  1.
         11    1    3    3    0    0 -0.94092755128E+01  0.85607287099E+01 -0.11235982790E+02  0.16972561717E+02  0.51100000000E-03 0. -1.
        -11    1    3    3    0    0 -0.91382936321E+01  0.36360859958E+00 -0.33096840817E+01  0.97259771079E+01  0.51100000000E-03 0.  1.
         12    1    3    3    0    0 -0.98188245988E+01  0.18249702106E+02 -0.39081368053E+01  0.21088728666E+02  0.00000000000E+00 0. -1.
</event>
<event>
 7    1  0.2294216E-010  0.4778727E+02  0.7816164E-02  0.1312668E+00
        -11   -1    0    0    0    0  0.00000000000E+00  0.00000000000E+00  0.45593999997E+02  0.45594000000E+02  0.51100000000E-03 0. -1.
         11   -1    0    0    0    0 -0.00000000000E+00 -0.00000000000E+00 -0.45593999997E+02  0.45594000000E+02  0.51100000000E-03 0.  1.
    9900012    2    1    2    0    0  0.64008972698E+01 -0.35630541712E+02  0.23939850100E+02  0.47787269460E+02  0.19999992777E+02 0.  0.
        -12    1    1    2    0    0 -0.64008972698E+01  0.35630541712E+02 -0.23939850100E+02  0.43400730540E+02  0.00000000000E+00 0.  1.
         11    1    3    3    0    0 -0.11296960178E+01 -0.44125777157E+01  0.32314419940E+01  0.55847356976E+01  0.51100000000E-03 0. -1.
        -11    1    3    3    0    0  0.36782544103E+01 -0.25891517235E+01 -0.25011290492E+01  0.51467376984E+01  0.51100000000E-03 0.  1.
         12    1    3    3    0    0  0.38523388772E+01 -0.28628812273E+02  0.23209537155E+02  0.37055796064E+02  0.00000000000E+00 0. -1.
</event>
<event>
 7    1  0.2294216E-010  0.4778727E+02  0.7816164E-02  0.1312668E+00
        -11   -1    0    0    0    0  0.00000000000E+00  0.00000000000E+00  0.45593999997E+02  0.45594000000E+02  0.51100000000E-03 0.  1.
         11   -1    0    0    0    0 -0.00000000000E+00 -0.00000000000E+00 -0.45593999997E+02  0.45594000000E+02  0.51100000000E-03 0. -1.
    9900012    2    1    2    0    0 -0.21762788363E+02  0.79336520967E+01 -0.36702342497E+02  0.47787265701E+02  0.19999975637E+02 0.  0.
        -12    1    1    2    0    0  0.21762788363E+02 -0.79336520967E+01  0.36702342497E+02  0.43400734299E+02  0.00000000000E+00 0.  1.
         11    1    3    3    0    0 -0.90303883855E+01 -0.48562221279E+01 -0.59640260324E+01  0.11861720555E+02  0.51100000000E-03 0. -1.
        -11    1    3    3    0    0 -0.51537479188E+01  0.49327449422E+01 -0.81069111451E+01  0.10798847107E+02  0.51100000000E-03 0.  1.
         12    1    3    3    0    0 -0.75786520585E+01  0.78571292824E+01 -0.22631405320E+02  0.25126698039E+02  0.00000000000E+00 0. -1.
</event>
<event>
 7    1  0.2294216E-010  0.4778727E+02  0.7816164E-02  0.1312668E+00
        -11   -1    0    0    0    0  0.00000000000E+00  0.00000000000E+00  0.45593999997E+02  0.45594000000E+02  0.51100000000E-03 0.  1.
         11   -1    0    0    0    0 -0.00000000000E+00 -0.00000000000E+00 -0.45593999997E+02  0.45594000000E+02  0.51100000000E-03 0. -1.
    9900012    2    1    2    0    0 -0.42266194578E+02 -0.72422742448E+01  0.66888872065E+01  0.47787274748E+02  0.20000016887E+02 0.  0.
        -12    1    1    2    0    0  0.42266194578E+02  0.72422742448E+01 -0.66888872065E+01  0.43400725252E+02  0.00000000000E+00 0.  1.
         11    1    3    3    0    0 -0.20590341695E+01 -0.17586265543E+01 -0.23378436737E+01  0.35774155996E+01  0.51100000000E-03 0. -1.
        -11    1    3    3    0    0 -0.62292940955E+01 -0.58364252620E+01 -0.14351751111E+01  0.86560783630E+01  0.51100000000E-03 0.  1.
         12    1    3    3    0    0 -0.33977866313E+02  0.35277757144E+00  0.10461905991E+02  0.35553780786E+02  0.00000000000E+00 0. -1.
</event>
<event>
 7    1  0.2294216E-010  0.4778727E+02  0.7816164E-02  0.1312668E+00
        -11   -1    0    0    0    0  0.00000000000E+00  0.00000000000E+00  0.45593999997E+02  0.45594000000E+02  0.51100000000E-03 0.  1.
         11   -1    0    0    0    0 -0.00000000000E+00 -0.00000000000E+00 -0.45593999997E+02  0.45594000000E+02  0.51100000000E-03 0. -1.
    9900012    2    1    2    0    0 -0.16110148393E+02  0.45472633417E+01 -0.40042586280E+02  0.47787271883E+02  0.20000003822E+02 0.  0.
        -12    1    1    2    0    0  0.16110148393E+02 -0.45472633417E+01  0.40042586280E+02  0.43400728117E+02  0.00000000000E+00 0.  1.
         11    1    3    3    0    0 -0.17152807546E+01  0.35187670260E+01 -0.10742769022E+01  0.40593078935E+01  0.51100000000E-03 0.  1.
        -11    1    3    3    0    0 -0.66532175324E+00  0.46325017565E+01 -0.16504373060E+02  0.17155088340E+02  0.51100000000E-03 0. -1.
         12    1    3    3    0    0 -0.13729545885E+02 -0.36040054408E+01 -0.22463936317E+02  0.26572875650E+02  0.00000000000E+00 0. -1.
</event>
<event>
 7    1  0.2294216E-010  0.4778726E+02  0.7816164E-02  0.1312668E+00
        -11   -1    0    0    0    0  0.00000000000E+00  0.00000000000E+00  0.45593999997E+02  0.45594000000E+02  0.51100000000E-03 0.  1.
         11   -1    0    0    0    0 -0.00000000000E+00 -0.00000000000E+00 -0.45593999997E+02  0.45594000000E+02  0.51100000000E-03 0. -1.
    9900012    2    1    2    0    0  0.77266019984E+01  0.26757138111E+02 -0.33286318241E+02  0.47787264979E+02  0.19999972347E+02 0.  0.
        -12    1    1    2    0    0 -0.77266019984E+01 -0.26757138111E+02  0.33286318241E+02  0.43400735021E+02  0.00000000000E+00 0.  1.
         11    1    3    3    0    0  0.62644908815E+01  0.75336138104E+01 -0.31559038525E+01  0.10293634559E+02  0.51100000000E-03 0.  1.
        -11    1    3    3    0    0  0.58770651886E+01  0.11550460840E+02 -0.13888638113E+02  0.18995981411E+02  0.51100000000E-03 0. -1.
        -12    1    3    3    0    0 -0.44149540717E+01  0.76730634601E+01 -0.16241776275E+02  0.18497649010E+02  0.00000000000E+00 0.  1.
</event>
<event>
 7    1  0.2294216E-010  0.4778727E+02  0.7816164E-02  0.1312668E+00
        -11   -1    0    0    0    0  0.00000000000E+00  0.00000000000E+00  0.45593999997E+02  0.45594000000E+02  0.51100000000E-03 0. -1.
         11   -1    0    0    0    0 -0.00000000000E+00 -0.00000000000E+00 -0.45593999997E+02  0.45594000000E+02  0.51100000000E-03 0.  1.
    9900012    2    1    2    0    0  0.10106147005E+02 -0.27940469385E+02  0.31635723396E+02  0.47787273836E+02  0.20000012730E+02 0.  0.
        -12    1    1    2    0    0 -0.10106147005E+02  0.27940469385E+02 -0.31635723396E+02  0.43400726164E+02  0.00000000000E+00 0.  1.
         11    1    3    3    0    0 -0.47887848946E+01 -0.83016597713E+01  0.52821045770E+01  0.10943063773E+02  0.51100000000E-03 0.  1.
        -11    1    3    3    0    0  0.37205111313E+01 -0.95488258424E+00  0.26889780727E+01  0.46887745909E+01  0.51100000000E-03 0. -1.
        -12    1    3    3    0    0  0.11174420768E+02 -0.18683927029E+02  0.23664640747E+02  0.32155435472E+02  0.00000000000E+00 0.  1.
</event>
<event>
 7    1  0.2294216E-010  0.4778727E+02  0.7816164E-02  0.1312668E+00
        -11   -1    0    0    0    0  0.00000000000E+00  0.00000000000E+00  0.45593999997E+02  0.45594000000E+02  0.51100000000E-03 0. -1.
         11   -1    0    0    0    0 -0.00000000000E+00 -0.00000000000E+00 -0.45593999997E+02  0.45594000000E+02  0.51100000000E-03 0.  1.
    9900012    2    1    2    0    0  0.10683805478E+02 -0.39707456433E+02  0.13885160551E+02  0.47787268677E+02  0.19999989205E+02 0.  0.
        -12    1    1    2    0    0 -0.10683805478E+02  0.39707456433E+02 -0.13885160551E+02  0.43400731323E+02  0.00000000000E+00 0.  1.
         11    1    3    3    0    0  0.16085976195E+01 -0.12936934512E+02  0.17103945087E+01  0.13148281656E+02  0.51100000000E-03 0. -1.
        -11    1    3    3    0    0 -0.40031009797E+01 -0.10841145203E+02  0.22920743466E+01  0.11781716846E+02  0.51100000000E-03 0.  1.
        -12    1    3    3    0    0  0.13078308838E+02 -0.15929376717E+02  0.98826916958E+01  0.22857270174E+02  0.00000000000E+00 0.  1.
</event>
<event>
 7    1  0.2294216E-010  0.4778727E+02  0.7816164E-02  0.1312668E+00
        -11   -1    0    0    0    0  0.00000000000E+00  0.00000000000E+00  0.45593999997E+02  0.45594000000E+02  0.51100000000E-03 0.  1.
         11   -1    0    0    0    0 -0.00000000000E+00 -0.00000000000E+00 -0.45593999997E+02  0.45594000000E+02  0.51100000000E-03 0. -1.
    9900012    2    1    2    0    0 -0.32892034928E+02  0.19833529935E+02 -0.20208126991E+02  0.47787271114E+02  0.20000000316E+02 0.  0.
        -12    1    1    2    0    0  0.32892034928E+02 -0.19833529935E+02  0.20208126991E+02  0.43400728886E+02  0.00000000000E+00 0.  1.
         11    1    3    3    0    0 -0.70044660897E+01  0.33883696898E+01 -0.83305409754E-01  0.77814223898E+01  0.51100000000E-03 0. -1.
        -11    1    3    3    0    0 -0.53329722477E+01  0.31868160057E+01  0.24905627724E+01  0.66932273556E+01  0.51100000000E-03 0.  1.
         12    1    3    3    0    0 -0.20554596591E+02  0.13258344240E+02 -0.22615384353E+02  0.33312621368E+02  0.00000000000E+00 0. -1.
</event>
<event>
 7    1  0.2294216E-010  0.4778727E+02  0.7816164E-02  0.1312668E+00
        -11   -1    0    0    0    0  0.00000000000E+00  0.00000000000E+00  0.45593999997E+02  0.45594000000E+02  0.51100000000E-03 0.  1.
         11   -1    0    0    0    0 -0.00000000000E+00 -0.00000000000E+00 -0.45593999997E+02  0.45594000000E+02  0.51100000000E-03 0. -1.
    9900012    2    1    2    0    0  0.18682434108E+01  0.31720078642E+02 -0.29562982342E+02  0.47787266741E+02  0.19999980378E+02 0.  0.
        -12    1    1    2    0    0 -0.18682434108E+01 -0.31720078642E+02  0.29562982342E+02  0.43400733259E+02  0.00000000000E+00 0.  1.
         11    1    3    3    0    0  0.47940795032E+01  0.22653755751E+02 -0.15955055784E+02  0.28120093407E+02  0.51100000000E-03 0. -1.
        -11    1    3    3    0    0 -0.14317487752E+01  0.10535336613E+02 -0.69866693073E+01  0.12722294226E+02  0.51100000000E-03 0.  1.
        -12    1    3    3    0    0 -0.14940873172E+01 -0.14690137225E+01 -0.66212572512E+01  0.69448791073E+01  0.00000000000E+00 0.  1.
</event>
<event>
 7    1  0.2294216E-010  0.4778727E+02  0.7816164E-02  0.1312668E+00
        -11   -1    0    0    0    0  0.00000000000E+00  0.00000000000E+00  0.45593999997E+02  0.45594000000E+02  0.51100000000E-03 0.  1.
         11   -1    0    0    0    0 -0.00000000000E+00 -0.00000000000E+00 -0.45593999997E+02  0.45594000000E+02  0.51100000000E-03 0. -1.
    9900012    2    1    2    0    0  0.67605154302E+00  0.39472851637E+02 -0.18029422467E+02  0.47787272627E+02  0.20000007215E+02 0.  0.
        -12    1    1    2    0    0 -0.67605154302E+00 -0.39472851637E+02  0.18029422467E+02  0.43400727373E+02  0.00000000000E+00 0.  1.
         11    1    3    3    0    0 -0.16789295036E+00  0.57871284259E+01  0.67050134158E+00  0.58282600981E+01  0.51100000000E-03 0. -1.
        -11    1    3    3    0    0 -0.21960716667E+01  0.19206936631E+00  0.15564137910E+01  0.26985265529E+01  0.51100000000E-03 0.  1.
         12    1    3    3    0    0  0.30400161601E+01  0.33493653845E+02 -0.20256337600E+02  0.39260485976E+02  0.00000000000E+00 0. -1.
</event>
<event>
 7    1  0.2294216E-010  0.4778727E+02  0.7816164E-02  0.1312668E+00
        -11   -1    0    0    0    0  0.00000000000E+00  0.00000000000E+00  0.45593999997E+02  0.45594000000E+02  0.51100000000E-03 0. -1.
         11   -1    0    0    0    0 -0.00000000000E+00 -0.00000000000E+00 -0.45593999997E+02  0.45594000000E+02  0.51100000000E-03 0.  1.
    9900012    2    1    2    0    0 -0.22187249566E+02 -0.74442916729E+01  0.36550402238E+02  0.47787269297E+02  0.19999992031E+02 0.  0.
        -12    1    1    2    0    0  0.22187249566E+02  0.74442916729E+01 -0.36550402238E+02  0.43400730703E+02  0.00000000000E+00 0.  1.
         11    1    3    3    0    0 -0.32822886935E+01 -0.55220378664E+01  0.22118875771E+02  0.23032824119E+02  0.51100000000E-03 0. -1.
        -11    1    3    3    0    0 -0.31965723835E+01  0.20785310374E+01  0.37076203953E+01  0.53183470677E+01  0.51100000000E-03 0.  1.
         12    1    3    3    0    0 -0.15708388489E+02 -0.40007848439E+01  0.10723906072E+02  0.19436098110E+02  0.00000000000E+00 0. -1.
</event>
<event>
 7    1  0.2294216E-010  0.4778726E+02  0.7816164E-02  0.1312668E+00
        -11   -1    0    0    0    0  0.00000000000E+00  0.00000000000E+00  0.45593999997E+02  0.45594000000E+02  0.51100000000E-03 0.  1.
         11   -1    0    0    0    0 -0.00000000000E+00 -0.00000000000E+00 -0.45593999997E+02  0.45594000000E+02  0.51100000000E-03 0. -1.
    9900012    2    1    2    0    0 -0.27641706584E+01 -0.39040250159E+02 -0.18757459003E+02  0.47787262216E+02  0.19999959749E+02 0.  0.
        -12    1    1    2    0    0  0.27641706584E+01  0.39040250159E+02  0.18757459003E+02  0.43400737784E+02  0.00000000000E+00 0.  1.
         11    1    3    3    0    0 -0.20922887026E+01 -0.39101605630E+01 -0.34454079052E+01  0.56158582191E+01  0.51100000000E-03 0. -1.
        -11    1    3    3    0    0  0.43205403713E+01 -0.33272562167E+02 -0.15223019235E+02  0.36843870279E+02  0.51100000000E-03 0.  1.
        -12    1    3    3    0    0 -0.49924223271E+01 -0.18575274290E+01 -0.89031862515E-01  0.53275337178E+01  0.00000000000E+00 0.  1.
</event>
<event>
 7    1  0.2294216E-010  0.4778727E+02  0.7816164E-02  0.1312668E+00
        -11   -1    0    0    0    0  0.00000000000E+00  0.00000000000E+00  0.45593999997E+02  0.45594000000E+02  0.51100000000E-03 0.  1.
         11   -1    0    0    0    0 -0.00000000000E+00 -0.00000000000E+00 -0.45593999997E+02  0.45594000000E+02  0.51100000000E-03 0. -1.
    9900012    2    1    2    0    0  0.29942017473E+02  0.11631107929E+01 -0.31396591417E+02  0.47787272014E+02  0.20000004421E+02 0.  0.
        -12    1    1    2    0    0 -0.29942017473E+02 -0.11631107929E+01  0.31396591417E+02  0.43400727986E+02  0.00000000000E+00 0.  1.
         11    1    3    3    0    0  0.37639767973E+01 -0.73612011141E+00 -0.21647047914E+01  0.44040142194E+01  0.51100000000E-03 0.  1.
        -11    1    3    3    0    0  0.14582460365E+02  0.95546006887E+01 -0.11625262606E+02  0.20954361730E+02  0.51100000000E-03 0. -1.
         12    1    3    3    0    0  0.11595580311E+02 -0.76553697844E+01 -0.17606624020E+02  0.22428896064E+02  0.00000000000E+00 0. -1.
</event>
<event>
 7    1  0.2294216E-010  0.4778727E+02  0.7816164E-02  0.1312668E+00
        -11   -1    0    0    0    0  0.00000000000E+00  0.00000000000E+00  0.45593999997E+02  0.45594000000E+02  0.51100000000E-03 0. -1.
         11   -1    0    0    0    0 -0.00000000000E+00 -0.00000000000E+00 -0.45593999997E+02  0.45594000000E+02  0.51100000000E-03 0.  1.
    9900012    2    1    2    0    0 -0.36206341301E+02 -0.22208626932E+02  0.89163479846E+01  0.47787268186E+02  0.19999986966E+02 0.  0.
        -12    1    1    2    0    0  0.36206341301E+02  0.22208626932E+02 -0.89163479846E+01  0.43400731814E+02  0.00000000000E+00 0.  1.
         11    1    3    3    0    0  0.39278207396E+00 -0.82489021909E+00  0.32761033862E+01  0.34011138307E+01  0.51100000000E-03 0. -1.
        -11    1    3    3    0    0 -0.10167274612E+01 -0.61667290502E-01  0.26008290310E+01  0.27931791018E+01  0.51100000000E-03 0.  1.
         12    1    3    3    0    0 -0.35582395914E+02 -0.21322069422E+02  0.30394155674E+01  0.41592975253E+02  0.00000000000E+00 0. -1.
</event>
<event>
 7    1  0.2294216E-010  0.4778727E+02  0.7816164E-02  0.1312668E+00
        -11   -1    0    0    0    0  0.00000000000E+00  0.00000000000E+00  0.45593999997E+02  0.45594000000E+02  0.51100000000E-03 0.  1.
         11   -1    0    0    0    0 -0.00000000000E+00 -0.00000000000E+00 -0.45593999997E+02  0.45594000000E+02  0.51100000000E-03 0. -1.
    9900012    2    1    2    0    0 -0.31676451415E+02 -0.27818386002E+02  0.10313236491E+02  0.47787273959E+02  0.20000013287E+02 0.  0.
        -12    1    1    2    0    0  0.31676451415E+02  0.27818386002E+02 -0.10313236491E+02  0.43400726041E+02  0.00000000000E+00 0.  1.
         11    1    3    3    0    0 -0.11496614413E+02 -0.39625093713E+01  0.12200757455E+01  0.12221383250E+02  0.51100000000E-03 0. -1.
        -11    1    3    3    0    0 -0.85697927136E+01 -0.76901780745E+01 -0.34745846911E+01  0.12027174440E+02  0.51100000000E-03 0.  1.
         12    1    3    3    0    0 -0.11610044289E+02 -0.16165698556E+02  0.12567745437E+02  0.23538716268E+02  0.00000000000E+00 0. -1.
</event>
<event>
 7    1  0.2294216E-010  0.4778727E+02  0.7816164E-02  0.1312668E+00
        -11   -1    0    0    0    0  0.00000000000E+00  0.00000000000E+00  0.45593999997E+02  0.45594000000E+02  0.51100000000E-03 0.  1.
         11   -1    0    0    0    0 -0.00000000000E+00 -0.00000000000E+00 -0.45593999997E+02  0.45594000000E+02  0.51100000000E-03 0. -1.
    9900012    2    1    2    0    0  0.22296974798E+02  0.10233158912E+02 -0.35801545964E+02  0.47787270514E+02  0.19999997583E+02 0.  0.
        -12    1    1    2    0    0 -0.22296974798E+02 -0.10233158912E+02  0.35801545964E+02  0.43400729486E+02  0.00000000000E+00 0.  1.
         11    1    3    3    0    0  0.14772930248E+02  0.71849584477E+01 -0.19498083845E+02  0.25495850053E+02  0.51100000000E-03 0. -1.
        -11    1    3    3    0    0  0.53975708329E+01  0.45424954916E+01 -0.17900829255E+02  0.19240782845E+02  0.51100000000E-03 0.  1.
        -12    1    3    3    0    0  0.21264737175E+01 -0.14942950277E+01  0.15973671367E+01  0.30506376171E+01  0.00000000000E+00 0.  1.
</event>
<event>
 7    1  0.2294216E-010  0.4778727E+02  0.7816164E-02  0.1312668E+00
        -11   -1    0    0    0    0  0.00000000000E+00  0.00000000000E+00  0.45593999997E+02  0.45594000000E+02  0.51100000000E-03 0.  1.
         11   -1    0    0    0    0 -0.00000000000E+00 -0.00000000000E+00 -0.45593999997E+02  0.45594000000E+02  0.51100000000E-03 0. -1.
    9900012    2    1    2    0    0 -0.15665052896E+01 -0.72189178947E+01 -0.42767470400E+02  0.47787271448E+02  0.20000001842E+02 0.  0.
        -12    1    1    2    0    0  0.15665052896E+01  0.72189178947E+01  0.42767470400E+02  0.43400728552E+02  0.00000000000E+00 0.  1.
         11    1    3    3    0    0 -0.22123034020E+01 -0.47011753903E+01 -0.77353062359E+01  0.93182776959E+01  0.51100000000E-03 0. -1.
        -11    1    3    3    0    0  0.76953982062E+01 -0.37701019212E+01 -0.16304135927E+02  0.18418948685E+02  0.51100000000E-03 0.  1.
        -12    1    3    3    0    0 -0.70496000938E+01  0.12523594168E+01 -0.18728028237E+02  0.20050045068E+02  0.00000000000E+00 0.  1.
</event>
<event>
 7    1  0.2294216E-010  0.4778727E+02  0.7816164E-02  0.1312668E+00
        -11   -1    0    0    0    0  0.00000000000E+00  0.00000000000E+00  0.45593999997E+02  0.45594000000E+02  0.51100000000E-03 0.  1.
         11   -1    0    0    0    0 -0.00000000000E+00 -0.00000000000E+00 -0.45593999997E+02  0.45594000000E+02  0.51100000000E-03 0. -1.
    9900012    2    1    2    0    0  0.16373429331E+02 -0.13003093160E+02 -0.38032270473E+02  0.47787271698E+02  0.20000002979E+02 0.  0.
        -12    1    1    2    0    0 -0.16373429331E+02  0.13003093160E+02  0.38032270473E+02  0.43400728302E+02  0.00000000000E+00 0.  1.
         11    1    3    3    0    0  0.12829891028E+02 -0.12463142604E+02 -0.26469294513E+02  0.31946198204E+02  0.51100000000E-03 0. -1.
        -11    1    3    3    0    0 -0.84282798990E+00 -0.39223531060E+01 -0.87561399782E+01  0.96314692798E+01  0.51100000000E-03 0.  1.
         12    1    3    3    0    0  0.43863662929E+01  0.33824025504E+01 -0.28068359820E+01  0.62096042143E+01  0.00000000000E+00 0. -1.
</event>
<event>
 7    1  0.2294216E-010  0.4778727E+02  0.7816164E-02  0.1312668E+00
        -11   -1    0    0    0    0  0.00000000000E+00  0.00000000000E+00  0.45593999997E+02  0.45594000000E+02  0.51100000000E-03 0.  1.
         11   -1    0    0    0    0 -0.00000000000E+00 -0.00000000000E+00 -0.45593999997E+02  0.45594000000E+02  0.51100000000E-03 0. -1.
    9900012    2    1    2    0    0  0.20968389557E+02  0.35167038908E+02 -0.14395458439E+02  0.47787271782E+02  0.20000003362E+02 0.  0.
        -12    1    1    2    0    0 -0.20968389557E+02 -0.35167038908E+02  0.14395458439E+02  0.43400728218E+02  0.00000000000E+00 0.  1.
         11    1    3    3    0    0  0.51208713271E+01  0.67710694361E+01 -0.53026447807E+01  0.10009432871E+02  0.51100000000E-03 0. -1.
        -11    1    3    3    0    0  0.14990846596E+02  0.15554455294E+02  0.68730859000E+00  0.21613397570E+02  0.51100000000E-03 0.  1.
        -12    1    3    3    0    0  0.85667163392E+00  0.12841514178E+02 -0.97801222487E+01  0.16164441341E+02  0.00000000000E+00 0.  1.
</event>
<event>
 7    1  0.2294216E-010  0.4778729E+02  0.7816164E-02  0.1312668E+00
        -11   -1    0    0    0    0  0.00000000000E+00  0.00000000000E+00  0.45593999997E+02  0.45594000000E+02  0.51100000000E-03 0.  1.
         11   -1    0    0    0    0 -0.00000000000E+00 -0.00000000000E+00 -0.45593999997E+02  0.45594000000E+02  0.51100000000E-03 0. -1.
    9900012    2    1    2    0    0 -0.12738877571E+02 -0.55133409468E+01 -0.41121106456E+02  0.47787293481E+02  0.20000102297E+02 0.  0.
        -12    1    1    2    0    0  0.12738877571E+02  0.55133409468E+01  0.41121106456E+02  0.43400706519E+02  0.00000000000E+00 0.  1.
         11    1    3    3    0    0 -0.95096655894E+01 -0.11974136425E+01 -0.32801439102E+02  0.34173117307E+02  0.51100000000E-03 0. -1.
        -11    1    3    3    0    0 -0.52645891426E+01 -0.23827290472E+01 -0.90279986969E+01  0.10719051137E+02  0.51100000000E-03 0.  1.
        -12    1    3    3    0    0  0.20353771613E+01 -0.19331982570E+01  0.70833134217E+00  0.28951250370E+01  0.00000000000E+00 0.  1.
</event>
<event>
 7    1  0.2294216E-010  0.4778727E+02  0.7816164E-02  0.1312668E+00
        -11   -1    0    0    0    0  0.00000000000E+00  0.00000000000E+00  0.45593999997E+02  0.45594000000E+02  0.51100000000E-03 0. -1.
         11   -1    0    0    0    0 -0.00000000000E+00 -0.00000000000E+00 -0.45593999997E+02  0.45594000000E+02  0.51100000000E-03 0.  1.
    9900012    2    1    2    0    0  0.36040165494E+01 -0.29868368611E+02  0.31281223003E+02  0.47787270844E+02  0.19999999085E+02 0.  0.
        -12    1    1    2    0    0 -0.36040165494E+01  0.29868368611E+02 -0.31281223003E+02  0.43400729156E+02  0.00000000000E+00 0.  1.
         11    1    3    3    0    0 -0.48352843464E+01 -0.63851562009E+01  0.89764483632E+01  0.12030246045E+02  0.51100000000E-03 0.  1.
        -11    1    3    3    0    0  0.26892247995E+00 -0.17911292394E+02  0.12597152180E+02  0.21899199936E+02  0.51100000000E-03 0. -1.
        -12    1    3    3    0    0  0.81703784158E+01 -0.55719200157E+01  0.97076224590E+01  0.13857824863E+02  0.00000000000E+00 0.  1.
</event>
<event>
 7    1  0.2294216E-010  0.4778727E+02  0.7816164E-02  0.1312668E+00
        -11   -1    0    0    0    0  0.00000000000E+00  0.00000000000E+00  0.45593999997E+02  0.45594000000E+02  0.51100000000E-03 0.  1.
         11   -1    0    0    0    0 -0.00000000000E+00 -0.00000000000E+00 -0.45593999997E+02  0.45594000000E+02  0.51100000000E-03 0. -1.
    9900012    2    1    2    0    0  0.29385620184E+02  0.21638705917E+02 -0.23492020209E+02  0.47787270964E+02  0.19999999633E+02 0.  0.
        -12    1    1    2    0    0 -0.29385620184E+02 -0.21638705917E+02  0.23492020209E+02  0.43400729036E+02  0.00000000000E+00 0.  1.
         11    1    3    3    0    0 -0.54774881728E+00  0.43226378072E+01 -0.78519113564E+00  0.44273865609E+01  0.51100000000E-03 0.  1.
        -11    1    3    3    0    0  0.15092162399E+02  0.87815888770E+01 -0.38305707805E+01  0.17876323500E+02  0.51100000000E-03 0. -1.
        -12    1    3    3    0    0  0.14841206602E+02  0.85344792326E+01 -0.18876258293E+02  0.25483560904E+02  0.00000000000E+00 0.  1.
</event>
<event>
 7    1  0.2294216E-010  0.4778727E+02  0.7816164E-02  0.1312668E+00
        -11   -1    0    0    0    0  0.00000000000E+00  0.00000000000E+00  0.45593999997E+02  0.45594000000E+02  0.51100000000E-03 0. -1.
         11   -1    0    0    0    0 -0.00000000000E+00 -0.00000000000E+00 -0.45593999997E+02  0.45594000000E+02  0.51100000000E-03 0.  1.
    9900012    2    1    2    0    0 -0.41570681272E+02  0.11268064343E+02 -0.53415850671E+01  0.47787270208E+02  0.19999996187E+02 0.  0.
        -12    1    1    2    0    0  0.41570681272E+02 -0.11268064343E+02  0.53415850671E+01  0.43400729792E+02  0.00000000000E+00 0.  1.
         11    1    3    3    0    0 -0.15269041568E+02  0.45574609021E+01 -0.80606458481E+01  0.17857438003E+02  0.51100000000E-03 0. -1.
        -11    1    3    3    0    0 -0.46512039177E+01 -0.34899801951E+01 -0.20630471253E+00  0.58186099321E+01  0.51100000000E-03 0.  1.
         12    1    3    3    0    0 -0.21650435786E+02  0.10200583636E+02  0.29253654936E+01  0.24111222273E+02  0.00000000000E+00 0. -1.
</event>
<event>
 7    1  0.2294216E-010  0.4778727E+02  0.7816164E-02  0.1312668E+00
        -11   -1    0    0    0    0  0.00000000000E+00  0.00000000000E+00  0.45593999997E+02  0.45594000000E+02  0.51100000000E-03 0. -1.
         11   -1    0    0    0    0 -0.00000000000E+00 -0.00000000000E+00 -0.45593999997E+02  0.45594000000E+02  0.51100000000E-03 0.  1.
    9900012    2    1    2    0    0 -0.36378566367E+02  0.50425357312E+00  0.23663661864E+02  0.47787271257E+02  0.20000000971E+02 0.  0.
        -12    1    1    2    0    0  0.36378566367E+02 -0.50425357312E+00 -0.23663661864E+02  0.43400728743E+02  0.00000000000E+00 0.  1.
         11    1    3    3    0    0 -0.50565846715E+00  0.19338483977E+01  0.16769252783E+01  0.26091260531E+01  0.51100000000E-03 0. -1.
        -11    1    3    3    0    0 -0.11273123331E+02  0.22976658465E+01 -0.67418144878E+00  0.11524630097E+02  0.51100000000E-03 0.  1.
         12    1    3    3    0    0 -0.24599784569E+02 -0.37272606711E+01  0.22660918035E+02  0.33653515108E+02  0.00000000000E+00 0. -1.
</event>
<event>
 7    1  0.2294216E-010  0.4778727E+02  0.7816164E-02  0.1312668E+00
        -11   -1    0    0    0    0  0.00000000000E+00  0.00000000000E+00  0.45593999997E+02  0.45594000000E+02  0.51100000000E-03 0.  1.
         11   -1    0    0    0    0 -0.00000000000E+00 -0.00000000000E+00 -0.45593999997E+02  0.45594000000E+02  0.51100000000E-03 0. -1.
    9900012    2    1    2    0    0 -0.26248492519E+02 -0.26624520465E+02 -0.22040302096E+02  0.47787269983E+02  0.19999995161E+02 0.  0.
        -12    1    1    2    0    0  0.26248492519E+02  0.26624520465E+02  0.22040302096E+02  0.43400730017E+02  0.00000000000E+00 0.  1.
         11    1    3    3    0    0 -0.21074623128E+01 -0.13419132612E+01 -0.68742959953E+01  0.73142377793E+01  0.51100000000E-03 0. -1.
        -11    1    3    3    0    0 -0.16815237043E+02 -0.77385236046E+01 -0.76622330051E+01  0.20033640689E+02  0.51100000000E-03 0.  1.
         12    1    3    3    0    0 -0.73257931632E+01 -0.17544083600E+02 -0.75037730953E+01  0.20439391515E+02  0.00000000000E+00 0. -1.
</event>
<event>
 7    1  0.2294216E-010  0.4778727E+02  0.7816164E-02  0.1312668E+00
        -11   -1    0    0    0    0  0.00000000000E+00  0.00000000000E+00  0.45593999997E+02  0.45594000000E+02  0.51100000000E-03 0.  1.
         11   -1    0    0    0    0 -0.00000000000E+00 -0.00000000000E+00 -0.45593999997E+02  0.45594000000E+02  0.51100000000E-03 0. -1.
    9900012    2    1    2    0    0 -0.22141971180E+02  0.76438914764E+01 -0.36536658932E+02  0.47787269470E+02  0.19999992822E+02 0.  0.
        -12    1    1    2    0    0  0.22141971180E+02 -0.76438914764E+01  0.36536658932E+02  0.43400730530E+02  0.00000000000E+00 0.  1.
         11    1    3    3    0    0 -0.88096903367E+01  0.17821529461E+01 -0.21647328679E+02  0.23439145722E+02  0.51100000000E-03 0. -1.
        -11    1    3    3    0    0 -0.86727857232E+01  0.26370582141E+01 -0.16171053145E+02  0.18538453234E+02  0.51100000000E-03 0.  1.
        -12    1    3    3    0    0 -0.46594951198E+01  0.32246803163E+01  0.12817228924E+01  0.58096705144E+01  0.00000000000E+00 0.  1.
</event>
<event>
 7    1  0.2294216E-010  0.4778727E+02  0.7816164E-02  0.1312668E+00
        -11   -1    0    0    0    0  0.00000000000E+00  0.00000000000E+00  0.45593999997E+02  0.45594000000E+02  0.51100000000E-03 0.  1.
         11   -1    0    0    0    0 -0.00000000000E+00 -0.00000000000E+00 -0.45593999997E+02  0.45594000000E+02  0.51100000000E-03 0. -1.
    9900012    2    1    2    0    0  0.35908111785E+01 -0.43201633863E+02 -0.20851781480E+01  0.47787273494E+02  0.20000011168E+02 0.  0.
        -12    1    1    2    0    0 -0.35908111785E+01  0.43201633863E+02  0.20851781480E+01  0.43400726506E+02  0.00000000000E+00 0.  1.
         11    1    3    3    0    0 -0.40737119107E+01 -0.23212387835E+02 -0.44414125253E+01  0.23981997898E+02  0.51100000000E-03 0. -1.
        -11    1    3    3    0    0 -0.71215080542E-01 -0.18638301671E+01 -0.28645722589E+01  0.34182903574E+01  0.51100000000E-03 0.  1.
        -12    1    3    3    0    0  0.77357381698E+01 -0.18125415861E+02  0.52208066361E+01  0.20386985238E+02  0.00000000000E+00 0.  1.
</event>
<event>
 7    1  0.2294216E-010  0.4778727E+02  0.7816164E-02  0.1312668E+00
        -11   -1    0    0    0    0  0.00000000000E+00  0.00000000000E+00  0.45593999997E+02  0.45594000000E+02  0.51100000000E-03 0. -1.
         11   -1    0    0    0    0 -0.00000000000E+00 -0.00000000000E+00 -0.45593999997E+02  0.45594000000E+02  0.51100000000E-03 0.  1.
    9900012    2    1    2    0    0 -0.33059570150E+02  0.18444290607E+02  0.21224904825E+02  0.47787267065E+02  0.19999981854E+02 0.  0.
        -12    1    1    2    0    0  0.33059570150E+02 -0.18444290607E+02 -0.21224904825E+02  0.43400732935E+02  0.00000000000E+00 0.  1.
         11    1    3    3    0    0 -0.66602965991E+01  0.26407044190E+01 -0.15524320730E+01  0.73309560235E+01  0.51100000000E-03 0.  1.
        -11    1    3    3    0    0 -0.47255673522E+01  0.98710084704E+01  0.68035531682E+01  0.12886276848E+02  0.51100000000E-03 0. -1.
         12    1    3    3    0    0 -0.21673706199E+02  0.59325777172E+01  0.15973783730E+02  0.27570034193E+02  0.00000000000E+00 0. -1.
</event>
<event>
 7    1  0.2294216E-010  0.4778724E+02  0.7816164E-02  0.1312668E+00
        -11   -1    0    0    0    0  0.00000000000E+00  0.00000000000E+00  0.45593999997E+02  0.45594000000E+02  0.51100000000E-03 0. -1.
         11   -1    0    0    0    0 -0.00000000000E+00 -0.00000000000E+00 -0.45593999997E+02  0.45594000000E+02  0.51100000000E-03 0.  1.
    9900012    2    1    2    0    0  0.91247661303E+01  0.31192214836E+02  0.28764745033E+02  0.47787237563E+02  0.19999847343E+02 0.  0.
        -12    1    1    2    0    0 -0.91247661303E+01 -0.31192214836E+02 -0.28764745033E+02  0.43400762437E+02  0.00000000000E+00 0.  1.
         11    1    3    3    0    0  0.12015930750E+02  0.26938097632E+02  0.23366190381E+02  0.37630075060E+02  0.51100000000E-03 0. -1.
        -11    1    3    3    0    0  0.13923282629E+01  0.16360655735E+01 -0.69873449740E+00  0.22590968796E+01  0.51100000000E-03 0.  1.
         12    1    3    3    0    0 -0.42834928828E+01  0.26180516308E+01  0.60972891493E+01  0.78980656232E+01  0.00000000000E+00 0. -1.
</event>
<event>
 7    1  0.2294216E-010  0.4778727E+02  0.7816164E-02  0.1312668E+00
        -11   -1    0    0    0    0  0.00000000000E+00  0.00000000000E+00  0.45593999997E+02  0.45594000000E+02  0.51100000000E-03 0.  1.
         11   -1    0    0    0    0 -0.00000000000E+00 -0.00000000000E+00 -0.45593999997E+02  0.45594000000E+02  0.51100000000E-03 0. -1.
    9900012    2    1    2    0    0  0.78113675634E+01  0.16261986402E+02 -0.39473453653E+02  0.47787271801E+02  0.20000003447E+02 0.  0.
        -12    1    1    2    0    0 -0.78113675634E+01 -0.16261986402E+02  0.39473453653E+02  0.43400728199E+02  0.00000000000E+00 0.  1.
         11    1    3    3    0    0 -0.50807936899E+01  0.95723577708E+01 -0.19644112340E+02  0.22435143139E+02  0.51100000000E-03 0. -1.
        -11    1    3    3    0    0  0.42657378969E+01  0.24233783311E+01 -0.24444835806E+01  0.54813121219E+01  0.51100000000E-03 0.  1.
         12    1    3    3    0    0  0.86264233563E+01  0.42662503001E+01 -0.17384857733E+02  0.19870816539E+02  0.00000000000E+00 0. -1.
</event>
<event>
 7    1  0.2294216E-010  0.4778728E+02  0.7816164E-02  0.1312668E+00
        -11   -1    0    0    0    0  0.00000000000E+00  0.00000000000E+00  0.45593999997E+02  0.45594000000E+02  0.51100000000E-03 0.  1.
         11   -1    0    0    0    0 -0.00000000000E+00 -0.00000000000E+00 -0.45593999997E+02  0.45594000000E+02  0.51100000000E-03 0. -1.
    9900012    2    1    2    0    0 -0.30283969256E+02 -0.23618967323E+02 -0.20215052520E+02  0.47787276968E+02  0.20000027010E+02 0.  0.
        -12    1    1    2    0    0  0.30283969256E+02  0.23618967323E+02  0.20215052520E+02  0.43400723032E+02  0.00000000000E+00 0.  1.
         11    1    3    3    0    0 -0.17014744060E+02 -0.11606244925E+02 -0.14263287916E+02  0.25052900414E+02  0.51100000000E-03 0. -1.
        -11    1    3    3    0    0 -0.10550153968E+02 -0.11259393980E+01 -0.17559752522E+01  0.10754391551E+02  0.51100000000E-03 0.  1.
         12    1    3    3    0    0 -0.27190712278E+01 -0.10886782999E+02 -0.41957893513E+01  0.11979985004E+02  0.00000000000E+00 0. -1.
</event>
<event>
 7    1  0.2294216E-010  0.4778727E+02  0.7816164E-02  0.1312668E+00
        -11   -1    0    0    0    0  0.00000000000E+00  0.00000000000E+00  0.45593999997E+02  0.45594000000E+02  0.51100000000E-03 0.  1.
         11   -1    0    0    0    0 -0.00000000000E+00 -0.00000000000E+00 -0.45593999997E+02  0.45594000000E+02  0.51100000000E-03 0. -1.
    9900012    2    1    2    0    0  0.27905206295E+02  0.96516111068E+00 -0.33226366192E+02  0.47787268616E+02  0.19999988928E+02 0.  0.
        -12    1    1    2    0    0 -0.27905206295E+02 -0.96516111068E+00  0.33226366192E+02  0.43400731384E+02  0.00000000000E+00 0.  1.
         11    1    3    3    0    0  0.11175527161E+02  0.89107748852E+01 -0.10428005739E+02  0.17692869194E+02  0.51100000000E-03 0. -1.
        -11    1    3    3    0    0  0.23247821306E+01 -0.39854919195E+01 -0.42032451513E+01  0.62414764166E+01  0.51100000000E-03 0.  1.
         12    1    3    3    0    0  0.14404897003E+02 -0.39601218550E+01 -0.18595115302E+02  0.23852923005E+02  0.00000000000E+00 0. -1.
</event>
<event>
 7    1  0.2294216E-010  0.4778728E+02  0.7816164E-02  0.1312668E+00
        -11   -1    0    0    0    0  0.00000000000E+00  0.00000000000E+00  0.45593999997E+02  0.45594000000E+02  0.51100000000E-03 0. -1.
         11   -1    0    0    0    0 -0.00000000000E+00 -0.00000000000E+00 -0.45593999997E+02  0.45594000000E+02  0.51100000000E-03 0.  1.
    9900012    2    1    2    0    0  0.40911668232E+02  0.11915740033E+02  0.82385351306E+01  0.47787275131E+02  0.20000018631E+02 0.  0.
        -12    1    1    2    0    0 -0.40911668232E+02 -0.11915740033E+02 -0.82385351306E+01  0.43400724869E+02  0.00000000000E+00 0.  1.
         11    1    3    3    0    0  0.13703030025E+02  0.87066851597E+01  0.10211759112E+02  0.19179661695E+02  0.51100000000E-03 0.  1.
        -11    1    3    3    0    0  0.12492822099E+02 -0.19961112300E+01  0.10988424018E+01  0.12698918022E+02  0.51100000000E-03 0. -1.
        -12    1    3    3    0    0  0.14715816108E+02  0.52051661034E+01 -0.30720663828E+01  0.15908695414E+02  0.00000000000E+00 0.  1.
</event>
<event>
 7    1  0.2294216E-010  0.4778727E+02  0.7816164E-02  0.1312668E+00
        -11   -1    0    0    0    0  0.00000000000E+00  0.00000000000E+00  0.45593999997E+02  0.45594000000E+02  0.51100000000E-03 0.  1.
         11   -1    0    0    0    0 -0.00000000000E+00 -0.00000000000E+00 -0.45593999997E+02  0.45594000000E+02  0.51100000000E-03 0. -1.
    9900012    2    1    2    0    0  0.38128870997E+02  0.19729454972E+02  0.63687571518E+01  0.47787271151E+02  0.20000000484E+02 0.  0.
        -12    1    1    2    0    0 -0.38128870997E+02 -0.19729454972E+02 -0.63687571518E+01  0.43400728849E+02  0.00000000000E+00 0.  1.
         11    1    3    3    0    0  0.98445147889E+01  0.10092828401E+02 -0.15889252092E+01  0.14188176068E+02  0.51100000000E-03 0. -1.
        -11    1    3    3    0    0  0.15196778834E+02  0.11245590283E+02  0.16357082563E+01  0.18975798520E+02  0.51100000000E-03 0.  1.
        -12    1    3    3    0    0  0.13087577375E+02 -0.16089637117E+01  0.63219741046E+01  0.14623296562E+02  0.00000000000E+00 0.  1.
</event>
<event>
 7    1  0.2294216E-010  0.4778727E+02  0.7816164E-02  0.1312668E+00
        -11   -1    0    0    0    0  0.00000000000E+00  0.00000000000E+00  0.45593999997E+02  0.45594000000E+02  0.51100000000E-03 0. -1.
         11   -1    0    0    0    0 -0.00000000000E+00 -0.00000000000E+00 -0.45593999997E+02  0.45594000000E+02  0.51100000000E-03 0.  1.
    9900012    2    1    2    0    0  0.26027965054E+02 -0.23694955170E+02  0.25391285397E+02  0.47787271441E+02  0.20000001810E+02 0.  0.
        -12    1    1    2    0    0 -0.26027965054E+02  0.23694955170E+02 -0.25391285397E+02  0.43400728559E+02  0.00000000000E+00 0.  1.
         11    1    3    3    0    0  0.14024539409E+02 -0.90060293962E+01  0.16299136379E+02  0.23312188188E+02  0.51100000000E-03 0. -1.
        -11    1    3    3    0    0 -0.13158562515E+01 -0.13615575350E+01  0.47864292074E+01  0.51473509123E+01  0.51100000000E-03 0.  1.
        -12    1    3    3    0    0  0.13319281896E+02 -0.13327368238E+02  0.43057198102E+01  0.19327732341E+02  0.00000000000E+00 0.  1.
</event>
<event>
 7    1  0.2294216E-010  0.4778727E+02  0.7816164E-02  0.1312668E+00
        -11   -1    0    0    0    0  0.00000000000E+00  0.00000000000E+00  0.45593999997E+02  0.45594000000E+02  0.51100000000E-03 0.  1.
         11   -1    0    0    0    0 -0.00000000000E+00 -0.00000000000E+00 -0.45593999997E+02  0.45594000000E+02  0.51100000000E-03 0. -1.
    9900012    2    1    2    0    0 -0.72599695202E+01 -0.17511783102E+02 -0.39041689735E+02  0.47787271410E+02  0.20000001665E+02 0.  0.
        -12    1    1    2    0    0  0.72599695202E+01  0.17511783102E+02  0.39041689735E+02  0.43400728590E+02  0.00000000000E+00 0.  1.
         11    1    3    3    0    0 -0.62751311309E+01 -0.11920253316E+02 -0.13721101447E+02  0.19228581201E+02  0.51100000000E-03 0. -1.
        -11    1    3    3    0    0  0.13432853276E+01 -0.89271107688E+01 -0.15644126965E+02  0.18062016247E+02  0.51100000000E-03 0.  1.
         12    1    3    3    0    0 -0.23281237169E+01  0.33355809824E+01 -0.96764613223E+01  0.10496673961E+02  0.00000000000E+00 0. -1.
</event>
<event>
 7    1  0.2294216E-010  0.4778727E+02  0.7816164E-02  0.1312668E+00
        -11   -1    0    0    0    0  0.00000000000E+00  0.00000000000E+00  0.45593999997E+02  0.45594000000E+02  0.51100000000E-03 0.  1.
         11   -1    0    0    0    0 -0.00000000000E+00 -0.00000000000E+00 -0.45593999997E+02  0.45594000000E+02  0.51100000000E-03 0. -1.
    9900012    2    1    2    0    0  0.29575423360E+02 -0.34450257095E+01 -0.31576091749E+02  0.47787269139E+02  0.19999991313E+02 0.  0.
        -12    1    1    2    0    0 -0.29575423360E+02  0.34450257095E+01  0.31576091749E+02  0.43400730861E+02  0.00000000000E+00 0.  1.
         11    1    3    3    0    0  0.83413323116E+01  0.51661857777E+01 -0.14661578386E+02  0.17641688730E+02  0.51100000000E-03 0.  1.
        -11    1    3    3    0    0  0.15394274047E+02 -0.18715853150E+01 -0.13617452023E+02  0.20637865803E+02  0.51100000000E-03 0. -1.
        -12    1    3    3    0    0  0.58398170016E+01 -0.67396261723E+01 -0.32970613402E+01  0.95077146063E+01  0.00000000000E+00 0.  1.
</event>
<event>
 7    1  0.2294216E-010  0.4778727E+02  0.7816164E-02  0.1312668E+00
        -11   -1    0    0    0    0  0.00000000000E+00  0.00000000000E+00  0.45593999997E+02  0.45594000000E+02  0.51100000000E-03 0. -1.
         11   -1    0    0    0    0 -0.00000000000E+00 -0.00000000000E+00 -0.45593999997E+02  0.45594000000E+02  0.51100000000E-03 0.  1.
    9900012    2    1    2    0    0 -0.15759655582E+02 -0.59648078234E+00  0.40433907214E+02  0.47787269753E+02  0.19999994114E+02 0.  0.
        -12    1    1    2    0    0  0.15759655582E+02  0.59648078234E+00 -0.40433907214E+02  0.43400730247E+02  0.00000000000E+00 0.  1.
         11    1    3    3    0    0  0.58031163092E+00  0.32928231809E+00 -0.13024012368E+01  0.14633651891E+01  0.51100000000E-03 0. -1.
        -11    1    3    3    0    0 -0.92822206026E+01  0.23819920278E+01  0.10880825081E+02  0.14499167564E+02  0.51100000000E-03 0.  1.
         12    1    3    3    0    0 -0.70577466101E+01 -0.33077551283E+01  0.30855483369E+02  0.31824737001E+02  0.00000000000E+00 0. -1.
</event>
<event>
 7    1  0.2294216E-010  0.4778727E+02  0.7816164E-02  0.1312668E+00
        -11   -1    0    0    0    0  0.00000000000E+00  0.00000000000E+00  0.45593999997E+02  0.45594000000E+02  0.51100000000E-03 0.  1.
         11   -1    0    0    0    0 -0.00000000000E+00 -0.00000000000E+00 -0.45593999997E+02  0.45594000000E+02  0.51100000000E-03 0. -1.
    9900012    2    1    2    0    0 -0.24593906807E+02 -0.33960441159E+02  0.11200524573E+02  0.47787267674E+02  0.19999984632E+02 0.  0.
        -12    1    1    2    0    0  0.24593906807E+02  0.33960441159E+02 -0.11200524573E+02  0.43400732326E+02  0.00000000000E+00 0.  1.
         11    1    3    3    0    0 -0.65122456854E+01 -0.91874490965E+01  0.29080286944E+01  0.11630786556E+02  0.51100000000E-03 0. -1.
        -11    1    3    3    0    0 -0.20246037477E+01 -0.10754828292E+02 -0.38791069947E+01  0.11610892441E+02  0.51100000000E-03 0.  1.
        -12    1    3    3    0    0 -0.16057057373E+02 -0.14018163771E+02  0.12171602874E+02  0.24545588677E+02  0.00000000000E+00 0.  1.
</event>
<event>
 7    1  0.2294216E-010  0.4778727E+02  0.7816164E-02  0.1312668E+00
        -11   -1    0    0    0    0  0.00000000000E+00  0.00000000000E+00  0.45593999997E+02  0.45594000000E+02  0.51100000000E-03 0.  1.
         11   -1    0    0    0    0 -0.00000000000E+00 -0.00000000000E+00 -0.45593999997E+02  0.45594000000E+02  0.51100000000E-03 0. -1.
    9900012    2    1    2    0    0  0.27892800397E+02 -0.13652420712E+02 -0.30318750681E+02  0.47787267884E+02  0.19999985592E+02 0.  0.
        -12    1    1    2    0    0 -0.27892800397E+02  0.13652420712E+02  0.30318750681E+02  0.43400732116E+02  0.00000000000E+00 0.  1.
         11    1    3    3    0    0  0.19094068924E+01 -0.49810657899E+01 -0.91639425624E+01  0.10603522746E+02  0.51100000000E-03 0. -1.
        -11    1    3    3    0    0  0.44912955407E+01 -0.15872192265E+01  0.16648309343E+01  0.50460541821E+01  0.51100000000E-03 0.  1.
        -12    1    3    3    0    0  0.21492097964E+02 -0.70841356959E+01 -0.22819639053E+02  0.32137690956E+02  0.00000000000E+00 0.  1.
</event>
<event>
 7    1  0.2294216E-010  0.4778727E+02  0.7816164E-02  0.1312668E+00
        -11   -1    0    0    0    0  0.00000000000E+00  0.00000000000E+00  0.45593999997E+02  0.45594000000E+02  0.51100000000E-03 0.  1.
         11   -1    0    0    0    0 -0.00000000000E+00 -0.00000000000E+00 -0.45593999997E+02  0.45594000000E+02  0.51100000000E-03 0. -1.
    9900012    2    1    2    0    0 -0.22602890795E+02 -0.28078761530E+02 -0.24172627572E+02  0.47787269072E+02  0.19999991008E+02 0.  0.
        -12    1    1    2    0    0  0.22602890795E+02  0.28078761530E+02  0.24172627572E+02  0.43400730928E+02  0.00000000000E+00 0.  1.
         11    1    3    3    0    0 -0.51051968016E+01 -0.38798944243E+01  0.79721967071E+00  0.64615922644E+01  0.51100000000E-03 0. -1.
        -11    1    3    3    0    0  0.68329387944E+00 -0.49955317478E+01 -0.12904115998E+00  0.50436970420E+01  0.51100000000E-03 0.  1.
         12    1    3    3    0    0 -0.18180987873E+02 -0.19203335358E+02 -0.24840806082E+02  0.36281979766E+02  0.00000000000E+00 0. -1.
</event>
<event>
 7    1  0.2294216E-010  0.4778727E+02  0.7816164E-02  0.1312668E+00
        -11   -1    0    0    0    0  0.00000000000E+00  0.00000000000E+00  0.45593999997E+02  0.45594000000E+02  0.51100000000E-03 0. -1.
         11   -1    0    0    0    0 -0.00000000000E+00 -0.00000000000E+00 -0.45593999997E+02  0.45594000000E+02  0.51100000000E-03 0.  1.
    9900012    2    1    2    0    0 -0.11821000133E+02 -0.12196611854E+02  0.39939073770E+02  0.47787274218E+02  0.20000014468E+02 0.  0.
        -12    1    1    2    0    0  0.11821000133E+02  0.12196611854E+02 -0.39939073770E+02  0.43400725782E+02  0.00000000000E+00 0.  1.
         11    1    3    3    0    0 -0.51759352078E+01  0.13540523657E+01  0.39181484263E+01  0.66314139093E+01  0.51100000000E-03 0. -1.
        -11    1    3    3    0    0 -0.48663122836E+01  0.16933746325E+00  0.16679827038E+02  0.17376026608E+02  0.51100000000E-03 0.  1.
         12    1    3    3    0    0 -0.17787526412E+01 -0.13720001683E+02  0.19341098305E+02  0.23779833700E+02  0.00000000000E+00 0. -1.
</event>
<event>
 7    1  0.2294216E-010  0.4778727E+02  0.7816164E-02  0.1312668E+00
        -11   -1    0    0    0    0  0.00000000000E+00  0.00000000000E+00  0.45593999997E+02  0.45594000000E+02  0.51100000000E-03 0.  1.
         11   -1    0    0    0    0 -0.00000000000E+00 -0.00000000000E+00 -0.45593999997E+02  0.45594000000E+02  0.51100000000E-03 0. -1.
    9900012    2    1    2    0    0  0.19650425100E+02 -0.33161334552E+02 -0.19945167554E+02  0.47787273916E+02  0.20000013091E+02 0.  0.
        -12    1    1    2    0    0 -0.19650425100E+02  0.33161334552E+02  0.19945167554E+02  0.43400726084E+02  0.00000000000E+00 0.  1.
         11    1    3    3    0    0  0.45254210020E+01 -0.20360399607E+01  0.12893695824E+01  0.51271208439E+01  0.51100000000E-03 0.  1.
        -11    1    3    3    0    0 -0.10113576877E+01 -0.10445217797E+02 -0.37856793857E+01  0.11156020252E+02  0.51100000000E-03 0. -1.
         12    1    3    3    0    0  0.16136361786E+02 -0.20680076795E+02 -0.17448857751E+02  0.31504132820E+02  0.00000000000E+00 0. -1.
</event>
<event>
 7    1  0.2294216E-010  0.4778727E+02  0.7816164E-02  0.1312668E+00
        -11   -1    0    0    0    0  0.00000000000E+00  0.00000000000E+00  0.45593999997E+02  0.45594000000E+02  0.51100000000E-03 0.  1.
         11   -1    0    0    0    0 -0.00000000000E+00 -0.00000000000E+00 -0.45593999997E+02  0.45594000000E+02  0.51100000000E-03 0. -1.
    9900012    2    1    2    0    0 -0.22572912027E+02 -0.32925642090E+02 -0.17029062060E+02  0.47787271676E+02  0.20000002878E+02 0.  0.
        -12    1    1    2    0    0  0.22572912027E+02  0.32925642090E+02  0.17029062060E+02  0.43400728324E+02  0.00000000000E+00 0.  1.
         11    1    3    3    0    0 -0.12123023375E+02 -0.13958207462E+02  0.55116783931E+00  0.18496027616E+02  0.51100000000E-03 0.  1.
        -11    1    3    3    0    0 -0.59126911893E+01 -0.68384773029E+01 -0.24307670956E+01  0.93612668938E+01  0.51100000000E-03 0. -1.
        -12    1    3    3    0    0 -0.45371974627E+01 -0.12128957325E+02 -0.15149462804E+02  0.19929977166E+02  0.00000000000E+00 0.  1.
</event>
<event>
 7    1  0.2294216E-010  0.4778727E+02  0.7816164E-02  0.1312668E+00
        -11   -1    0    0    0    0  0.00000000000E+00  0.00000000000E+00  0.45593999997E+02  0.45594000000E+02  0.51100000000E-03 0. -1.
         11   -1    0    0    0    0 -0.00000000000E+00 -0.00000000000E+00 -0.45593999997E+02  0.45594000000E+02  0.51100000000E-03 0.  1.
    9900012    2    1    2    0    0  0.11678428097E+02 -0.36523222523E+02 -0.20329579003E+02  0.47787271334E+02  0.20000001322E+02 0.  0.
        -12    1    1    2    0    0 -0.11678428097E+02  0.36523222523E+02  0.20329579003E+02  0.43400728666E+02  0.00000000000E+00 0.  1.
         11    1    3    3    0    0 -0.88816341283E+00 -0.11227596504E+02 -0.43293795247E+01  0.12066121367E+02  0.51100000000E-03 0. -1.
        -11    1    3    3    0    0 -0.17660700087E+01 -0.47272343863E+01 -0.79022785153E+01  0.93761268236E+01  0.51100000000E-03 0.  1.
         12    1    3    3    0    0  0.14332661518E+02 -0.20568391633E+02 -0.80979209630E+01  0.26345023144E+02  0.00000000000E+00 0. -1.
</event>
<event>
 7    1  0.2294216E-010  0.4778727E+02  0.7816164E-02  0.1312668E+00
        -11   -1    0    0    0    0  0.00000000000E+00  0.00000000000E+00  0.45593999997E+02  0.45594000000E+02  0.51100000000E-03 0.  1.
         11   -1    0    0    0    0 -0.00000000000E+00 -0.00000000000E+00 -0.45593999997E+02  0.45594000000E+02  0.51100000000E-03 0. -1.
    9900012    2    1    2    0    0 -0.34986452558E+02 -0.12090652991E+02 -0.22658063583E+02  0.47787267314E+02  0.19999982992E+02 0.  0.
        -12    1    1    2    0    0  0.34986452558E+02  0.12090652991E+02  0.22658063583E+02  0.43400732686E+02  0.00000000000E+00 0.  1.
         11    1    3    3    0    0 -0.25895097334E+01  0.19880331842E+01  0.59756828382E+00  0.33188740133E+01  0.51100000000E-03 0. -1.
        -11    1    3    3    0    0 -0.73608996609E+00 -0.41345711671E+01 -0.49790932620E+00  0.42289976510E+01  0.51100000000E-03 0.  1.
         12    1    3    3    0    0 -0.31660852858E+02 -0.99441150080E+01 -0.22757722541E+02  0.40239395650E+02  0.00000000000E+00 0. -1.
</event>
<event>
 7    1  0.2294216E-010  0.4778727E+02  0.7816164E-02  0.1312668E+00
        -11   -1    0    0    0    0  0.00000000000E+00  0.00000000000E+00  0.45593999997E+02  0.45594000000E+02  0.51100000000E-03 0.  1.
         11   -1    0    0    0    0 -0.00000000000E+00 -0.00000000000E+00 -0.45593999997E+02  0.45594000000E+02  0.51100000000E-03 0. -1.
    9900012    2    1    2    0    0  0.34320845549E+02  0.18814607154E+02 -0.18754029407E+02  0.47787268433E+02  0.19999988091E+02 0.  0.
        -12    1    1    2    0    0 -0.34320845549E+02 -0.18814607154E+02  0.18754029407E+02  0.43400731567E+02  0.00000000000E+00 0.  1.
         11    1    3    3    0    0  0.14839572085E+02  0.51575220663E+01 -0.14895115871E+01  0.15780734411E+02  0.51100000000E-03 0.  1.
        -11    1    3    3    0    0  0.14459057944E+02  0.32432157374E+01 -0.64005071298E+01  0.16141539478E+02  0.51100000000E-03 0. -1.
        -12    1    3    3    0    0  0.50222155207E+01  0.10413869350E+02 -0.10864010690E+02  0.15864994543E+02  0.00000000000E+00 0.  1.
</event>
<event>
 7    1  0.2294216E-010  0.4778727E+02  0.7816164E-02  0.1312668E+00
        -11   -1    0    0    0    0  0.00000000000E+00  0.00000000000E+00  0.45593999997E+02  0.45594000000E+02  0.51100000000E-03 0.  1.
         11   -1    0    0    0    0 -0.00000000000E+00 -0.00000000000E+00 -0.45593999997E+02  0.45594000000E+02  0.51100000000E-03 0. -1.
    9900012    2    1    2    0    0 -0.33240915446E+02  0.56899305898E+01 -0.27318298521E+02  0.47787271851E+02  0.20000003676E+02 0.  0.
        -12    1    1    2    0    0  0.33240915446E+02 -0.56899305898E+01  0.27318298521E+02  0.43400728149E+02  0.00000000000E+00 0.  1.
         11    1    3    3    0    0 -0.68263673102E+01  0.76518687855E+01 -0.82356877476E+01  0.13152069780E+02  0.51100000000E-03 0. -1.
        -11    1    3    3    0    0 -0.10800662015E+02  0.46603601227E+01 -0.97387073170E+01  0.15271400620E+02  0.51100000000E-03 0.  1.
        -12    1    3    3    0    0 -0.15613886121E+02 -0.66222983184E+01 -0.93439034564E+01  0.19363801450E+02  0.00000000000E+00 0.  1.
</event>
<event>
 7    1  0.2294216E-010  0.4778727E+02  0.7816164E-02  0.1312668E+00
        -11   -1    0    0    0    0  0.00000000000E+00  0.00000000000E+00  0.45593999997E+02  0.45594000000E+02  0.51100000000E-03 0.  1.
         11   -1    0    0    0    0 -0.00000000000E+00 -0.00000000000E+00 -0.45593999997E+02  0.45594000000E+02  0.51100000000E-03 0. -1.
    9900012    2    1    2    0    0 -0.52316120229E+00 -0.20335691470E+02 -0.38338092002E+02  0.47787270242E+02  0.19999996342E+02 0.  0.
        -12    1    1    2    0    0  0.52316120229E+00  0.20335691470E+02  0.38338092002E+02  0.43400729758E+02  0.00000000000E+00 0.  1.
         11    1    3    3    0    0  0.21601309111E+01 -0.12158775332E+02 -0.29008826343E+02  0.31527987395E+02  0.51100000000E-03 0. -1.
        -11    1    3    3    0    0  0.29525663516E+01 -0.68503393755E+01 -0.44380603505E+01  0.86799295824E+01  0.51100000000E-03 0.  1.
        -12    1    3    3    0    0 -0.56358584650E+01 -0.13265767621E+01 -0.48912053080E+01  0.75793532645E+01  0.00000000000E+00 0.  1.
</event>
<event>
 7    1  0.2294216E-010  0.4778727E+02  0.7816164E-02  0.1312668E+00
        -11   -1    0    0    0    0  0.00000000000E+00  0.00000000000E+00  0.45593999997E+02  0.45594000000E+02  0.51100000000E-03 0. -1.
         11   -1    0    0    0    0 -0.00000000000E+00 -0.00000000000E+00 -0.45593999997E+02  0.45594000000E+02  0.51100000000E-03 0.  1.
    9900012    2    1    2    0    0 -0.23141650886E+02  0.36284049782E+01 -0.36536581183E+02  0.47787273128E+02  0.20000009502E+02 0.  0.
        -12    1    1    2    0    0  0.23141650886E+02 -0.36284049782E+01  0.36536581183E+02  0.43400726872E+02  0.00000000000E+00 0.  1.
         11    1    3    3    0    0 -0.46840238454E+01 -0.67069787555E+00 -0.20859417816E+01  0.51711766941E+01  0.51100000000E-03 0. -1.
        -11    1    3    3    0    0 -0.18793371920E+02  0.69134589242E+01 -0.21423432494E+02  0.29324907545E+02  0.51100000000E-03 0.  1.
         12    1    3    3    0    0  0.33574487924E+00 -0.26143560704E+01 -0.13027206907E+02  0.13291188889E+02  0.00000000000E+00 0. -1.
</event>
<event>
 7    1  0.2294216E-010  0.4778728E+02  0.7816164E-02  0.1312668E+00
        -11   -1    0    0    0    0  0.00000000000E+00  0.00000000000E+00  0.45593999997E+02  0.45594000000E+02  0.51100000000E-03 0. -1.
         11   -1    0    0    0    0 -0.00000000000E+00 -0.00000000000E+00 -0.45593999997E+02  0.45594000000E+02  0.51100000000E-03 0.  1.
    9900012    2    1    2    0    0 -0.75879012395E+01  0.38655483194E+02  0.18215384389E+02  0.47787275874E+02  0.20000022021E+02 0.  0.
        -12    1    1    2    0    0  0.75879012395E+01 -0.38655483194E+02 -0.18215384389E+02  0.43400724126E+02  0.00000000000E+00 0.  1.
         11    1    3    3    0    0  0.17655523160E+00  0.13129368129E+01  0.31175632802E+01  0.33873552946E+01  0.51100000000E-03 0. -1.
        -11    1    3    3    0    0 -0.53706563732E+01  0.38280974275E+02  0.12221347856E+02  0.40541809099E+02  0.51100000000E-03 0.  1.
        -12    1    3    3    0    0 -0.23938000978E+01 -0.93842789409E+00  0.28764732534E+01  0.38581114808E+01  0.00000000000E+00 0.  1.
</event>
<event>
 7    1  0.2294216E-010  0.4778727E+02  0.7816164E-02  0.1312668E+00
        -11   -1    0    0    0    0  0.00000000000E+00  0.00000000000E+00  0.45593999997E+02  0.45594000000E+02  0.51100000000E-03 0.  1.
         11   -1    0    0    0    0 -0.00000000000E+00 -0.00000000000E+00 -0.45593999997E+02  0.45594000000E+02  0.51100000000E-03 0. -1.
    9900012    2    1    2    0    0 -0.82941887532E+01  0.39046058546E+02 -0.17036293469E+02  0.47787267861E+02  0.19999985486E+02 0.  0.
        -12    1    1    2    0    0  0.82941887532E+01 -0.39046058546E+02  0.17036293469E+02  0.43400732139E+02  0.00000000000E+00 0.  1.
         11    1    3    3    0    0 -0.28216076899E+01  0.40254473952E+01 -0.19222676166E+01  0.52783339927E+01  0.51100000000E-03 0. -1.
        -11    1    3    3    0    0 -0.80993666576E+01  0.25596066934E+02 -0.31154910047E+01  0.27027109857E+02  0.51100000000E-03 0.  1.
         12    1    3    3    0    0  0.26267855943E+01  0.94245442165E+01 -0.11998534847E+02  0.15481824012E+02  0.00000000000E+00 0. -1.
</event>
<event>
 7    1  0.2294216E-010  0.4778727E+02  0.7816164E-02  0.1312668E+00
        -11   -1    0    0    0    0  0.00000000000E+00  0.00000000000E+00  0.45593999997E+02  0.45594000000E+02  0.51100000000E-03 0.  1.
         11   -1    0    0    0    0 -0.00000000000E+00 -0.00000000000E+00 -0.45593999997E+02  0.45594000000E+02  0.51100000000E-03 0. -1.
    9900012    2    1    2    0    0 -0.22450636492E+02 -0.16567182085E+02 -0.33243351358E+02  0.47787274077E+02  0.20000013826E+02 0.  0.
        -12    1    1    2    0    0  0.22450636492E+02  0.16567182085E+02  0.33243351358E+02  0.43400725923E+02  0.00000000000E+00 0.  1.
         11    1    3    3    0    0 -0.10034872664E+02 -0.80815923446E+01 -0.23889507837E+02  0.27142575213E+02  0.51100000000E-03 0. -1.
        -11    1    3    3    0    0 -0.56960705028E+01 -0.76481169718E+01 -0.10029460160E+02  0.13839399689E+02  0.51100000000E-03 0.  1.
        -12    1    3    3    0    0 -0.67196933252E+01 -0.83747276905E+00  0.67561663933E+00  0.68052991755E+01  0.00000000000E+00 0.  1.
</event>
<event>
 7    1  0.2294216E-010  0.4778726E+02  0.7816164E-02  0.1312668E+00
        -11   -1    0    0    0    0  0.00000000000E+00  0.00000000000E+00  0.45593999997E+02  0.45594000000E+02  0.51100000000E-03 0.  1.
         11   -1    0    0    0    0 -0.00000000000E+00 -0.00000000000E+00 -0.45593999997E+02  0.45594000000E+02  0.51100000000E-03 0. -1.
    9900012    2    1    2    0    0  0.56470996184E+01  0.22080579275E+02 -0.36934836867E+02  0.47787263951E+02  0.19999967656E+02 0.  0.
        -12    1    1    2    0    0 -0.56470996184E+01 -0.22080579275E+02  0.36934836867E+02  0.43400736049E+02  0.00000000000E+00 0.  1.
         11    1    3    3    0    0  0.68090623325E+01  0.13788053424E+02 -0.14238200851E+02  0.20957101679E+02  0.51100000000E-03 0. -1.
        -11    1    3    3    0    0 -0.15653062655E+01  0.11156655779E+02 -0.16350642201E+02  0.19856098623E+02  0.51100000000E-03 0.  1.
        -12    1    3    3    0    0  0.40334355140E+00 -0.28641299281E+01 -0.63459938154E+01  0.69740636483E+01  0.00000000000E+00 0.  1.
</event>
<event>
 7    1  0.2294216E-010  0.4778728E+02  0.7816164E-02  0.1312668E+00
        -11   -1    0    0    0    0  0.00000000000E+00  0.00000000000E+00  0.45593999997E+02  0.45594000000E+02  0.51100000000E-03 0. -1.
         11   -1    0    0    0    0 -0.00000000000E+00 -0.00000000000E+00 -0.45593999997E+02  0.45594000000E+02  0.51100000000E-03 0.  1.
    9900012    2    1    2    0    0  0.19211440869E+02 -0.31527878319E+02  0.22815265916E+02  0.47787275001E+02  0.20000018041E+02 0.  0.
        -12    1    1    2    0    0 -0.19211440869E+02  0.31527878319E+02 -0.22815265916E+02  0.43400724999E+02  0.00000000000E+00 0.  1.
         11    1    3    3    0    0  0.31856076857E+01 -0.47358973336E+01  0.16158986938E+01  0.59319430822E+01  0.51100000000E-03 0.  1.
        -11    1    3    3    0    0  0.11489994854E+02 -0.18306595607E+02  0.37606766125E+01  0.21938416381E+02  0.51100000000E-03 0. -1.
         12    1    3    3    0    0  0.45358383292E+01 -0.84853853791E+01  0.17438690610E+02  0.19916915538E+02  0.00000000000E+00 0. -1.
</event>
<event>
 7    1  0.2294216E-010  0.4778727E+02  0.7816164E-02  0.1312668E+00
        -11   -1    0    0    0    0  0.00000000000E+00  0.00000000000E+00  0.45593999997E+02  0.45594000000E+02  0.51100000000E-03 0.  1.
         11   -1    0    0    0    0 -0.00000000000E+00 -0.00000000000E+00 -0.45593999997E+02  0.45594000000E+02  0.51100000000E-03 0. -1.
    9900012    2    1    2    0    0  0.20833524077E+02  0.22979061268E+02 -0.30357042261E+02  0.47787274234E+02  0.20000014542E+02 0.  0.
        -12    1    1    2    0    0 -0.20833524077E+02 -0.22979061268E+02  0.30357042261E+02  0.43400725766E+02  0.00000000000E+00 0.  1.
         11    1    3    3    0    0  0.11146689575E+01 -0.46739555631E+00 -0.26371172164E+01  0.29009193310E+01  0.51100000000E-03 0. -1.
        -11    1    3    3    0    0  0.35757434478E+01 -0.27465658371E+01 -0.41492963248E+01  0.61274974789E+01  0.51100000000E-03 0.  1.
         12    1    3    3    0    0  0.16143111672E+02  0.26193022661E+02 -0.23570628719E+02  0.38758857424E+02  0.00000000000E+00 0. -1.
</event>
<event>
 7    1  0.2294216E-010  0.4778727E+02  0.7816164E-02  0.1312668E+00
        -11   -1    0    0    0    0  0.00000000000E+00  0.00000000000E+00  0.45593999997E+02  0.45594000000E+02  0.51100000000E-03 0.  1.
         11   -1    0    0    0    0 -0.00000000000E+00 -0.00000000000E+00 -0.45593999997E+02  0.45594000000E+02  0.51100000000E-03 0. -1.
    9900012    2    1    2    0    0  0.18026685131E+02  0.39016453777E+02 -0.60314548178E+01  0.47787268562E+02  0.19999988681E+02 0.  0.
        -12    1    1    2    0    0 -0.18026685131E+02 -0.39016453777E+02  0.60314548178E+01  0.43400731438E+02  0.00000000000E+00 0.  1.
         11    1    3    3    0    0  0.50599193832E+01  0.36379848025E+01 -0.40147289173E+01  0.74132156402E+01  0.51100000000E-03 0. -1.
        -11    1    3    3    0    0  0.14279166165E+02  0.20987937101E+02 -0.42941263638E+01  0.25745438657E+02  0.51100000000E-03 0.  1.
        -12    1    3    3    0    0 -0.13124004170E+01  0.14390531873E+02  0.22774004632E+01  0.14628614265E+02  0.00000000000E+00 0.  1.
</event>
<event>
 7    1  0.2294216E-010  0.4778728E+02  0.7816164E-02  0.1312668E+00
        -11   -1    0    0    0    0  0.00000000000E+00  0.00000000000E+00  0.45593999997E+02  0.45594000000E+02  0.51100000000E-03 0.  1.
         11   -1    0    0    0    0 -0.00000000000E+00 -0.00000000000E+00 -0.45593999997E+02  0.45594000000E+02  0.51100000000E-03 0. -1.
    9900012    2    1    2    0    0 -0.59240359502E+01 -0.39363837618E+02 -0.17292093282E+02  0.47787281065E+02  0.20000045688E+02 0.  0.
        -12    1    1    2    0    0  0.59240359502E+01  0.39363837618E+02  0.17292093282E+02  0.43400718935E+02  0.00000000000E+00 0.  1.
         11    1    3    3    0    0 -0.79918823039E+01 -0.25447368345E+02 -0.12641938817E+02  0.29517068889E+02  0.51100000000E-03 0. -1.
        -11    1    3    3    0    0 -0.21841167999E+01 -0.12948909843E+02 -0.23511678590E+01  0.13340638024E+02  0.51100000000E-03 0.  1.
        -12    1    3    3    0    0  0.42519631536E+01 -0.96755943010E+00 -0.22989866065E+01  0.49295741527E+01  0.00000000000E+00 0.  1.
</event>
<event>
 7    1  0.2294216E-010  0.4778727E+02  0.7816164E-02  0.1312668E+00
        -11   -1    0    0    0    0  0.00000000000E+00  0.00000000000E+00  0.45593999997E+02  0.45594000000E+02  0.51100000000E-03 0.  1.
         11   -1    0    0    0    0 -0.00000000000E+00 -0.00000000000E+00 -0.45593999997E+02  0.45594000000E+02  0.51100000000E-03 0. -1.
    9900012    2    1    2    0    0  0.41129025404E+02  0.86702983165E+00 -0.13830217343E+02  0.47787269785E+02  0.19999994259E+02 0.  0.
        -12    1    1    2    0    0 -0.41129025404E+02 -0.86702983165E+00  0.13830217343E+02  0.43400730215E+02  0.00000000000E+00 0.  1.
         11    1    3    3    0    0  0.48185544769E+01  0.27689630441E+01 -0.21187935797E+00  0.55615210788E+01  0.51100000000E-03 0. -1.
        -11    1    3    3    0    0  0.98964190659E+01 -0.71321009406E+01 -0.34105267838E+00  0.12203372130E+02  0.51100000000E-03 0.  1.
        -12    1    3    3    0    0  0.26414051861E+02  0.52301677281E+01 -0.13277285306E+02  0.30022376576E+02  0.00000000000E+00 0.  1.
</event>
<event>
 7    1  0.2294216E-010  0.4778728E+02  0.7816164E-02  0.1312668E+00
        -11   -1    0    0    0    0  0.00000000000E+00  0.00000000000E+00  0.45593999997E+02  0.45594000000E+02  0.51100000000E-03 0. -1.
         11   -1    0    0    0    0 -0.00000000000E+00 -0.00000000000E+00 -0.45593999997E+02  0.45594000000E+02  0.51100000000E-03 0.  1.
    9900012    2    1    2    0    0 -0.20426723782E+02 -0.38193498715E+02  0.27618430979E+01  0.47787283810E+02  0.20000058201E+02 0.  0.
        -12    1    1    2    0    0  0.20426723782E+02  0.38193498715E+02 -0.27618430979E+01  0.43400716190E+02  0.00000000000E+00 0.  1.
         11    1    3    3    0    0 -0.18947535563E+02 -0.17958195256E+02  0.58727950078E+01  0.26758094144E+02  0.51100000000E-03 0. -1.
        -11    1    3    3    0    0 -0.39114739090E+00 -0.62340990673E+01  0.11547700226E+01  0.63522028878E+01  0.51100000000E-03 0.  1.
        -12    1    3    3    0    0 -0.10880408277E+01 -0.14001204392E+02 -0.42657219326E+01  0.14676986778E+02  0.00000000000E+00 0.  1.
</event>
<event>
 7    1  0.2294216E-010  0.4778727E+02  0.7816164E-02  0.1312668E+00
        -11   -1    0    0    0    0  0.00000000000E+00  0.00000000000E+00  0.45593999997E+02  0.45594000000E+02  0.51100000000E-03 0. -1.
         11   -1    0    0    0    0 -0.00000000000E+00 -0.00000000000E+00 -0.45593999997E+02  0.45594000000E+02  0.51100000000E-03 0.  1.
    9900012    2    1    2    0    0  0.52861178305E+01 -0.32198419541E+02  0.28617168141E+02  0.47787267575E+02  0.19999984180E+02 0.  0.
        -12    1    1    2    0    0 -0.52861178305E+01  0.32198419541E+02 -0.28617168141E+02  0.43400732425E+02  0.00000000000E+00 0.  1.
         11    1    3    3    0    0 -0.14873689922E-01 -0.13128885031E+01  0.85651671590E+01  0.86652170296E+01  0.51100000000E-03 0. -1.
        -11    1    3    3    0    0  0.82367596660E+01 -0.17674827032E+02  0.82780975925E+01  0.21184206863E+02  0.51100000000E-03 0.  1.
         12    1    3    3    0    0 -0.29357681456E+01 -0.13210704006E+02  0.11773903389E+02  0.17937843682E+02  0.00000000000E+00 0. -1.
</event>
<event>
 7    1  0.2294216E-010  0.4778727E+02  0.7816164E-02  0.1312668E+00
        -11   -1    0    0    0    0  0.00000000000E+00  0.00000000000E+00  0.45593999997E+02  0.45594000000E+02  0.51100000000E-03 0. -1.
         11   -1    0    0    0    0 -0.00000000000E+00 -0.00000000000E+00 -0.45593999997E+02  0.45594000000E+02  0.51100000000E-03 0.  1.
    9900012    2    1    2    0    0 -0.16603536909E+02  0.39965722903E+02 -0.32690857602E+01  0.47787269974E+02  0.19999995120E+02 0.  0.
        -12    1    1    2    0    0  0.16603536909E+02 -0.39965722903E+02  0.32690857602E+01  0.43400730026E+02  0.00000000000E+00 0.  1.
         11    1    3    3    0    0 -0.39790472740E+01  0.31696583608E+01 -0.78249624994E+00  0.51470236036E+01  0.51100000000E-03 0. -1.
        -11    1    3    3    0    0 -0.99580070553E+01  0.10372612902E+02  0.46997470780E+01  0.15127479162E+02  0.51100000000E-03 0.  1.
         12    1    3    3    0    0 -0.26664825796E+01  0.26423451640E+02 -0.71863365882E+01  0.27512767209E+02  0.00000000000E+00 0. -1.
</event>
<event>
 7    1  0.2294216E-010  0.4778727E+02  0.7816164E-02  0.1312668E+00
        -11   -1    0    0    0    0  0.00000000000E+00  0.00000000000E+00  0.45593999997E+02  0.45594000000E+02  0.51100000000E-03 0.  1.
         11   -1    0    0    0    0 -0.00000000000E+00 -0.00000000000E+00 -0.45593999997E+02  0.45594000000E+02  0.51100000000E-03 0. -1.
    9900012    2    1    2    0    0 -0.12767795272E+01  0.39369123275E+02 -0.18222656279E+02  0.47787271489E+02  0.20000002029E+02 0.  0.
        -12    1    1    2    0    0  0.12767795272E+01 -0.39369123275E+02  0.18222656279E+02  0.43400728511E+02  0.00000000000E+00 0.  1.
         11    1    3    3    0    0  0.19082611065E+01  0.32095624838E+02 -0.17425690002E+02  0.36570825346E+02  0.51100000000E-03 0. -1.
        -11    1    3    3    0    0 -0.87047958265E+00  0.13663918863E+01 -0.38490462315E+01  0.41761128629E+01  0.51100000000E-03 0.  1.
         12    1    3    3    0    0 -0.23145610510E+01  0.59071065507E+01  0.30520799538E+01  0.70403332808E+01  0.00000000000E+00 0. -1.
</event>
<event>
 7    1  0.2294216E-010  0.4778726E+02  0.7816164E-02  0.1312668E+00
        -11   -1    0    0    0    0  0.00000000000E+00  0.00000000000E+00  0.45593999997E+02  0.45594000000E+02  0.51100000000E-03 0.  1.
         11   -1    0    0    0    0 -0.00000000000E+00 -0.00000000000E+00 -0.45593999997E+02  0.45594000000E+02  0.51100000000E-03 0. -1.
    9900012    2    1    2    0    0 -0.34044281314E+02  0.14902963161E+02 -0.22416794645E+02  0.47787261719E+02  0.19999957481E+02 0.  0.
        -12    1    1    2    0    0  0.34044281314E+02 -0.14902963161E+02  0.22416794645E+02  0.43400738281E+02  0.00000000000E+00 0.  1.
         11    1    3    3    0    0  0.43581362357E+00  0.30100990557E+01 -0.46309950963E+00  0.30765388437E+01  0.51100000000E-03 0. -1.
        -11    1    3    3    0    0 -0.23928920956E+02  0.16264053322E+01 -0.15997395275E+02  0.28829760808E+02  0.51100000000E-03 0.  1.
         12    1    3    3    0    0 -0.10551173982E+02  0.10266458773E+02 -0.59562998605E+01  0.15880962067E+02  0.00000000000E+00 0. -1.
</event>
<event>
 7    1  0.2294216E-010  0.4778727E+02  0.7816164E-02  0.1312668E+00
        -11   -1    0    0    0    0  0.00000000000E+00  0.00000000000E+00  0.45593999997E+02  0.45594000000E+02  0.51100000000E-03 0.  1.
         11   -1    0    0    0    0 -0.00000000000E+00 -0.00000000000E+00 -0.45593999997E+02  0.45594000000E+02  0.51100000000E-03 0. -1.
    9900012    2    1    2    0    0 -0.39064907745E+02 -0.18284153571E+02 -0.48213976777E+01  0.47787272305E+02  0.20000005746E+02 0.  0.
        -12    1    1    2    0    0  0.39064907745E+02  0.18284153571E+02  0.48213976777E+01  0.43400727695E+02  0.00000000000E+00 0.  1.
         11    1    3    3    0    0 -0.52351845198E+01 -0.10343265986E+01 -0.13228078371E+01  0.54978913506E+01  0.51100000000E-03 0. -1.
        -11    1    3    3    0    0 -0.13437343748E+02 -0.10525705560E+02 -0.10089758858E+02  0.19828159738E+02  0.51100000000E-03 0.  1.
        -12    1    3    3    0    0 -0.20392379477E+02 -0.67241214123E+01  0.65911690170E+01  0.22461221216E+02  0.00000000000E+00 0.  1.
</event>
<event>
 7    1  0.2294216E-010  0.4778728E+02  0.7816164E-02  0.1312668E+00
        -11   -1    0    0    0    0  0.00000000000E+00  0.00000000000E+00  0.45593999997E+02  0.45594000000E+02  0.51100000000E-03 0.  1.
         11   -1    0    0    0    0 -0.00000000000E+00 -0.00000000000E+00 -0.45593999997E+02  0.45594000000E+02  0.51100000000E-03 0. -1.
    9900012    2    1    2    0    0  0.53394400300E+01  0.38573438169E+02 -0.19162545495E+02  0.47787275330E+02  0.20000019540E+02 0.  0.
        -12    1    1    2    0    0 -0.53394400300E+01 -0.38573438169E+02  0.19162545495E+02  0.43400724670E+02  0.00000000000E+00 0.  1.
         11    1    3    3    0    0  0.29013582949E+01  0.27543072510E+02 -0.85850047988E+01  0.28995534672E+02  0.51100000000E-03 0. -1.
        -11    1    3    3    0    0 -0.36183825276E+01  0.75018308601E+01 -0.42580988710E+01  0.93542270994E+01  0.51100000000E-03 0.  1.
         12    1    3    3    0    0  0.60564642627E+01  0.35285347988E+01 -0.63194418248E+01  0.94375135586E+01  0.00000000000E+00 0. -1.
</event>
<event>
 7    1  0.2294216E-010  0.4778727E+02  0.7816164E-02  0.1312668E+00
        -11   -1    0    0    0    0  0.00000000000E+00  0.00000000000E+00  0.45593999997E+02  0.45594000000E+02  0.51100000000E-03 0.  1.
         11   -1    0    0    0    0 -0.00000000000E+00 -0.00000000000E+00 -0.45593999997E+02  0.45594000000E+02  0.51100000000E-03 0. -1.
    9900012    2    1    2    0    0 -0.19126163559E+02  0.77626338188E+01 -0.38177935661E+02  0.47787269734E+02  0.19999994026E+02 0.  0.
        -12    1    1    2    0    0  0.19126163559E+02 -0.77626338188E+01  0.38177935661E+02  0.43400730266E+02  0.00000000000E+00 0.  1.
         11    1    3    3    0    0 -0.40414927426E+01  0.15071876848E+01 -0.23205023761E+00  0.43196210343E+01  0.51100000000E-03 0. -1.
        -11    1    3    3    0    0  0.16411127090E+01 -0.11502126214E+00 -0.10980513351E+02  0.11103069599E+02  0.51100000000E-03 0.  1.
         12    1    3    3    0    0 -0.16725783525E+02  0.63704673961E+01 -0.26965372072E+02  0.32364579101E+02  0.00000000000E+00 0. -1.
</event>
<event>
 7    1  0.2294216E-010  0.4778727E+02  0.7816164E-02  0.1312668E+00
        -11   -1    0    0    0    0  0.00000000000E+00  0.00000000000E+00  0.45593999997E+02  0.45594000000E+02  0.51100000000E-03 0. -1.
         11   -1    0    0    0    0 -0.00000000000E+00 -0.00000000000E+00 -0.45593999997E+02  0.45594000000E+02  0.51100000000E-03 0.  1.
    9900012    2    1    2    0    0  0.43088091720E+02  0.12805973197E+01 -0.50398008185E+01  0.47787272243E+02  0.20000005463E+02 0.  0.
        -12    1    1    2    0    0 -0.43088091720E+02 -0.12805973197E+01  0.50398008185E+01  0.43400727757E+02  0.00000000000E+00 0.  1.
         11    1    3    3    0    0  0.22375987499E+02 -0.33450304999E+00 -0.58015425282E+01  0.23118274262E+02  0.51100000000E-03 0. -1.
        -11    1    3    3    0    0  0.21560662784E+02 -0.13039685652E+01  0.36347520919E+00  0.21603116169E+02  0.51100000000E-03 0.  1.
        -12    1    3    3    0    0 -0.84855856342E+00  0.29190689348E+01  0.39826650054E+00  0.30658818124E+01  0.00000000000E+00 0.  1.
</event>
<event>
 7    1  0.2294216E-010  0.4778727E+02  0.7816164E-02  0.1312668E+00
        -11   -1    0    0    0    0  0.00000000000E+00  0.00000000000E+00  0.45593999997E+02  0.45594000000E+02  0.51100000000E-03 0.  1.
         11   -1    0    0    0    0 -0.00000000000E+00 -0.00000000000E+00 -0.45593999997E+02  0.45594000000E+02  0.51100000000E-03 0. -1.
    9900012    2    1    2    0    0  0.28726114732E+02 -0.15779650640E+01 -0.32495285843E+02  0.47787271396E+02  0.20000001603E+02 0.  0.
        -12    1    1    2    0    0 -0.28726114732E+02  0.15779650640E+01  0.32495285843E+02  0.43400728604E+02  0.00000000000E+00 0.  1.
         11    1    3    3    0    0  0.12899594692E+02 -0.45677868059E+01 -0.18139143435E+02  0.22722076145E+02  0.51100000000E-03 0. -1.
        -11    1    3    3    0    0  0.13410129811E+02  0.48587012691E+01 -0.16130807852E+02  0.21532336654E+02  0.51100000000E-03 0.  1.
        -12    1    3    3    0    0  0.24163902290E+01 -0.18688795272E+01  0.17746654440E+01  0.35328585967E+01  0.00000000000E+00 0.  1.
</event>
<event>
 7    1  0.2294216E-010  0.4778728E+02  0.7816164E-02  0.1312668E+00
        -11   -1    0    0    0    0  0.00000000000E+00  0.00000000000E+00  0.45593999997E+02  0.45594000000E+02  0.51100000000E-03 0. -1.
         11   -1    0    0    0    0 -0.00000000000E+00 -0.00000000000E+00 -0.45593999997E+02  0.45594000000E+02  0.51100000000E-03 0.  1.
    9900012    2    1    2    0    0  0.11780971278E+02  0.41669504180E+02 -0.29126993270E+01  0.47787277883E+02  0.20000031180E+02 0.  0.
        -12    1    1    2    0    0 -0.11780971278E+02 -0.41669504180E+02  0.29126993270E+01  0.43400722117E+02  0.00000000000E+00 0.  1.
         11    1    3    3    0    0 -0.84092033383E+00  0.11621660510E+02  0.23481480260E+01  0.11886292081E+02  0.51100000000E-03 0. -1.
        -11    1    3    3    0    0 -0.14275495413E+01  0.10723988937E+02 -0.52141767849E+01  0.12009557703E+02  0.51100000000E-03 0.  1.
        -12    1    3    3    0    0  0.14049441153E+02  0.19323854733E+02 -0.46670568116E-01  0.23891428099E+02  0.00000000000E+00 0.  1.
</event>
<event>
 7    1  0.2294216E-010  0.4778727E+02  0.7816164E-02  0.1312668E+00
        -11   -1    0    0    0    0  0.00000000000E+00  0.00000000000E+00  0.45593999997E+02  0.45594000000E+02  0.51100000000E-03 0.  1.
         11   -1    0    0    0    0 -0.00000000000E+00 -0.00000000000E+00 -0.45593999997E+02  0.45594000000E+02  0.51100000000E-03 0. -1.
    9900012    2    1    2    0    0 -0.59458257083E+01  0.12236016518E+02 -0.41213472658E+02  0.47787271065E+02  0.20000000093E+02 0.  0.
        -12    1    1    2    0    0  0.59458257083E+01 -0.12236016518E+02  0.41213472658E+02  0.43400728935E+02  0.00000000000E+00 0.  1.
         11    1    3    3    0    0 -0.92223973314E+01 -0.89665846753E+00 -0.14395405885E+02  0.17119705599E+02  0.51100000000E-03 0. -1.
        -11    1    3    3    0    0  0.59401655035E+00 -0.62131137640E+00 -0.14082835770E+01  0.16498928398E+01  0.51100000000E-03 0.  1.
        -12    1    3    3    0    0  0.26825550727E+01  0.13753986362E+02 -0.25409783196E+02  0.29017672626E+02  0.00000000000E+00 0.  1.
</event>
<event>
 7    1  0.2294216E-010  0.4778727E+02  0.7816164E-02  0.1312668E+00
        -11   -1    0    0    0    0  0.00000000000E+00  0.00000000000E+00  0.45593999997E+02  0.45594000000E+02  0.51100000000E-03 0.  1.
         11   -1    0    0    0    0 -0.00000000000E+00 -0.00000000000E+00 -0.45593999997E+02  0.45594000000E+02  0.51100000000E-03 0. -1.
    9900012    2    1    2    0    0  0.39378915961E+01 -0.33634249088E+02 -0.27145041408E+02  0.47787274488E+02  0.20000015701E+02 0.  0.
        -12    1    1    2    0    0 -0.39378915961E+01  0.33634249088E+02  0.27145041408E+02  0.43400725512E+02  0.00000000000E+00 0.  1.
         11    1    3    3    0    0 -0.26199012557E+01 -0.99968695075E+01 -0.13445944516E+02  0.16958617477E+02  0.51100000000E-03 0. -1.
        -11    1    3    3    0    0 -0.22487855266E+01 -0.53472892678E+01 -0.77394068359E+01  0.96720709928E+01  0.51100000000E-03 0.  1.
        -12    1    3    3    0    0  0.88065783784E+01 -0.18290090313E+02 -0.59596900553E+01  0.21156586018E+02  0.00000000000E+00 0.  1.
</event>
<event>
 7    1  0.2294216E-010  0.4778727E+02  0.7816164E-02  0.1312668E+00
        -11   -1    0    0    0    0  0.00000000000E+00  0.00000000000E+00  0.45593999997E+02  0.45594000000E+02  0.51100000000E-03 0. -1.
         11   -1    0    0    0    0 -0.00000000000E+00 -0.00000000000E+00 -0.45593999997E+02  0.45594000000E+02  0.51100000000E-03 0.  1.
    9900012    2    1    2    0    0  0.20238575842E+02 -0.37226751712E+02  0.93910737808E+01  0.47787271183E+02  0.20000000631E+02 0.  0.
        -12    1    1    2    0    0 -0.20238575842E+02  0.37226751712E+02 -0.93910737808E+01  0.43400728817E+02  0.00000000000E+00 0.  1.
         11    1    3    3    0    0  0.11134406495E+02 -0.83009930758E+01  0.47076767131E+01  0.14664368869E+02  0.51100000000E-03 0. -1.
        -11    1    3    3    0    0  0.36907841638E+01 -0.57477343171E+01  0.62649028374E+01  0.92686215451E+01  0.51100000000E-03 0.  1.
        -12    1    3    3    0    0  0.54133851829E+01 -0.23178024319E+02 -0.15815057697E+01  0.23854280768E+02  0.00000000000E+00 0.  1.
</event>
<event>
 7    1  0.2294216E-010  0.4778727E+02  0.7816164E-02  0.1312668E+00
        -11   -1    0    0    0    0  0.00000000000E+00  0.00000000000E+00  0.45593999997E+02  0.45594000000E+02  0.51100000000E-03 0. -1.
         11   -1    0    0    0    0 -0.00000000000E+00 -0.00000000000E+00 -0.45593999997E+02  0.45594000000E+02  0.51100000000E-03 0.  1.
    9900012    2    1    2    0    0 -0.78415394948E+01 -0.42666650320E+02 -0.13002144496E+01  0.47787270181E+02  0.19999996064E+02 0.  0.
        -12    1    1    2    0    0  0.78415394948E+01  0.42666650320E+02  0.13002144496E+01  0.43400729819E+02  0.00000000000E+00 0.  1.
         11    1    3    3    0    0  0.34232331457E+01 -0.27884533759E+01  0.54760298776E+00  0.44490298597E+01  0.51100000000E-03 0. -1.
        -11    1    3    3    0    0 -0.42957511784E+01 -0.22781220217E+02  0.48747205968E+01  0.23689668084E+02  0.51100000000E-03 0.  1.
        -12    1    3    3    0    0 -0.69690214621E+01 -0.17096976727E+02 -0.67225380342E+01  0.19648572238E+02  0.00000000000E+00 0.  1.
</event>
<event>
 7    1  0.2294216E-010  0.4778727E+02  0.7816164E-02  0.1312668E+00
        -11   -1    0    0    0    0  0.00000000000E+00  0.00000000000E+00  0.45593999997E+02  0.45594000000E+02  0.51100000000E-03 0. -1.
         11   -1    0    0    0    0 -0.00000000000E+00 -0.00000000000E+00 -0.45593999997E+02  0.45594000000E+02  0.51100000000E-03 0.  1.
    9900012    2    1    2    0    0 -0.17376326427E+02 -0.31757680208E+02  0.23940260642E+02  0.47787273602E+02  0.20000011660E+02 0.  0.
        -12    1    1    2    0    0  0.17376326427E+02  0.31757680208E+02 -0.23940260642E+02  0.43400726398E+02  0.00000000000E+00 0.  1.
         11    1    3    3    0    0  0.74181056484E+00  0.10077323095E+01  0.23855663384E+01  0.26938326484E+01  0.51100000000E-03 0. -1.
        -11    1    3    3    0    0 -0.71838396716E+01 -0.96222563776E+01  0.61601861533E+00  0.12023928203E+02  0.51100000000E-03 0.  1.
         12    1    3    3    0    0 -0.10934297321E+02 -0.23143156140E+02  0.20938675688E+02  0.33069512751E+02  0.00000000000E+00 0. -1.
</event>
<event>
 7    1  0.2294216E-010  0.4778727E+02  0.7816164E-02  0.1312668E+00
        -11   -1    0    0    0    0  0.00000000000E+00  0.00000000000E+00  0.45593999997E+02  0.45594000000E+02  0.51100000000E-03 0.  1.
         11   -1    0    0    0    0 -0.00000000000E+00 -0.00000000000E+00 -0.45593999997E+02  0.45594000000E+02  0.51100000000E-03 0. -1.
    9900012    2    1    2    0    0 -0.12221433973E+02  0.32502535644E+02 -0.26035459314E+02  0.47787269437E+02  0.19999992672E+02 0.  0.
        -12    1    1    2    0    0  0.12221433973E+02 -0.32502535644E+02  0.26035459314E+02  0.43400730563E+02  0.00000000000E+00 0.  1.
         11    1    3    3    0    0 -0.68738678847E+01  0.10170258412E+02 -0.86214519181E+01  0.15000454970E+02  0.51100000000E-03 0. -1.
        -11    1    3    3    0    0 -0.51679466849E+01  0.17547224503E+02 -0.42509722640E+01  0.18779870238E+02  0.51100000000E-03 0.  1.
         12    1    3    3    0    0 -0.17961940375E+00  0.47850527286E+01 -0.13163035132E+02  0.14006944229E+02  0.00000000000E+00 0. -1.
</event>
<event>
 7    1  0.2294216E-010  0.4778727E+02  0.7816164E-02  0.1312668E+00
        -11   -1    0    0    0    0  0.00000000000E+00  0.00000000000E+00  0.45593999997E+02  0.45594000000E+02  0.51100000000E-03 0.  1.
         11   -1    0    0    0    0 -0.00000000000E+00 -0.00000000000E+00 -0.45593999997E+02  0.45594000000E+02  0.51100000000E-03 0. -1.
    9900012    2    1    2    0    0  0.33280479791E+02  0.20293941676E+02 -0.19083738236E+02  0.47787268797E+02  0.19999989754E+02 0.  0.
        -12    1    1    2    0    0 -0.33280479791E+02 -0.20293941676E+02  0.19083738236E+02  0.43400731203E+02  0.00000000000E+00 0.  1.
         11    1    3    3    0    0  0.63878050475E+01 -0.17406622548E+01 -0.30691548478E+01  0.72975112299E+01  0.51100000000E-03 0. -1.
        -11    1    3    3    0    0  0.19542498426E+01  0.68483447650E+01 -0.68639395710E+01  0.98910355961E+01  0.51100000000E-03 0.  1.
         12    1    3    3    0    0  0.24938424901E+02  0.15186259166E+02 -0.91506438172E+01  0.30598721971E+02  0.00000000000E+00 0. -1.
</event>
<event>
 7    1  0.2294216E-010  0.4778727E+02  0.7816164E-02  0.1312668E+00
        -11   -1    0    0    0    0  0.00000000000E+00  0.00000000000E+00  0.45593999997E+02  0.45594000000E+02  0.51100000000E-03 0.  1.
         11   -1    0    0    0    0 -0.00000000000E+00 -0.00000000000E+00 -0.45593999997E+02  0.45594000000E+02  0.51100000000E-03 0. -1.
    9900012    2    1    2    0    0  0.38980181104E+02  0.13322507346E+02 -0.13663085185E+02  0.47787267084E+02  0.19999981943E+02 0.  0.
        -12    1    1    2    0    0 -0.38980181104E+02 -0.13322507346E+02  0.13663085185E+02  0.43400732916E+02  0.00000000000E+00 0.  1.
         11    1    3    3    0    0  0.14924898077E+01  0.15581113583E+01 -0.74261239634E+00  0.22818216984E+01  0.51100000000E-03 0. -1.
        -11    1    3    3    0    0  0.21384731850E+02  0.15996262185E+02 -0.10431913971E+02  0.28670751465E+02  0.51100000000E-03 0.  1.
         12    1    3    3    0    0  0.16102959446E+02 -0.42318661969E+01 -0.24885588177E+01  0.16834693921E+02  0.00000000000E+00 0. -1.
</event>
<event>
 7    1  0.2294216E-010  0.4778727E+02  0.7816164E-02  0.1312668E+00
        -11   -1    0    0    0    0  0.00000000000E+00  0.00000000000E+00  0.45593999997E+02  0.45594000000E+02  0.51100000000E-03 0.  1.
         11   -1    0    0    0    0 -0.00000000000E+00 -0.00000000000E+00 -0.45593999997E+02  0.45594000000E+02  0.51100000000E-03 0. -1.
    9900012    2    1    2    0    0  0.23096267462E+02  0.27082093549E+02 -0.24834369144E+02  0.47787271291E+02  0.20000001126E+02 0.  0.
        -12    1    1    2    0    0 -0.23096267462E+02 -0.27082093549E+02  0.24834369144E+02  0.43400728709E+02  0.00000000000E+00 0.  1.
         11    1    3    3    0    0  0.80062540268E+01  0.23844970434E+02 -0.13338152901E+02  0.28470845467E+02  0.51100000000E-03 0. -1.
        -11    1    3    3    0    0  0.17657504453E+01 -0.52925878322E-01 -0.17240895402E+01  0.24684328606E+01  0.51100000000E-03 0.  1.
         12    1    3    3    0    0  0.13324262990E+02  0.32900489928E+01 -0.97721267029E+01  0.16847992964E+02  0.00000000000E+00 0. -1.
</event>
<event>
 7    1  0.2294216E-010  0.4778728E+02  0.7816164E-02  0.1312668E+00
        -11   -1    0    0    0    0  0.00000000000E+00  0.00000000000E+00  0.45593999997E+02  0.45594000000E+02  0.51100000000E-03 0.  1.
         11   -1    0    0    0    0 -0.00000000000E+00 -0.00000000000E+00 -0.45593999997E+02  0.45594000000E+02  0.51100000000E-03 0. -1.
    9900012    2    1    2    0    0 -0.41066645663E+02  0.16272357681E+01 -0.13946511939E+02  0.47787280219E+02  0.20000041831E+02 0.  0.
        -12    1    1    2    0    0  0.41066645663E+02 -0.16272357681E+01  0.13946511939E+02  0.43400719781E+02  0.00000000000E+00 0.  1.
         11    1    3    3    0    0 -0.26281549800E+02 -0.40682109035E+01 -0.10018711089E+01  0.26613416651E+02  0.51100000000E-03 0. -1.
        -11    1    3    3    0    0 -0.29251259635E+01  0.31211918002E+01 -0.16183275925E+01  0.45735308694E+01  0.51100000000E-03 0.  1.
         12    1    3    3    0    0 -0.11859969899E+02  0.25742548715E+01 -0.11326313238E+02  0.16600332699E+02  0.00000000000E+00 0. -1.
</event>
<event>
 7    1  0.2294216E-010  0.4778727E+02  0.7816164E-02  0.1312668E+00
        -11   -1    0    0    0    0  0.00000000000E+00  0.00000000000E+00  0.45593999997E+02  0.45594000000E+02  0.51100000000E-03 0.  1.
         11   -1    0    0    0    0 -0.00000000000E+00 -0.00000000000E+00 -0.45593999997E+02  0.45594000000E+02  0.51100000000E-03 0. -1.
    9900012    2    1    2    0    0 -0.30562390580E+02  0.52593255368E+01 -0.30362855183E+02  0.47787271920E+02  0.20000003990E+02 0.  0.
        -12    1    1    2    0    0  0.30562390580E+02 -0.52593255368E+01  0.30362855183E+02  0.43400728080E+02  0.00000000000E+00 0.  1.
         11    1    3    3    0    0 -0.11306227536E+02  0.16124727992E+01 -0.13164497547E+02  0.17427990290E+02  0.51100000000E-03 0. -1.
        -11    1    3    3    0    0 -0.42691010115E+01  0.50439252290E+01 -0.13236925060E+02  0.14794681154E+02  0.51100000000E-03 0.  1.
         12    1    3    3    0    0 -0.14987062032E+02 -0.13970724914E+01 -0.39614325767E+01  0.15564600475E+02  0.00000000000E+00 0. -1.
</event>
<event>
 7    1  0.2294216E-010  0.4778727E+02  0.7816164E-02  0.1312668E+00
        -11   -1    0    0    0    0  0.00000000000E+00  0.00000000000E+00  0.45593999997E+02  0.45594000000E+02  0.51100000000E-03 0. -1.
         11   -1    0    0    0    0 -0.00000000000E+00 -0.00000000000E+00 -0.45593999997E+02  0.45594000000E+02  0.51100000000E-03 0.  1.
    9900012    2    1    2    0    0  0.25396507998E+02 -0.12629905921E+02  0.32850056684E+02  0.47787269981E+02  0.19999995150E+02 0.  0.
        -12    1    1    2    0    0 -0.25396507998E+02  0.12629905921E+02 -0.32850056684E+02  0.43400730019E+02  0.00000000000E+00 0.  1.
         11    1    3    3    0    0  0.31724032000E+01  0.18146562073E+01  0.45583097475E+00  0.36830559801E+01  0.51100000000E-03 0. -1.
        -11    1    3    3    0    0  0.65145928956E+01 -0.42872766376E+01  0.14316473041E+01  0.79290778674E+01  0.51100000000E-03 0.  1.
         12    1    3    3    0    0  0.15709511903E+02 -0.10157285491E+02  0.30962578405E+02  0.36175136133E+02  0.00000000000E+00 0. -1.
</event>
<event>
 7    1  0.2294216E-010  0.4778727E+02  0.7816164E-02  0.1312668E+00
        -11   -1    0    0    0    0  0.00000000000E+00  0.00000000000E+00  0.45593999997E+02  0.45594000000E+02  0.51100000000E-03 0.  1.
         11   -1    0    0    0    0 -0.00000000000E+00 -0.00000000000E+00 -0.45593999997E+02  0.45594000000E+02  0.51100000000E-03 0. -1.
    9900012    2    1    2    0    0 -0.33322700365E+02  0.74854663863E+01 -0.26780378864E+02  0.47787271218E+02  0.20000000793E+02 0.  0.
        -12    1    1    2    0    0  0.33322700365E+02 -0.74854663863E+01  0.26780378864E+02  0.43400728782E+02  0.00000000000E+00 0.  1.
         11    1    3    3    0    0 -0.26971399292E+02  0.32332239213E+01 -0.21424216679E+02  0.34596346299E+02  0.51100000000E-03 0. -1.
        -11    1    3    3    0    0 -0.63503285047E+01  0.31339945733E+01 -0.77807611629E+01  0.10520876325E+02  0.51100000000E-03 0.  1.
        -12    1    3    3    0    0 -0.97256867571E-03  0.11182478916E+01  0.24245989778E+01  0.26700485943E+01  0.00000000000E+00 0.  1.
</event>
<event>
 7    1  0.2294216E-010  0.4778727E+02  0.7816164E-02  0.1312668E+00
        -11   -1    0    0    0    0  0.00000000000E+00  0.00000000000E+00  0.45593999997E+02  0.45594000000E+02  0.51100000000E-03 0.  1.
         11   -1    0    0    0    0 -0.00000000000E+00 -0.00000000000E+00 -0.45593999997E+02  0.45594000000E+02  0.51100000000E-03 0. -1.
    9900012    2    1    2    0    0 -0.14598104791E+01 -0.40159280582E+02 -0.16392810847E+02  0.47787272921E+02  0.20000008557E+02 0.  0.
        -12    1    1    2    0    0  0.14598104791E+01  0.40159280582E+02  0.16392810847E+02  0.43400727079E+02  0.00000000000E+00 0.  1.
         11    1    3    3    0    0 -0.58769791961E+01 -0.24414236951E+02 -0.67251740188E+01  0.25996573163E+02  0.51100000000E-03 0. -1.
        -11    1    3    3    0    0  0.29632238426E+01 -0.38327816587E+01  0.18226279193E+01  0.51761842682E+01  0.51100000000E-03 0.  1.
        -12    1    3    3    0    0  0.14539448744E+01 -0.11912261972E+02 -0.11490264748E+02  0.16614515490E+02  0.00000000000E+00 0.  1.
</event>
<event>
 7    1  0.2294216E-010  0.4778727E+02  0.7816164E-02  0.1312668E+00
        -11   -1    0    0    0    0  0.00000000000E+00  0.00000000000E+00  0.45593999997E+02  0.45594000000E+02  0.51100000000E-03 0. -1.
         11   -1    0    0    0    0 -0.00000000000E+00 -0.00000000000E+00 -0.45593999997E+02  0.45594000000E+02  0.51100000000E-03 0.  1.
    9900012    2    1    2    0    0  0.21112320744E+02  0.12324479786E+02  0.35860846310E+02  0.47787272042E+02  0.20000004550E+02 0.  0.
        -12    1    1    2    0    0 -0.21112320744E+02 -0.12324479786E+02 -0.35860846310E+02  0.43400727958E+02  0.00000000000E+00 0.  1.
         11    1    3    3    0    0  0.62603778387E+01  0.49861809752E+01  0.94005862924E+01  0.12346066349E+02  0.51100000000E-03 0. -1.
        -11    1    3    3    0    0  0.86590818418E+01  0.10753378539E+02  0.24467033874E+02  0.28093604169E+02  0.51100000000E-03 0.  1.
         12    1    3    3    0    0  0.61928610631E+01 -0.34150797284E+01  0.19932261440E+01  0.73476015242E+01  0.00000000000E+00 0. -1.
</event>
<event>
 7    1  0.2294216E-010  0.4778727E+02  0.7816164E-02  0.1312668E+00
        -11   -1    0    0    0    0  0.00000000000E+00  0.00000000000E+00  0.45593999997E+02  0.45594000000E+02  0.51100000000E-03 0. -1.
         11   -1    0    0    0    0 -0.00000000000E+00 -0.00000000000E+00 -0.45593999997E+02  0.45594000000E+02  0.51100000000E-03 0.  1.
    9900012    2    1    2    0    0 -0.24645604989E+02 -0.34375373484E+02 -0.97237502554E+01  0.47787268825E+02  0.19999989882E+02 0.  0.
        -12    1    1    2    0    0  0.24645604989E+02  0.34375373484E+02  0.97237502554E+01  0.43400731175E+02  0.00000000000E+00 0.  1.
         11    1    3    3    0    0 -0.11886964501E+02 -0.87315392277E+01 -0.56620068377E+01  0.15798671591E+02  0.51100000000E-03 0. -1.
        -11    1    3    3    0    0 -0.25457063878E+01 -0.87195123076E+01 -0.76776183420E+01  0.11893541927E+02  0.51100000000E-03 0.  1.
         12    1    3    3    0    0 -0.10212934100E+02 -0.16924321949E+02  0.36158749243E+01  0.20095055308E+02  0.00000000000E+00 0. -1.
</event>
<event>
 7    1  0.2294216E-010  0.4778727E+02  0.7816164E-02  0.1312668E+00
        -11   -1    0    0    0    0  0.00000000000E+00  0.00000000000E+00  0.45593999997E+02  0.45594000000E+02  0.51100000000E-03 0.  1.
         11   -1    0    0    0    0 -0.00000000000E+00 -0.00000000000E+00 -0.45593999997E+02  0.45594000000E+02  0.51100000000E-03 0. -1.
    9900012    2    1    2    0    0 -0.23486565120E+02  0.20032812683E+02 -0.30507229286E+02  0.47787270008E+02  0.19999995277E+02 0.  0.
        -12    1    1    2    0    0  0.23486565120E+02 -0.20032812683E+02  0.30507229286E+02  0.43400729992E+02  0.00000000000E+00 0.  1.
         11    1    3    3    0    0 -0.20491076347E+01 -0.26799483856E+00 -0.38928294015E+00  0.21029038972E+01  0.51100000000E-03 0. -1.
        -11    1    3    3    0    0 -0.75768210993E+01 -0.14641400872E+01 -0.11564716765E+02  0.13903042770E+02  0.51100000000E-03 0.  1.
         12    1    3    3    0    0 -0.13860636386E+02  0.21764947609E+02 -0.18553229581E+02  0.31781323341E+02  0.00000000000E+00 0. -1.
</event>
<event>
 7    1  0.2294216E-010  0.4778725E+02  0.7816164E-02  0.1312668E+00
        -11   -1    0    0    0    0  0.00000000000E+00  0.00000000000E+00  0.45593999997E+02  0.45594000000E+02  0.51100000000E-03 0.  1.
         11   -1    0    0    0    0 -0.00000000000E+00 -0.00000000000E+00 -0.45593999997E+02  0.45594000000E+02  0.51100000000E-03 0. -1.
    9900012    2    1    2    0    0  0.39261001142E+02  0.51722355001E+01 -0.17760812036E+02  0.47787254904E+02  0.19999926408E+02 0.  0.
        -12    1    1    2    0    0 -0.39261001142E+02 -0.51722355001E+01  0.17760812036E+02  0.43400745096E+02  0.00000000000E+00 0.  1.
         11    1    3    3    0    0  0.65640806232E+01 -0.25486051467E+01  0.17615456263E+01  0.72584837175E+01  0.51100000000E-03 0. -1.
        -11    1    3    3    0    0 -0.84273839771E+00  0.98436102274E+00 -0.52295615981E+00  0.13973754099E+01  0.51100000000E-03 0.  1.
         12    1    3    3    0    0  0.33539658917E+02  0.67364796241E+01 -0.18999401502E+02  0.39131395776E+02  0.00000000000E+00 0. -1.
</event>
<event>
 7    1  0.2294216E-010  0.4778728E+02  0.7816164E-02  0.1312668E+00
        -11   -1    0    0    0    0  0.00000000000E+00  0.00000000000E+00  0.45593999997E+02  0.45594000000E+02  0.51100000000E-03 0.  1.
         11   -1    0    0    0    0 -0.00000000000E+00 -0.00000000000E+00 -0.45593999997E+02  0.45594000000E+02  0.51100000000E-03 0. -1.
    9900012    2    1    2    0    0  0.37130626922E+02  0.20796836539E+02 -0.85106374386E+01  0.47787276328E+02  0.20000024089E+02 0.  0.
        -12    1    1    2    0    0 -0.37130626922E+02 -0.20796836539E+02  0.85106374386E+01  0.43400723672E+02  0.00000000000E+00 0.  1.
         11    1    3    3    0    0  0.13037583800E+02  0.69238074619E+01  0.23743366157E+01  0.14951761627E+02  0.51100000000E-03 0. -1.
        -11    1    3    3    0    0  0.11373199519E+02 -0.75412575418E-01 -0.72208026085E+00  0.11396348298E+02  0.51100000000E-03 0.  1.
         12    1    3    3    0    0  0.12719843603E+02  0.13948441652E+02 -0.10162893793E+02  0.21439166403E+02  0.00000000000E+00 0. -1.
</event>
<event>
 7    1  0.2294216E-010  0.4778727E+02  0.7816164E-02  0.1312668E+00
        -11   -1    0    0    0    0  0.00000000000E+00  0.00000000000E+00  0.45593999997E+02  0.45594000000E+02  0.51100000000E-03 0. -1.
         11   -1    0    0    0    0 -0.00000000000E+00 -0.00000000000E+00 -0.45593999997E+02  0.45594000000E+02  0.51100000000E-03 0.  1.
    9900012    2    1    2    0    0 -0.22323232867E+01  0.12955293108E+02  0.41361820466E+02  0.47787273289E+02  0.20000010233E+02 0.  0.
        -12    1    1    2    0    0  0.22323232867E+01 -0.12955293108E+02 -0.41361820466E+02  0.43400726711E+02  0.00000000000E+00 0.  1.
         11    1    3    3    0    0 -0.18228449686E+01  0.89299865835E+01  0.48616532185E+01  0.10329719088E+02  0.51100000000E-03 0. -1.
        -11    1    3    3    0    0 -0.11324288899E+01  0.16792398632E+01  0.19214809485E+01  0.27918329115E+01  0.51100000000E-03 0.  1.
        -12    1    3    3    0    0  0.72295057182E+00  0.23460666612E+01  0.34578686299E+02  0.34665721289E+02  0.00000000000E+00 0.  1.
</event>
<event>
 7    1  0.2294216E-010  0.4778727E+02  0.7816164E-02  0.1312668E+00
        -11   -1    0    0    0    0  0.00000000000E+00  0.00000000000E+00  0.45593999997E+02  0.45594000000E+02  0.51100000000E-03 0.  1.
         11   -1    0    0    0    0 -0.00000000000E+00 -0.00000000000E+00 -0.45593999997E+02  0.45594000000E+02  0.51100000000E-03 0. -1.
    9900012    2    1    2    0    0  0.39212580399E+02 -0.15139486726E+02 -0.10807062581E+02  0.47787272800E+02  0.20000008003E+02 0.  0.
        -12    1    1    2    0    0 -0.39212580399E+02  0.15139486726E+02  0.10807062581E+02  0.43400727200E+02  0.00000000000E+00 0.  1.
         11    1    3    3    0    0  0.33079672990E+02 -0.74254412315E+01 -0.53618040037E+01  0.34324202613E+02  0.51100000000E-03 0. -1.
        -11    1    3    3    0    0  0.41308205286E+01 -0.42474428752E+01  0.86743185941E+00  0.59880620830E+01  0.51100000000E-03 0.  1.
         12    1    3    3    0    0  0.20020868805E+01 -0.34666026196E+01 -0.63126904368E+01  0.74750081037E+01  0.00000000000E+00 0. -1.
</event>
<event>
 7    1  0.2294216E-010  0.4778727E+02  0.7816164E-02  0.1312668E+00
        -11   -1    0    0    0    0  0.00000000000E+00  0.00000000000E+00  0.45593999997E+02  0.45594000000E+02  0.51100000000E-03 0. -1.
         11   -1    0    0    0    0 -0.00000000000E+00 -0.00000000000E+00 -0.45593999997E+02  0.45594000000E+02  0.51100000000E-03 0.  1.
    9900012    2    1    2    0    0  0.27033966529E+02  0.13530520762E+02  0.31140209928E+02  0.47787274053E+02  0.20000013717E+02 0.  0.
        -12    1    1    2    0    0 -0.27033966529E+02 -0.13530520762E+02 -0.31140209928E+02  0.43400725947E+02  0.00000000000E+00 0.  1.
         11    1    3    3    0    0  0.72831175778E+00  0.47904486120E+01  0.98231693652E+01  0.10953241190E+02  0.51100000000E-03 0. -1.
        -11    1    3    3    0    0 -0.91432968031E+00  0.77140930768E-01  0.24089693623E+01  0.25778058765E+01  0.51100000000E-03 0.  1.
        -12    1    3    3    0    0  0.27219984451E+02  0.86629312192E+01  0.18908071201E+02  0.34256226987E+02  0.00000000000E+00 0.  1.
</event>
<event>
 7    1  0.2294216E-010  0.4778727E+02  0.7816164E-02  0.1312668E+00
        -11   -1    0    0    0    0  0.00000000000E+00  0.00000000000E+00  0.45593999997E+02  0.45594000000E+02  0.51100000000E-03 0. -1.
         11   -1    0    0    0    0 -0.00000000000E+00 -0.00000000000E+00 -0.45593999997E+02  0.45594000000E+02  0.51100000000E-03 0.  1.
    9900012    2    1    2    0    0 -0.28733778477E+02  0.32477578532E+02 -0.17889431741E+01  0.47787269008E+02  0.19999990717E+02 0.  0.
        -12    1    1    2    0    0  0.28733778477E+02 -0.32477578532E+02  0.17889431741E+01  0.43400730992E+02  0.00000000000E+00 0.  1.
         11    1    3    3    0    0 -0.18683155880E+02  0.24201139175E+02 -0.67687411065E+01  0.31314075229E+02  0.51100000000E-03 0. -1.
        -11    1    3    3    0    0 -0.98060575584E+01  0.30268100469E+01  0.20810922371E+01  0.10471451144E+02  0.51100000000E-03 0.  1.
        -12    1    3    3    0    0 -0.24456503877E+00  0.52496293104E+01  0.28987056954E+01  0.60017426355E+01  0.00000000000E+00 0.  1.
</event>
<event>
 7    1  0.2294216E-010  0.4778726E+02  0.7816164E-02  0.1312668E+00
        -11   -1    0    0    0    0  0.00000000000E+00  0.00000000000E+00  0.45593999997E+02  0.45594000000E+02  0.51100000000E-03 0.  1.
         11   -1    0    0    0    0 -0.00000000000E+00 -0.00000000000E+00 -0.45593999997E+02  0.45594000000E+02  0.51100000000E-03 0. -1.
    9900012    2    1    2    0    0  0.27090600012E+02 -0.32335218198E+02 -0.10205754918E+02  0.47787258320E+02  0.19999941984E+02 0.  0.
        -12    1    1    2    0    0 -0.27090600012E+02  0.32335218198E+02  0.10205754918E+02  0.43400741680E+02  0.00000000000E+00 0.  1.
         11    1    3    3    0    0  0.13437545303E+02 -0.20935556396E+02 -0.10796164953E+02  0.27118671120E+02  0.51100000000E-03 0. -1.
        -11    1    3    3    0    0  0.45443103711E+01 -0.10478456734E+02 -0.59526518031E+00  0.11436920616E+02  0.51100000000E-03 0.  1.
        -12    1    3    3    0    0  0.91087443379E+01 -0.92120506774E+00  0.11856752153E+01  0.92316665833E+01  0.00000000000E+00 0.  1.
</event>
<event>
 7    1  0.2294216E-010  0.4778727E+02  0.7816164E-02  0.1312668E+00
        -11   -1    0    0    0    0  0.00000000000E+00  0.00000000000E+00  0.45593999997E+02  0.45594000000E+02  0.51100000000E-03 0. -1.
         11   -1    0    0    0    0 -0.00000000000E+00 -0.00000000000E+00 -0.45593999997E+02  0.45594000000E+02  0.51100000000E-03 0.  1.
    9900012    2    1    2    0    0  0.43091483692E+02  0.43392789319E+01 -0.28139320146E+01  0.47787268188E+02  0.19999986978E+02 0.  0.
        -12    1    1    2    0    0 -0.43091483692E+02 -0.43392789319E+01  0.28139320146E+01  0.43400731812E+02  0.00000000000E+00 0.  1.
         11    1    3    3    0    0  0.14007069360E+02 -0.19724313312E+01 -0.68243461965E+01  0.15705418768E+02  0.51100000000E-03 0. -1.
        -11    1    3    3    0    0 -0.99631325663E+00  0.68084850711E+00 -0.64935548322E-01  0.12084749404E+01  0.51100000000E-03 0.  1.
         12    1    3    3    0    0  0.30080727588E+02  0.56308617560E+01  0.40753497302E+01  0.30873374480E+02  0.00000000000E+00 0. -1.
</event>
<event>
 7    1  0.2294216E-010  0.4778726E+02  0.7816164E-02  0.1312668E+00
        -11   -1    0    0    0    0  0.00000000000E+00  0.00000000000E+00  0.45593999997E+02  0.45594000000E+02  0.51100000000E-03 0.  1.
         11   -1    0    0    0    0 -0.00000000000E+00 -0.00000000000E+00 -0.45593999997E+02  0.45594000000E+02  0.51100000000E-03 0. -1.
    9900012    2    1    2    0    0  0.35585424597E+02  0.55229016778E+01 -0.24223935388E+02  0.47787263458E+02  0.19999965412E+02 0.  0.
        -12    1    1    2    0    0 -0.35585424597E+02 -0.55229016778E+01  0.24223935388E+02  0.43400736542E+02  0.00000000000E+00 0.  1.
         11    1    3    3    0    0  0.91388312634E+01 -0.48849571776E+00 -0.80749133926E+01  0.12204961757E+02  0.51100000000E-03 0. -1.
        -11    1    3    3    0    0  0.20853317764E+02  0.25261638581E+01 -0.19072625493E+02  0.28372652486E+02  0.51100000000E-03 0.  1.
        -12    1    3    3    0    0  0.55932755691E+01  0.34852335375E+01  0.29236034977E+01  0.72096492158E+01  0.00000000000E+00 0.  1.
</event>
<event>
 7    1  0.2294216E-010  0.4778727E+02  0.7816164E-02  0.1312668E+00
        -11   -1    0    0    0    0  0.00000000000E+00  0.00000000000E+00  0.45593999997E+02  0.45594000000E+02  0.51100000000E-03 0. -1.
         11   -1    0    0    0    0 -0.00000000000E+00 -0.00000000000E+00 -0.45593999997E+02  0.45594000000E+02  0.51100000000E-03 0.  1.
    9900012    2    1    2    0    0  0.18524683007E+02  0.16287606116E+02  0.35709567962E+02  0.47787271463E+02  0.20000001908E+02 0.  0.
        -12    1    1    2    0    0 -0.18524683007E+02 -0.16287606116E+02 -0.35709567962E+02  0.43400728537E+02  0.00000000000E+00 0.  1.
         11    1    3    3    0    0  0.11345433810E+02  0.46851992401E-01  0.13989319898E+02  0.18011722153E+02  0.51100000000E-03 0. -1.
        -11    1    3    3    0    0  0.64017004890E+01  0.77473835331E+01  0.17682897246E+02  0.20339335683E+02  0.51100000000E-03 0.  1.
        -12    1    3    3    0    0  0.77754870828E+00  0.84933705906E+01  0.40373508182E+01  0.94362136268E+01  0.00000000000E+00 0.  1.
</event>
<event>
 7    1  0.2294216E-010  0.4778727E+02  0.7816164E-02  0.1312668E+00
        -11   -1    0    0    0    0  0.00000000000E+00  0.00000000000E+00  0.45593999997E+02  0.45594000000E+02  0.51100000000E-03 0.  1.
         11   -1    0    0    0    0 -0.00000000000E+00 -0.00000000000E+00 -0.45593999997E+02  0.45594000000E+02  0.51100000000E-03 0. -1.
    9900012    2    1    2    0    0  0.30050267731E+02 -0.31000617592E+02 -0.44233814555E+01  0.47787272065E+02  0.20000004653E+02 0.  0.
        -12    1    1    2    0    0 -0.30050267731E+02  0.31000617592E+02  0.44233814555E+01  0.43400727935E+02  0.00000000000E+00 0.  1.
         11    1    3    3    0    0 -0.93390621847E+00 -0.31237279960E+01  0.67568717714E+00  0.33296262313E+01  0.51100000000E-03 0. -1.
        -11    1    3    3    0    0  0.12739462695E+02 -0.13576702654E+02  0.48385192047E+01  0.19236216704E+02  0.51100000000E-03 0.  1.
         12    1    3    3    0    0  0.18244711255E+02 -0.14300186942E+02 -0.99375878374E+01  0.25221429130E+02  0.00000000000E+00 0. -1.
</event>
<event>
 7    1  0.2294216E-010  0.4778727E+02  0.7816164E-02  0.1312668E+00
        -11   -1    0    0    0    0  0.00000000000E+00  0.00000000000E+00  0.45593999997E+02  0.45594000000E+02  0.51100000000E-03 0. -1.
         11   -1    0    0    0    0 -0.00000000000E+00 -0.00000000000E+00 -0.45593999997E+02  0.45594000000E+02  0.51100000000E-03 0.  1.
    9900012    2    1    2    0    0 -0.13629835715E+02  0.29370087024E+02  0.28900668815E+02  0.47787273147E+02  0.20000009588E+02 0.  0.
        -12    1    1    2    0    0  0.13629835715E+02 -0.29370087024E+02 -0.28900668815E+02  0.43400726853E+02  0.00000000000E+00 0.  1.
         11    1    3    3    0    0 -0.61511501430E+01  0.19958827154E+02  0.15505210921E+02  0.26011593480E+02  0.51100000000E-03 0. -1.
        -11    1    3    3    0    0 -0.38062778598E+01  0.68905719553E+01  0.22802826174E+00  0.78752606412E+01  0.51100000000E-03 0.  1.
        -12    1    3    3    0    0 -0.36724077120E+01  0.25206879149E+01  0.13167429632E+02  0.13900419026E+02  0.00000000000E+00 0.  1.
</event>
<event>
 7    1  0.2294216E-010  0.4778727E+02  0.7816164E-02  0.1312668E+00
        -11   -1    0    0    0    0  0.00000000000E+00  0.00000000000E+00  0.45593999997E+02  0.45594000000E+02  0.51100000000E-03 0. -1.
         11   -1    0    0    0    0 -0.00000000000E+00 -0.00000000000E+00 -0.45593999997E+02  0.45594000000E+02  0.51100000000E-03 0.  1.
    9900012    2    1    2    0    0 -0.38835288388E+01 -0.27002712163E+01  0.43142207186E+02  0.47787270723E+02  0.19999998534E+02 0.  0.
        -12    1    1    2    0    0  0.38835288388E+01  0.27002712163E+01 -0.43142207186E+02  0.43400729277E+02  0.00000000000E+00 0.  1.
         11    1    3    3    0    0 -0.60846377080E+01  0.51205636379E+00  0.12729976511E+02  0.14118686907E+02  0.51100000000E-03 0. -1.
        -11    1    3    3    0    0 -0.28706716095E+01 -0.47566427631E+01  0.43049923326E+01  0.70284681908E+01  0.51100000000E-03 0.  1.
        -12    1    3    3    0    0  0.50717804787E+01  0.15443151830E+01  0.26107238343E+02  0.26640115625E+02  0.00000000000E+00 0.  1.
</event>
<event>
 7    1  0.2294216E-010  0.4778727E+02  0.7816164E-02  0.1312668E+00
        -11   -1    0    0    0    0  0.00000000000E+00  0.00000000000E+00  0.45593999997E+02  0.45594000000E+02  0.51100000000E-03 0.  1.
         11   -1    0    0    0    0 -0.00000000000E+00 -0.00000000000E+00 -0.45593999997E+02  0.45594000000E+02  0.51100000000E-03 0. -1.
    9900012    2    1    2    0    0  0.11810766079E+02 -0.29946080743E+02 -0.29109470519E+02  0.47787271652E+02  0.20000002770E+02 0.  0.
        -12    1    1    2    0    0 -0.11810766079E+02  0.29946080743E+02  0.29109470519E+02  0.43400728348E+02  0.00000000000E+00 0.  1.
         11    1    3    3    0    0  0.27642767579E+01 -0.35431877058E+01 -0.13857994717E+02  0.14568439276E+02  0.51100000000E-03 0. -1.
        -11    1    3    3    0    0  0.37810294870E+01 -0.31033090786E+01 -0.56526288387E+01  0.74752206836E+01  0.51100000000E-03 0.  1.
        -12    1    3    3    0    0  0.52654598338E+01 -0.23299583959E+02 -0.95988469630E+01  0.25743611692E+02  0.00000000000E+00 0.  1.
</event>
<event>
 7    1  0.2294216E-010  0.4778727E+02  0.7816164E-02  0.1312668E+00
        -11   -1    0    0    0    0  0.00000000000E+00  0.00000000000E+00  0.45593999997E+02  0.45594000000E+02  0.51100000000E-03 0.  1.
         11   -1    0    0    0    0 -0.00000000000E+00 -0.00000000000E+00 -0.45593999997E+02  0.45594000000E+02  0.51100000000E-03 0. -1.
    9900012    2    1    2    0    0  0.21286000997E+02  0.15973611600E+02 -0.34283718294E+02  0.47787269061E+02  0.19999990956E+02 0.  0.
        -12    1    1    2    0    0 -0.21286000997E+02 -0.15973611600E+02  0.34283718294E+02  0.43400730939E+02  0.00000000000E+00 0.  1.
         11    1    3    3    0    0  0.72333225453E+01  0.12024366371E+02 -0.16593062338E+02  0.21730993067E+02  0.51100000000E-03 0. -1.
        -11    1    3    3    0    0 -0.40240109791E+00  0.31040216993E+01 -0.81122060860E+01  0.86951000683E+01  0.51100000000E-03 0.  1.
         12    1    3    3    0    0  0.14455079550E+02  0.84522352927E+00 -0.95784498699E+01  0.17361175926E+02  0.00000000000E+00 0. -1.
</event>
<event>
 7    1  0.2294216E-010  0.4778727E+02  0.7816164E-02  0.1312668E+00
        -11   -1    0    0    0    0  0.00000000000E+00  0.00000000000E+00  0.45593999997E+02  0.45594000000E+02  0.51100000000E-03 0.  1.
         11   -1    0    0    0    0 -0.00000000000E+00 -0.00000000000E+00 -0.45593999997E+02  0.45594000000E+02  0.51100000000E-03 0. -1.
    9900012    2    1    2    0    0  0.32781769390E+02 -0.27421539810E+02 -0.75523581018E+01  0.47787270020E+02  0.19999995331E+02 0.  0.
        -12    1    1    2    0    0 -0.32781769390E+02  0.27421539810E+02  0.75523581018E+01  0.43400729980E+02  0.00000000000E+00 0.  1.
         11    1    3    3    0    0  0.34783731005E+01 -0.27389618422E+01 -0.46829141920E+01  0.64444299197E+01  0.51100000000E-03 0. -1.
        -11    1    3    3    0    0  0.27071617396E+02 -0.18184513645E+02 -0.69602395038E+01  0.33346573124E+02  0.51100000000E-03 0.  1.
        -12    1    3    3    0    0  0.22317788939E+01 -0.64980643221E+01  0.40907955939E+01  0.79962669763E+01  0.00000000000E+00 0.  1.
</event>
<event>
 7    1  0.2294216E-010  0.4778726E+02  0.7816164E-02  0.1312668E+00
        -11   -1    0    0    0    0  0.00000000000E+00  0.00000000000E+00  0.45593999997E+02  0.45594000000E+02  0.51100000000E-03 0.  1.
         11   -1    0    0    0    0 -0.00000000000E+00 -0.00000000000E+00 -0.45593999997E+02  0.45594000000E+02  0.51100000000E-03 0. -1.
    9900012    2    1    2    0    0 -0.23923984971E+02  0.34755753630E+02 -0.10163912806E+02  0.47787255873E+02  0.19999930825E+02 0.  0.
        -12    1    1    2    0    0  0.23923984971E+02 -0.34755753630E+02  0.10163912806E+02  0.43400744127E+02  0.00000000000E+00 0.  1.
         11    1    3    3    0    0 -0.14838458279E+02  0.20267056315E+02 -0.10934206932E+02  0.27395077975E+02  0.51100000000E-03 0. -1.
        -11    1    3    3    0    0 -0.58329703623E+01  0.82927326762E+01 -0.50162983775E+01  0.11311772989E+02  0.51100000000E-03 0.  1.
        -12    1    3    3    0    0 -0.32525563295E+01  0.61959646392E+01  0.57865925040E+01  0.90804049081E+01  0.00000000000E+00 0.  1.
</event>
<event>
 7    1  0.2294216E-010  0.4778727E+02  0.7816164E-02  0.1312668E+00
        -11   -1    0    0    0    0  0.00000000000E+00  0.00000000000E+00  0.45593999997E+02  0.45594000000E+02  0.51100000000E-03 0. -1.
         11   -1    0    0    0    0 -0.00000000000E+00 -0.00000000000E+00 -0.45593999997E+02  0.45594000000E+02  0.51100000000E-03 0.  1.
    9900012    2    1    2    0    0  0.74678502748E+01 -0.88388055092E+01  0.41829774907E+02  0.47787270290E+02  0.19999996562E+02 0.  0.
        -12    1    1    2    0    0 -0.74678502748E+01  0.88388055092E+01 -0.41829774907E+02  0.43400729710E+02  0.00000000000E+00 0.  1.
         11    1    3    3    0    0  0.55569084365E+01  0.19330701672E+01  0.18532998036E+02  0.19444485287E+02  0.51100000000E-03 0. -1.
        -11    1    3    3    0    0  0.25823692308E+01 -0.73651383650E+01  0.23600220866E+02  0.24857278998E+02  0.51100000000E-03 0.  1.
        -12    1    3    3    0    0 -0.67142739258E+00 -0.34067373113E+01 -0.30344399511E+00  0.34855060049E+01  0.00000000000E+00 0.  1.
</event>
<event>
 7    1  0.2294216E-010  0.4778727E+02  0.7816164E-02  0.1312668E+00
        -11   -1    0    0    0    0  0.00000000000E+00  0.00000000000E+00  0.45593999997E+02  0.45594000000E+02  0.51100000000E-03 0.  1.
         11   -1    0    0    0    0 -0.00000000000E+00 -0.00000000000E+00 -0.45593999997E+02  0.45594000000E+02  0.51100000000E-03 0. -1.
    9900012    2    1    2    0    0 -0.32560563032E+02 -0.23588007706E+02 -0.16341331505E+02  0.47787268579E+02  0.19999988759E+02 0.  0.
        -12    1    1    2    0    0  0.32560563032E+02  0.23588007706E+02  0.16341331505E+02  0.43400731421E+02  0.00000000000E+00 0.  1.
         11    1    3    3    0    0 -0.25160150348E+02 -0.16178560753E+02 -0.67622462187E+01  0.30667686051E+02  0.51100000000E-03 0. -1.
        -11    1    3    3    0    0 -0.95826467904E+01 -0.56387448749E+01 -0.88648365089E+01  0.14219982063E+02  0.51100000000E-03 0.  1.
        -12    1    3    3    0    0  0.21822341057E+01 -0.17707020781E+01 -0.71424877700E+00  0.28996004651E+01  0.00000000000E+00 0.  1.
</event>
<event>
 7    1  0.2294216E-010  0.4778729E+02  0.7816164E-02  0.1312668E+00
        -11   -1    0    0    0    0  0.00000000000E+00  0.00000000000E+00  0.45593999997E+02  0.45594000000E+02  0.51100000000E-03 0.  1.
         11   -1    0    0    0    0 -0.00000000000E+00 -0.00000000000E+00 -0.45593999997E+02  0.45594000000E+02  0.51100000000E-03 0. -1.
    9900012    2    1    2    0    0  0.43229458253E+02  0.38393411854E+01  0.30838062732E+00  0.47787289174E+02  0.20000082660E+02 0.  0.
        -12    1    1    2    0    0 -0.43229458253E+02 -0.38393411854E+01 -0.30838062732E+00  0.43400710826E+02  0.00000000000E+00 0.  1.
         11    1    3    3    0    0  0.15027300099E+02  0.42385655329E+01 -0.40767203216E+01  0.16137064010E+02  0.51100000000E-03 0. -1.
        -11    1    3    3    0    0  0.78500523812E+01  0.54703736283E+01  0.42466725526E+01  0.10468167846E+02  0.51100000000E-03 0.  1.
        -12    1    3    3    0    0  0.20352105773E+02 -0.58695979758E+01  0.13842839634E+00  0.21182057318E+02  0.00000000000E+00 0.  1.
</event>
<event>
 7    1  0.2294216E-010  0.4778727E+02  0.7816164E-02  0.1312668E+00
        -11   -1    0    0    0    0  0.00000000000E+00  0.00000000000E+00  0.45593999997E+02  0.45594000000E+02  0.51100000000E-03 0.  1.
         11   -1    0    0    0    0 -0.00000000000E+00 -0.00000000000E+00 -0.45593999997E+02  0.45594000000E+02  0.51100000000E-03 0. -1.
    9900012    2    1    2    0    0 -0.25927619110E+02 -0.13652852448E+02 -0.32015329984E+02  0.47787272279E+02  0.20000005631E+02 0.  0.
        -12    1    1    2    0    0  0.25927619110E+02  0.13652852448E+02  0.32015329984E+02  0.43400727721E+02  0.00000000000E+00 0.  1.
         11    1    3    3    0    0 -0.57473145568E+01  0.19609981579E+01 -0.56401305831E+01  0.82878351604E+01  0.51100000000E-03 0. -1.
        -11    1    3    3    0    0  0.27365093606E+00 -0.15592032478E+01 -0.91600065675E+01  0.92957904548E+01  0.51100000000E-03 0.  1.
         12    1    3    3    0    0 -0.20453955490E+02 -0.14054647358E+02 -0.17215192833E+02  0.30203646664E+02  0.00000000000E+00 0. -1.
</event>
<event>
 7    1  0.2294216E-010  0.4778727E+02  0.7816164E-02  0.1312668E+00
        -11   -1    0    0    0    0  0.00000000000E+00  0.00000000000E+00  0.45593999997E+02  0.45594000000E+02  0.51100000000E-03 0.  1.
         11   -1    0    0    0    0 -0.00000000000E+00 -0.00000000000E+00 -0.45593999997E+02  0.45594000000E+02  0.51100000000E-03 0. -1.
    9900012    2    1    2    0    0 -0.11881814930E+02  0.51734693161E+01 -0.41420779009E+02  0.47787271382E+02  0.20000001541E+02 0.  0.
        -12    1    1    2    0    0  0.11881814930E+02 -0.51734693161E+01  0.41420779009E+02  0.43400728618E+02  0.00000000000E+00 0.  1.
         11    1    3    3    0    0 -0.12299595529E+01  0.27441253678E+01 -0.35649959862E+01  0.46639276559E+01  0.51100000000E-03 0. -1.
        -11    1    3    3    0    0 -0.97902737081E+01  0.92369301256E+01 -0.21231395616E+02  0.25138466490E+02  0.51100000000E-03 0.  1.
         12    1    3    3    0    0 -0.86158166861E+00 -0.68075861774E+01 -0.16624387408E+02  0.17984877237E+02  0.00000000000E+00 0. -1.
</event>
<event>
 7    1  0.2294216E-010  0.4778727E+02  0.7816164E-02  0.1312668E+00
        -11   -1    0    0    0    0  0.00000000000E+00  0.00000000000E+00  0.45593999997E+02  0.45594000000E+02  0.51100000000E-03 0.  1.
         11   -1    0    0    0    0 -0.00000000000E+00 -0.00000000000E+00 -0.45593999997E+02  0.45594000000E+02  0.51100000000E-03 0. -1.
    9900012    2    1    2    0    0 -0.41661833192E+02  0.30105152804E+01  0.11783528586E+02  0.47787273127E+02  0.20000009495E+02 0.  0.
        -12    1    1    2    0    0  0.41661833192E+02 -0.30105152804E+01 -0.11783528586E+02  0.43400726873E+02  0.00000000000E+00 0.  1.
         11    1    3    3    0    0 -0.87318270537E+00  0.27899652291E+01 -0.25653350654E+00  0.29346488236E+01  0.51100000000E-03 0.  1.
        -11    1    3    3    0    0 -0.35944956028E+02  0.49630403031E+01  0.11443121763E+02  0.38047557988E+02  0.51100000000E-03 0. -1.
         12    1    3    3    0    0 -0.48436944585E+01 -0.47424902518E+01  0.59694032906E+00  0.68050663151E+01  0.00000000000E+00 0. -1.
</event>
<event>
 7    1  0.2294216E-010  0.4778727E+02  0.7816164E-02  0.1312668E+00
        -11   -1    0    0    0    0  0.00000000000E+00  0.00000000000E+00  0.45593999997E+02  0.45594000000E+02  0.51100000000E-03 0.  1.
         11   -1    0    0    0    0 -0.00000000000E+00 -0.00000000000E+00 -0.45593999997E+02  0.45594000000E+02  0.51100000000E-03 0. -1.
    9900012    2    1    2    0    0  0.10548968511E+02 -0.10554196460E+02 -0.40754769120E+02  0.47787274135E+02  0.20000014090E+02 0.  0.
        -12    1    1    2    0    0 -0.10548968511E+02  0.10554196460E+02  0.40754769120E+02  0.43400725865E+02  0.00000000000E+00 0.  1.
         11    1    3    3    0    0  0.15835953883E+01 -0.60618701431E+01 -0.28971691307E+01  0.69027265062E+01  0.51100000000E-03 0. -1.
        -11    1    3    3    0    0 -0.11307679022E+01 -0.51956118147E+01 -0.12856022429E+02  0.13912236741E+02  0.51100000000E-03 0.  1.
        -12    1    3    3    0    0  0.10096141025E+02  0.70328549739E+00 -0.25001577560E+02  0.26972310887E+02  0.00000000000E+00 0.  1.
</event>
<event>
 7    1  0.2294216E-010  0.4778727E+02  0.7816164E-02  0.1312668E+00
        -11   -1    0    0    0    0  0.00000000000E+00  0.00000000000E+00  0.45593999997E+02  0.45594000000E+02  0.51100000000E-03 0.  1.
         11   -1    0    0    0    0 -0.00000000000E+00 -0.00000000000E+00 -0.45593999997E+02  0.45594000000E+02  0.51100000000E-03 0. -1.
    9900012    2    1    2    0    0 -0.23443231534E+02 -0.17203663804E+02 -0.32219127488E+02  0.47787270408E+02  0.19999997098E+02 0.  0.
        -12    1    1    2    0    0  0.23443231534E+02  0.17203663804E+02  0.32219127488E+02  0.43400729592E+02  0.00000000000E+00 0.  1.
         11    1    3    3    0    0 -0.94431567916E-02 -0.67247633876E+01 -0.13871255184E+02  0.15415390116E+02  0.51100000000E-03 0. -1.
        -11    1    3    3    0    0 -0.22842778977E+01 -0.38992182316E+01 -0.32466400628E+01  0.55643957704E+01  0.51100000000E-03 0.  1.
        -12    1    3    3    0    0 -0.21149510479E+02 -0.65796821845E+01 -0.15101232242E+02  0.26807484521E+02  0.00000000000E+00 0.  1.
</event>
<event>
 7    1  0.2294216E-010  0.4778727E+02  0.7816164E-02  0.1312668E+00
        -11   -1    0    0    0    0  0.00000000000E+00  0.00000000000E+00  0.45593999997E+02  0.45594000000E+02  0.51100000000E-03 0. -1.
         11   -1    0    0    0    0 -0.00000000000E+00 -0.00000000000E+00 -0.45593999997E+02  0.45594000000E+02  0.51100000000E-03 0.  1.
    9900012    2    1    2    0    0 -0.41667402020E+02  0.86379928023E+01  0.85343939902E+01  0.47787271993E+02  0.20000004327E+02 0.  0.
        -12    1    1    2    0    0  0.41667402020E+02 -0.86379928023E+01 -0.85343939902E+01  0.43400728007E+02  0.00000000000E+00 0.  1.
         11    1    3    3    0    0 -0.25984230517E+02  0.29650648825E+01 -0.43366115050E+01  0.26509961240E+02  0.51100000000E-03 0. -1.
        -11    1    3    3    0    0 -0.27843761447E+01  0.20839669632E+01  0.18704320739E+01  0.39489473564E+01  0.51100000000E-03 0.  1.
         12    1    3    3    0    0 -0.12898795358E+02  0.35889609566E+01  0.11000573421E+02  0.17328363397E+02  0.00000000000E+00 0. -1.
</event>
<event>
 7    1  0.2294216E-010  0.4778727E+02  0.7816164E-02  0.1312668E+00
        -11   -1    0    0    0    0  0.00000000000E+00  0.00000000000E+00  0.45593999997E+02  0.45594000000E+02  0.51100000000E-03 0.  1.
         11   -1    0    0    0    0 -0.00000000000E+00 -0.00000000000E+00 -0.45593999997E+02  0.45594000000E+02  0.51100000000E-03 0. -1.
    9900012    2    1    2    0    0  0.28407692949E+02 -0.13249177108E+02 -0.30018085431E+02  0.47787272291E+02  0.20000005685E+02 0.  0.
        -12    1    1    2    0    0 -0.28407692949E+02  0.13249177108E+02  0.30018085431E+02  0.43400727709E+02  0.00000000000E+00 0.  1.
         11    1    3    3    0    0  0.85042676227E+01 -0.10002572644E+02 -0.35526077208E+01  0.13601288512E+02  0.51100000000E-03 0. -1.
        -11    1    3    3    0    0  0.10388727757E+02 -0.54599771367E+01 -0.12533954545E+02  0.17170819186E+02  0.51100000000E-03 0.  1.
        -12    1    3    3    0    0  0.95146975695E+01  0.22133726729E+01 -0.13931523165E+02  0.17015164593E+02  0.00000000000E+00 0.  1.
</event>
<event>
 7    1  0.2294216E-010  0.4778729E+02  0.7816164E-02  0.1312668E+00
        -11   -1    0    0    0    0  0.00000000000E+00  0.00000000000E+00  0.45593999997E+02  0.45594000000E+02  0.51100000000E-03 0.  1.
         11   -1    0    0    0    0 -0.00000000000E+00 -0.00000000000E+00 -0.45593999997E+02  0.45594000000E+02  0.51100000000E-03 0. -1.
    9900012    2    1    2    0    0  0.12885570146E+02  0.15681262576E+02 -0.38362500397E+02  0.47787293200E+02  0.20000101018E+02 0.  0.
        -12    1    1    2    0    0 -0.12885570146E+02 -0.15681262576E+02  0.38362500397E+02  0.43400706800E+02  0.00000000000E+00 0.  1.
         11    1    3    3    0    0 -0.66090522150E+00  0.42223418192E+01 -0.97385846937E+01  0.10635083368E+02  0.51100000000E-03 0. -1.
        -11    1    3    3    0    0  0.69201461823E+01 -0.24958631449E+01 -0.14318680288E+02  0.16097899287E+02  0.51100000000E-03 0.  1.
         12    1    3    3    0    0  0.66263291852E+01  0.13954783902E+02 -0.14305235416E+02  0.21054310545E+02  0.00000000000E+00 0. -1.
</event>
<event>
 7    1  0.2294216E-010  0.4778726E+02  0.7816164E-02  0.1312668E+00
        -11   -1    0    0    0    0  0.00000000000E+00  0.00000000000E+00  0.45593999997E+02  0.45594000000E+02  0.51100000000E-03 0. -1.
         11   -1    0    0    0    0 -0.00000000000E+00 -0.00000000000E+00 -0.45593999997E+02  0.45594000000E+02  0.51100000000E-03 0.  1.
    9900012    2    1    2    0    0  0.36444749076E+02 -0.22198769492E+02  0.79132112087E+01  0.47787262521E+02  0.19999961136E+02 0.  0.
        -12    1    1    2    0    0 -0.36444749076E+02  0.22198769492E+02 -0.79132112087E+01  0.43400737479E+02  0.00000000000E+00 0.  1.
         11    1    3    3    0    0  0.20336397620E+02 -0.14261016981E+02  0.31218542647E+01  0.25033810094E+02  0.51100000000E-03 0. -1.
        -11    1    3    3    0    0  0.78703933577E+01 -0.68854032721E+01 -0.34910077769E+01  0.11024473021E+02  0.51100000000E-03 0.  1.
         12    1    3    3    0    0  0.82379580980E+01 -0.10523492385E+01  0.82823647208E+01  0.11728979406E+02  0.00000000000E+00 0. -1.
</event>
<event>
 7    1  0.2294216E-010  0.4778728E+02  0.7816164E-02  0.1312668E+00
        -11   -1    0    0    0    0  0.00000000000E+00  0.00000000000E+00  0.45593999997E+02  0.45594000000E+02  0.51100000000E-03 0. -1.
         11   -1    0    0    0    0 -0.00000000000E+00 -0.00000000000E+00 -0.45593999997E+02  0.45594000000E+02  0.51100000000E-03 0.  1.
    9900012    2    1    2    0    0 -0.31388630215E+02 -0.29682489976E+02 -0.41624525496E+01  0.47787281927E+02  0.20000049620E+02 0.  0.
        -12    1    1    2    0    0  0.31388630215E+02  0.29682489976E+02  0.41624525496E+01  0.43400718073E+02  0.00000000000E+00 0.  1.
         11    1    3    3    0    0 -0.84028636013E+01 -0.44791858259E+01 -0.67663656219E+01  0.11681392312E+02  0.51100000000E-03 0.  1.
        -11    1    3    3    0    0 -0.64344013498E+01 -0.22492846824E+01  0.37576404174E+01  0.77833581494E+01  0.51100000000E-03 0. -1.
         12    1    3    3    0    0 -0.16551365264E+02 -0.22954019468E+02 -0.11537273451E+01  0.28322531466E+02  0.00000000000E+00 0. -1.
</event>
<event>
 7    1  0.2294216E-010  0.4778727E+02  0.7816164E-02  0.1312668E+00
        -11   -1    0    0    0    0  0.00000000000E+00  0.00000000000E+00  0.45593999997E+02  0.45594000000E+02  0.51100000000E-03 0. -1.
         11   -1    0    0    0    0 -0.00000000000E+00 -0.00000000000E+00 -0.45593999997E+02  0.45594000000E+02  0.51100000000E-03 0.  1.
    9900012    2    1    2    0    0  0.41779350853E+02  0.63485544558E+01 -0.98896444584E+01  0.47787269950E+02  0.19999995008E+02 0.  0.
        -12    1    1    2    0    0 -0.41779350853E+02 -0.63485544558E+01  0.98896444584E+01  0.43400730050E+02  0.00000000000E+00 0.  1.
         11    1    3    3    0    0 -0.29965209996E+00  0.21217132231E+01 -0.34409419169E+00  0.21702210615E+01  0.51100000000E-03 0.  1.
        -11    1    3    3    0    0  0.15233832929E+02  0.52590513809E+01  0.22577847392E+01  0.16273440918E+02  0.51100000000E-03 0. -1.
         12    1    3    3    0    0  0.26845170025E+02 -0.10322101481E+01 -0.11803335006E+02  0.29343607970E+02  0.00000000000E+00 0. -1.
</event>
<event>
 7    1  0.2294216E-010  0.4778727E+02  0.7816164E-02  0.1312668E+00
        -11   -1    0    0    0    0  0.00000000000E+00  0.00000000000E+00  0.45593999997E+02  0.45594000000E+02  0.51100000000E-03 0.  1.
         11   -1    0    0    0    0 -0.00000000000E+00 -0.00000000000E+00 -0.45593999997E+02  0.45594000000E+02  0.51100000000E-03 0. -1.
    9900012    2    1    2    0    0 -0.36041318051E+02  0.98857443950E+01 -0.22066229971E+02  0.47787273575E+02  0.20000011538E+02 0.  0.
        -12    1    1    2    0    0  0.36041318051E+02 -0.98857443950E+01  0.22066229971E+02  0.43400726425E+02  0.00000000000E+00 0.  1.
         11    1    3    3    0    0 -0.17179636845E+02  0.57554108462E+01 -0.11127433218E+02  0.21262277545E+02  0.51100000000E-03 0. -1.
        -11    1    3    3    0    0 -0.50832972388E+01  0.82118243413E+01 -0.30288660829E+01  0.10121659935E+02  0.51100000000E-03 0.  1.
         12    1    3    3    0    0 -0.13778383967E+02 -0.40814907925E+01 -0.79099306701E+01  0.16403336095E+02  0.00000000000E+00 0. -1.
</event>
<event>
 7    1  0.2294216E-010  0.4778727E+02  0.7816164E-02  0.1312668E+00
        -11   -1    0    0    0    0  0.00000000000E+00  0.00000000000E+00  0.45593999997E+02  0.45594000000E+02  0.51100000000E-03 0. -1.
         11   -1    0    0    0    0 -0.00000000000E+00 -0.00000000000E+00 -0.45593999997E+02  0.45594000000E+02  0.51100000000E-03 0.  1.
    9900012    2    1    2    0    0  0.70504349459E+01 -0.36898048080E+02  0.21735882386E+02  0.47787272262E+02  0.20000005553E+02 0.  0.
        -12    1    1    2    0    0 -0.70504349459E+01  0.36898048080E+02 -0.21735882386E+02  0.43400727738E+02  0.00000000000E+00 0.  1.
         11    1    3    3    0    0 -0.29307998959E+00 -0.66528610588E+01  0.25089697904E+01  0.71162761202E+01  0.51100000000E-03 0. -1.
        -11    1    3    3    0    0  0.18761814352E+01 -0.90719299785E+01  0.16108039237E+02  0.18581950883E+02  0.51100000000E-03 0.  1.
        -12    1    3    3    0    0  0.54673335003E+01 -0.21173257043E+02  0.31188733586E+01  0.22089045259E+02  0.00000000000E+00 0.  1.
</event>
<event>
 7    1  0.2294216E-010  0.4778733E+02  0.7816164E-02  0.1312668E+00
        -11   -1    0    0    0    0  0.00000000000E+00  0.00000000000E+00  0.45593999997E+02  0.45594000000E+02  0.51100000000E-03 0.  1.
         11   -1    0    0    0    0 -0.00000000000E+00 -0.00000000000E+00 -0.45593999997E+02  0.45594000000E+02  0.51100000000E-03 0. -1.
    9900012    2    1    2    0    0  0.27397727580E+02  0.23088298378E+02 -0.24493128295E+02  0.47787327974E+02  0.20000259565E+02 0.  0.
        -12    1    1    2    0    0 -0.27397727580E+02 -0.23088298378E+02  0.24493128295E+02  0.43400672026E+02  0.00000000000E+00 0.  1.
         11    1    3    3    0    0  0.19827256395E+02  0.10384978178E+02 -0.12544921251E+02  0.25658193962E+02  0.51100000000E-03 0.  1.
        -11    1    3    3    0    0  0.57967965627E+01  0.85704297150E+01 -0.11238013859E+01  0.10407595577E+02  0.51100000000E-03 0. -1.
        -12    1    3    3    0    0  0.17736746227E+01  0.41328904850E+01 -0.10824405659E+02  0.11721538435E+02  0.00000000000E+00 0.  1.
</event>
<event>
 7    1  0.2294216E-010  0.4778727E+02  0.7816164E-02  0.1312668E+00
        -11   -1    0    0    0    0  0.00000000000E+00  0.00000000000E+00  0.45593999997E+02  0.45594000000E+02  0.51100000000E-03 0. -1.
         11   -1    0    0    0    0 -0.00000000000E+00 -0.00000000000E+00 -0.45593999997E+02  0.45594000000E+02  0.51100000000E-03 0.  1.
    9900012    2    1    2    0    0 -0.51227109923E+01  0.71428233361E+01  0.42501311914E+02  0.47787267201E+02  0.19999982476E+02 0.  0.
        -12    1    1    2    0    0  0.51227109923E+01 -0.71428233361E+01 -0.42501311914E+02  0.43400732799E+02  0.00000000000E+00 0.  1.
         11    1    3    3    0    0 -0.57939003154E+01  0.54174334174E+01  0.98764050469E+01  0.12667329735E+02  0.51100000000E-03 0. -1.
        -11    1    3    3    0    0 -0.59009774873E+01  0.23700697069E+01  0.17349993655E+02  0.18478664612E+02  0.51100000000E-03 0.  1.
        -12    1    3    3    0    0  0.65721668104E+01 -0.64467978816E+00  0.15274913211E+02  0.16641272855E+02  0.00000000000E+00 0.  1.
</event>
<event>
 7    1  0.2294216E-010  0.4778727E+02  0.7816164E-02  0.1312668E+00
        -11   -1    0    0    0    0  0.00000000000E+00  0.00000000000E+00  0.45593999997E+02  0.45594000000E+02  0.51100000000E-03 0.  1.
         11   -1    0    0    0    0 -0.00000000000E+00 -0.00000000000E+00 -0.45593999997E+02  0.45594000000E+02  0.51100000000E-03 0. -1.
    9900012    2    1    2    0    0  0.31623166137E+01  0.37120062585E+02 -0.22264861244E+02  0.47787270295E+02  0.19999996585E+02 0.  0.
        -12    1    1    2    0    0 -0.31623166137E+01 -0.37120062585E+02  0.22264861244E+02  0.43400729705E+02  0.00000000000E+00 0.  1.
         11    1    3    3    0    0  0.42056689427E+01  0.33479685926E+01 -0.24024898984E+01  0.58879965120E+01  0.51100000000E-03 0. -1.
        -11    1    3    3    0    0  0.40497104269E+01  0.19442332304E+01 -0.11840543215E+01  0.46456627399E+01  0.51100000000E-03 0.  1.
         12    1    3    3    0    0 -0.50930627559E+01  0.31827860762E+02 -0.18678317024E+02  0.37253611043E+02  0.00000000000E+00 0. -1.
</event>
<event>
 7    1  0.2294216E-010  0.4778728E+02  0.7816164E-02  0.1312668E+00
        -11   -1    0    0    0    0  0.00000000000E+00  0.00000000000E+00  0.45593999997E+02  0.45594000000E+02  0.51100000000E-03 0.  1.
         11   -1    0    0    0    0 -0.00000000000E+00 -0.00000000000E+00 -0.45593999997E+02  0.45594000000E+02  0.51100000000E-03 0. -1.
    9900012    2    1    2    0    0 -0.29663756100E+02  0.11192907253E+02 -0.29637866905E+02  0.47787277040E+02  0.20000027338E+02 0.  0.
        -12    1    1    2    0    0  0.29663756100E+02 -0.11192907253E+02  0.29637866905E+02  0.43400722960E+02  0.00000000000E+00 0.  1.
         11    1    3    3    0    0 -0.11261016732E+01  0.53413654804E+01 -0.85269820741E+01  0.10124609312E+02  0.51100000000E-03 0. -1.
        -11    1    3    3    0    0 -0.32422833063E+01  0.46144728998E+01 -0.56909152551E+01  0.80120083552E+01  0.51100000000E-03 0.  1.
         12    1    3    3    0    0 -0.25295371120E+02  0.12370688726E+01 -0.15419969576E+02  0.29650659373E+02  0.00000000000E+00 0. -1.
</event>
<event>
 7    1  0.2294216E-010  0.4778727E+02  0.7816164E-02  0.1312668E+00
        -11   -1    0    0    0    0  0.00000000000E+00  0.00000000000E+00  0.45593999997E+02  0.45594000000E+02  0.51100000000E-03 0.  1.
         11   -1    0    0    0    0 -0.00000000000E+00 -0.00000000000E+00 -0.45593999997E+02  0.45594000000E+02  0.51100000000E-03 0. -1.
    9900012    2    1    2    0    0  0.20477054524E+02  0.32577243445E+02 -0.20075773171E+02  0.47787271656E+02  0.20000002787E+02 0.  0.
        -12    1    1    2    0    0 -0.20477054524E+02 -0.32577243445E+02  0.20075773171E+02  0.43400728344E+02  0.00000000000E+00 0.  1.
         11    1    3    3    0    0  0.20633967252E+02  0.25140395088E+02 -0.11614320169E+02  0.34535380452E+02  0.51100000000E-03 0. -1.
        -11    1    3    3    0    0  0.14189198894E+01 -0.41698728874E+00 -0.35747954317E+01  0.38686399020E+01  0.51100000000E-03 0.  1.
        -12    1    3    3    0    0 -0.15758326177E+01  0.78538356454E+01 -0.48866575693E+01  0.93832513013E+01  0.00000000000E+00 0.  1.
</event>
<event>
 7    1  0.2294216E-010  0.4778727E+02  0.7816164E-02  0.1312668E+00
        -11   -1    0    0    0    0  0.00000000000E+00  0.00000000000E+00  0.45593999997E+02  0.45594000000E+02  0.51100000000E-03 0.  1.
         11   -1    0    0    0    0 -0.00000000000E+00 -0.00000000000E+00 -0.45593999997E+02  0.45594000000E+02  0.51100000000E-03 0. -1.
    9900012    2    1    2    0    0 -0.15848873155E+02 -0.40062215509E+02  0.52398313369E+01  0.47787265856E+02  0.19999976344E+02 0.  0.
        -12    1    1    2    0    0  0.15848873155E+02  0.40062215509E+02 -0.52398313369E+01  0.43400734144E+02  0.00000000000E+00 0.  1.
         11    1    3    3    0    0 -0.82374307837E+01 -0.19235819458E+02  0.58411936418E+01  0.21725366730E+02  0.51100000000E-03 0. -1.
        -11    1    3    3    0    0 -0.96370938739E+00 -0.14977152295E+02  0.47180149731E+01  0.15732243711E+02  0.51100000000E-03 0.  1.
         12    1    3    3    0    0 -0.66477329844E+01 -0.58492437561E+01 -0.53193772780E+01  0.10329655414E+02  0.00000000000E+00 0. -1.
</event>
<event>
 7    1  0.2294216E-010  0.4778727E+02  0.7816164E-02  0.1312668E+00
        -11   -1    0    0    0    0  0.00000000000E+00  0.00000000000E+00  0.45593999997E+02  0.45594000000E+02  0.51100000000E-03 0.  1.
         11   -1    0    0    0    0 -0.00000000000E+00 -0.00000000000E+00 -0.45593999997E+02  0.45594000000E+02  0.51100000000E-03 0. -1.
    9900012    2    1    2    0    0  0.66144523492E+01  0.19750884756E+02 -0.38075913708E+02  0.47787266904E+02  0.19999981122E+02 0.  0.
        -12    1    1    2    0    0 -0.66144523492E+01 -0.19750884756E+02  0.38075913708E+02  0.43400733096E+02  0.00000000000E+00 0.  1.
         11    1    3    3    0    0 -0.20841600034E+00  0.17897567634E+02 -0.16300230286E+02  0.24208756104E+02  0.51100000000E-03 0. -1.
        -11    1    3    3    0    0  0.27293106617E+01  0.12492131037E+00 -0.22085346421E+01  0.35131705835E+01  0.51100000000E-03 0.  1.
        -12    1    3    3    0    0  0.40935576878E+01  0.17283958116E+01 -0.19567148780E+02  0.20065340217E+02  0.00000000000E+00 0.  1.
</event>
<event>
 7    1  0.2294216E-010  0.4778727E+02  0.7816164E-02  0.1312668E+00
        -11   -1    0    0    0    0  0.00000000000E+00  0.00000000000E+00  0.45593999997E+02  0.45594000000E+02  0.51100000000E-03 0.  1.
         11   -1    0    0    0    0 -0.00000000000E+00 -0.00000000000E+00 -0.45593999997E+02  0.45594000000E+02  0.51100000000E-03 0. -1.
    9900012    2    1    2    0    0 -0.40773810502E+02 -0.46452893754E+01 -0.14125907106E+02  0.47787267428E+02  0.19999983512E+02 0.  0.
        -12    1    1    2    0    0  0.40773810502E+02  0.46452893754E+01  0.14125907106E+02  0.43400732572E+02  0.00000000000E+00 0.  1.
         11    1    3    3    0    0 -0.63043567256E+01 -0.41803098373E+01  0.15336820999E+01  0.77182954792E+01  0.51100000000E-03 0. -1.
        -11    1    3    3    0    0 -0.27033071283E+01 -0.33115903236E+01  0.51982146723E+00  0.43063574538E+01  0.51100000000E-03 0.  1.
         12    1    3    3    0    0 -0.31766146648E+02  0.28466107855E+01 -0.16179410673E+02  0.35762614495E+02  0.00000000000E+00 0. -1.
</event>
<event>
 7    1  0.2294216E-010  0.4778727E+02  0.7816164E-02  0.1312668E+00
        -11   -1    0    0    0    0  0.00000000000E+00  0.00000000000E+00  0.45593999997E+02  0.45594000000E+02  0.51100000000E-03 0.  1.
         11   -1    0    0    0    0 -0.00000000000E+00 -0.00000000000E+00 -0.45593999997E+02  0.45594000000E+02  0.51100000000E-03 0. -1.
    9900012    2    1    2    0    0 -0.50590015744E+01 -0.23611897926E+02 -0.36062554209E+02  0.47787273777E+02  0.20000012460E+02 0.  0.
        -12    1    1    2    0    0  0.50590015744E+01  0.23611897926E+02  0.36062554209E+02  0.43400726223E+02  0.00000000000E+00 0.  1.
         11    1    3    3    0    0 -0.79282878941E+01 -0.99172229598E+01 -0.75168274517E+01  0.14755058636E+02  0.51100000000E-03 0. -1.
        -11    1    3    3    0    0  0.21590955518E+01 -0.57377924633E+01 -0.42573528023E+01  0.74638468030E+01  0.51100000000E-03 0.  1.
        -12    1    3    3    0    0  0.71019076791E+00 -0.79568825033E+01 -0.24288373955E+02  0.25568368338E+02  0.00000000000E+00 0.  1.
</event>
<event>
 7    1  0.2294216E-010  0.4778728E+02  0.7816164E-02  0.1312668E+00
        -11   -1    0    0    0    0  0.00000000000E+00  0.00000000000E+00  0.45593999997E+02  0.45594000000E+02  0.51100000000E-03 0. -1.
         11   -1    0    0    0    0 -0.00000000000E+00 -0.00000000000E+00 -0.45593999997E+02  0.45594000000E+02  0.51100000000E-03 0.  1.
    9900012    2    1    2    0    0 -0.15963893523E+02  0.11276946384E+02  0.38750571425E+02  0.47787283394E+02  0.20000056305E+02 0.  0.
        -12    1    1    2    0    0  0.15963893523E+02 -0.11276946384E+02 -0.38750571425E+02  0.43400716606E+02  0.00000000000E+00 0.  1.
         11    1    3    3    0    0 -0.15982328604E+01  0.90810140131E+01  0.12574074321E+02  0.15592514520E+02  0.51100000000E-03 0. -1.
        -11    1    3    3    0    0 -0.67301235469E+00 -0.38795342941E+00 -0.12268757071E+01  0.14521286977E+01  0.51100000000E-03 0.  1.
        -12    1    3    3    0    0 -0.13692648308E+02  0.25838858002E+01  0.27403372811E+02  0.30742640175E+02  0.00000000000E+00 0.  1.
</event>
<event>
 7    1  0.2294216E-010  0.4778727E+02  0.7816164E-02  0.1312668E+00
        -11   -1    0    0    0    0  0.00000000000E+00  0.00000000000E+00  0.45593999997E+02  0.45594000000E+02  0.51100000000E-03 0.  1.
         11   -1    0    0    0    0 -0.00000000000E+00 -0.00000000000E+00 -0.45593999997E+02  0.45594000000E+02  0.51100000000E-03 0. -1.
    9900012    2    1    2    0    0 -0.73950570414E+01  0.18921037935E+02 -0.38352711202E+02  0.47787274180E+02  0.20000014294E+02 0.  0.
        -12    1    1    2    0    0  0.73950570414E+01 -0.18921037935E+02  0.38352711202E+02  0.43400725820E+02  0.00000000000E+00 0.  1.
         11    1    3    3    0    0  0.45659683952E+00  0.14490453230E+02 -0.27565122391E+02  0.31145106970E+02  0.51100000000E-03 0. -1.
        -11    1    3    3    0    0  0.12897853895E+01 -0.12047696776E+01 -0.25801895036E+01  0.31260829263E+01  0.51100000000E-03 0.  1.
        -12    1    3    3    0    0 -0.91414392705E+01  0.56353543829E+01 -0.82073993075E+01  0.13516084283E+02  0.00000000000E+00 0.  1.
</event>
<event>
 7    1  0.2294216E-010  0.4778727E+02  0.7816164E-02  0.1312668E+00
        -11   -1    0    0    0    0  0.00000000000E+00  0.00000000000E+00  0.45593999997E+02  0.45594000000E+02  0.51100000000E-03 0.  1.
         11   -1    0    0    0    0 -0.00000000000E+00 -0.00000000000E+00 -0.45593999997E+02  0.45594000000E+02  0.51100000000E-03 0. -1.
    9900012    2    1    2    0    0  0.14735539971E+02  0.35814426230E+02 -0.19591165953E+02  0.47787273648E+02  0.20000011872E+02 0.  0.
        -12    1    1    2    0    0 -0.14735539971E+02 -0.35814426230E+02  0.19591165953E+02  0.43400726352E+02  0.00000000000E+00 0.  1.
         11    1    3    3    0    0  0.28249230098E+01  0.24177657310E+02 -0.76717954849E+01  0.25522455784E+02  0.51100000000E-03 0. -1.
        -11    1    3    3    0    0  0.71500869942E+01  0.11002990416E+02 -0.54527846571E+01  0.14209940285E+02  0.51100000000E-03 0.  1.
        -12    1    3    3    0    0  0.47605299672E+01  0.63377850382E+00 -0.64665858114E+01  0.80548775793E+01  0.00000000000E+00 0.  1.
</event>
<event>
 7    1  0.2294216E-010  0.4778726E+02  0.7816164E-02  0.1312668E+00
        -11   -1    0    0    0    0  0.00000000000E+00  0.00000000000E+00  0.45593999997E+02  0.45594000000E+02  0.51100000000E-03 0.  1.
         11   -1    0    0    0    0 -0.00000000000E+00 -0.00000000000E+00 -0.45593999997E+02  0.45594000000E+02  0.51100000000E-03 0. -1.
    9900012    2    1    2    0    0 -0.23790271269E+02  0.18533682550E+02 -0.31211378815E+02  0.47787256188E+02  0.19999932262E+02 0.  0.
        -12    1    1    2    0    0  0.23790271269E+02 -0.18533682550E+02  0.31211378815E+02  0.43400743812E+02  0.00000000000E+00 0.  1.
         11    1    3    3    0    0 -0.41117114996E+01  0.68632247035E+01 -0.20019681566E+02  0.21559166845E+02  0.51100000000E-03 0. -1.
        -11    1    3    3    0    0 -0.26438550334E+01  0.45396434017E+01 -0.24944886388E+01  0.58155657921E+01  0.51100000000E-03 0.  1.
         12    1    3    3    0    0 -0.17034704736E+02  0.71308144448E+01 -0.86972086106E+01  0.20412523551E+02  0.00000000000E+00 0. -1.
</event>
<event>
 7    1  0.2294216E-010  0.4778727E+02  0.7816164E-02  0.1312668E+00
        -11   -1    0    0    0    0  0.00000000000E+00  0.00000000000E+00  0.45593999997E+02  0.45594000000E+02  0.51100000000E-03 0.  1.
         11   -1    0    0    0    0 -0.00000000000E+00 -0.00000000000E+00 -0.45593999997E+02  0.45594000000E+02  0.51100000000E-03 0. -1.
    9900012    2    1    2    0    0 -0.80437946954E+01 -0.14713249027E+02 -0.40030502588E+02  0.47787268814E+02  0.19999989831E+02 0.  0.
        -12    1    1    2    0    0  0.80437946954E+01  0.14713249027E+02  0.40030502588E+02  0.43400731186E+02  0.00000000000E+00 0.  1.
         11    1    3    3    0    0  0.12964014929E+01 -0.44022378415E+01 -0.10728124405E+02  0.11668462125E+02  0.51100000000E-03 0. -1.
        -11    1    3    3    0    0  0.88288404452E+00  0.35952823472E+01 -0.36370361302E+01  0.51897563975E+01  0.51100000000E-03 0.  1.
         12    1    3    3    0    0 -0.10223080233E+02 -0.13906293533E+02 -0.25665342052E+02  0.30929050292E+02  0.00000000000E+00 0. -1.
</event>
<event>
 7    1  0.2294216E-010  0.4778729E+02  0.7816164E-02  0.1312668E+00
        -11   -1    0    0    0    0  0.00000000000E+00  0.00000000000E+00  0.45593999997E+02  0.45594000000E+02  0.51100000000E-03 0.  1.
         11   -1    0    0    0    0 -0.00000000000E+00 -0.00000000000E+00 -0.45593999997E+02  0.45594000000E+02  0.51100000000E-03 0. -1.
    9900012    2    1    2    0    0 -0.17555898072E+02 -0.29156391714E+02 -0.26931706976E+02  0.47787290610E+02  0.20000089209E+02 0.  0.
        -12    1    1    2    0    0  0.17555898072E+02  0.29156391714E+02  0.26931706976E+02  0.43400709390E+02  0.00000000000E+00 0.  1.
         11    1    3    3    0    0 -0.19125919882E+02 -0.13820388823E+02 -0.12837891468E+02  0.26862900367E+02  0.51100000000E-03 0. -1.
        -11    1    3    3    0    0  0.47603960480E+00 -0.13097974837E+01 -0.11455780381E+01  0.18040322769E+01  0.51100000000E-03 0.  1.
         12    1    3    3    0    0  0.10939822044E+01 -0.14026205407E+02 -0.12948237470E+02  0.19120357966E+02  0.00000000000E+00 0. -1.
</event>
<event>
 7    1  0.2294216E-010  0.4778730E+02  0.7816164E-02  0.1312668E+00
        -11   -1    0    0    0    0  0.00000000000E+00  0.00000000000E+00  0.45593999997E+02  0.45594000000E+02  0.51100000000E-03 0.  1.
         11   -1    0    0    0    0 -0.00000000000E+00 -0.00000000000E+00 -0.45593999997E+02  0.45594000000E+02  0.51100000000E-03 0. -1.
    9900012    2    1    2    0    0 -0.15647840651E+02  0.10658288397E+02 -0.39053378942E+02  0.47787303745E+02  0.20000149096E+02 0.  0.
        -12    1    1    2    0    0  0.15647840651E+02 -0.10658288397E+02  0.39053378942E+02  0.43400696255E+02  0.00000000000E+00 0.  1.
         11    1    3    3    0    0 -0.44370905743E+01 -0.22620347979E+01 -0.97879409421E+01  0.10982183860E+02  0.51100000000E-03 0. -1.
        -11    1    3    3    0    0  0.11166162536E+01  0.51674888792E+01 -0.16877818686E+02  0.17686450663E+02  0.51100000000E-03 0.  1.
        -12    1    3    3    0    0 -0.12327366331E+02  0.77528343156E+01 -0.12387619314E+02  0.19118669222E+02  0.00000000000E+00 0.  1.
</event>
<event>
 7    1  0.2294216E-010  0.4778728E+02  0.7816164E-02  0.1312668E+00
        -11   -1    0    0    0    0  0.00000000000E+00  0.00000000000E+00  0.45593999997E+02  0.45594000000E+02  0.51100000000E-03 0.  1.
         11   -1    0    0    0    0 -0.00000000000E+00 -0.00000000000E+00 -0.45593999997E+02  0.45594000000E+02  0.51100000000E-03 0. -1.
    9900012    2    1    2    0    0 -0.19776754247E+01 -0.43348926185E+02  0.76308504733E+00  0.47787275348E+02  0.20000019622E+02 0.  0.
        -12    1    1    2    0    0  0.19776754247E+01  0.43348926185E+02 -0.76308504733E+00  0.43400724652E+02  0.00000000000E+00 0.  1.
         11    1    3    3    0    0 -0.27879239385E+01 -0.66168487578E+01  0.65716246186E+00  0.72102059702E+01  0.51100000000E-03 0. -1.
        -11    1    3    3    0    0 -0.48338172555E+01 -0.32033197592E+02  0.33099956938E+01  0.32564514567E+02  0.51100000000E-03 0.  1.
         12    1    3    3    0    0  0.56440657693E+01 -0.46988798361E+01 -0.32040731084E+01  0.80125548114E+01  0.00000000000E+00 0. -1.
</event>
<event>
 7    1  0.2294216E-010  0.4778724E+02  0.7816164E-02  0.1312668E+00
        -11   -1    0    0    0    0  0.00000000000E+00  0.00000000000E+00  0.45593999997E+02  0.45594000000E+02  0.51100000000E-03 0.  1.
         11   -1    0    0    0    0 -0.00000000000E+00 -0.00000000000E+00 -0.45593999997E+02  0.45594000000E+02  0.51100000000E-03 0. -1.
    9900012    2    1    2    0    0 -0.17192674533E+02  0.31886897665E+02 -0.23901125323E+02  0.47787238578E+02  0.19999851972E+02 0.  0.
        -12    1    1    2    0    0  0.17192674533E+02 -0.31886897665E+02  0.23901125323E+02  0.43400761422E+02  0.00000000000E+00 0.  1.
         11    1    3    3    0    0 -0.56980468035E+01  0.10911916868E+02 -0.94308720764E+01  0.15507385837E+02  0.51100000000E-03 0. -1.
        -11    1    3    3    0    0 -0.99822200273E+00 -0.10151217845E+01 -0.64828727384E+01  0.66373608164E+01  0.51100000000E-03 0.  1.
        -12    1    3    3    0    0 -0.10496405727E+02  0.21990102582E+02 -0.79873805079E+01  0.25642491925E+02  0.00000000000E+00 0.  1.
</event>
<event>
 7    1  0.2294216E-010  0.4778727E+02  0.7816164E-02  0.1312668E+00
        -11   -1    0    0    0    0  0.00000000000E+00  0.00000000000E+00  0.45593999997E+02  0.45594000000E+02  0.51100000000E-03 0. -1.
         11   -1    0    0    0    0 -0.00000000000E+00 -0.00000000000E+00 -0.45593999997E+02  0.45594000000E+02  0.51100000000E-03 0.  1.
    9900012    2    1    2    0    0 -0.16641204660E+02  0.29715894662E+01  0.39973280682E+02  0.47787271838E+02  0.20000003620E+02 0.  0.
        -12    1    1    2    0    0  0.16641204660E+02 -0.29715894662E+01 -0.39973280682E+02  0.43400728162E+02  0.00000000000E+00 0.  1.
         11    1    3    3    0    0 -0.11517019115E+02  0.39538584833E+01  0.15557142666E+02  0.19755996922E+02  0.51100000000E-03 0. -1.
        -11    1    3    3    0    0 -0.59309573932E+01  0.44527626942E+01  0.18629987857E+02  0.20051927563E+02  0.51100000000E-03 0.  1.
        -12    1    3    3    0    0  0.80677184742E+00 -0.54350317113E+01  0.57861501595E+01  0.79793473534E+01  0.00000000000E+00 0.  1.
</event>
<event>
 7    1  0.2294216E-010  0.4778727E+02  0.7816164E-02  0.1312668E+00
        -11   -1    0    0    0    0  0.00000000000E+00  0.00000000000E+00  0.45593999997E+02  0.45594000000E+02  0.51100000000E-03 0.  1.
         11   -1    0    0    0    0 -0.00000000000E+00 -0.00000000000E+00 -0.45593999997E+02  0.45594000000E+02  0.51100000000E-03 0. -1.
    9900012    2    1    2    0    0  0.36554818848E+02 -0.15100331294E+02 -0.17870326469E+02  0.47787270118E+02  0.19999995774E+02 0.  0.
        -12    1    1    2    0    0 -0.36554818848E+02  0.15100331294E+02  0.17870326469E+02  0.43400729882E+02  0.00000000000E+00 0.  1.
         11    1    3    3    0    0  0.10400013461E+02 -0.95417808546E+00 -0.46292639943E+01  0.11423695602E+02  0.51100000000E-03 0. -1.
        -11    1    3    3    0    0  0.26884117225E+02 -0.86178943294E+01 -0.10241629414E+02  0.30031896959E+02  0.51100000000E-03 0.  1.
        -12    1    3    3    0    0 -0.72931183847E+00 -0.55282588793E+01 -0.29994330608E+01  0.63316775565E+01  0.00000000000E+00 0.  1.
</event>
<event>
 7    1  0.2294216E-010  0.4778727E+02  0.7816164E-02  0.1312668E+00
        -11   -1    0    0    0    0  0.00000000000E+00  0.00000000000E+00  0.45593999997E+02  0.45594000000E+02  0.51100000000E-03 0. -1.
         11   -1    0    0    0    0 -0.00000000000E+00 -0.00000000000E+00 -0.45593999997E+02  0.45594000000E+02  0.51100000000E-03 0.  1.
    9900012    2    1    2    0    0  0.90004600777E+01 -0.40863760208E+02  0.11522499041E+02  0.47787272309E+02  0.20000005768E+02 0.  0.
        -12    1    1    2    0    0 -0.90004600777E+01  0.40863760208E+02 -0.11522499041E+02  0.43400727691E+02  0.00000000000E+00 0.  1.
         11    1    3    3    0    0  0.34243578613E+01 -0.14133589111E+02  0.25721182667E+01  0.14768221307E+02  0.51100000000E-03 0. -1.
        -11    1    3    3    0    0  0.85531538268E+01 -0.51201587404E+01  0.28537828946E+01  0.10369018419E+02  0.51100000000E-03 0.  1.
        -12    1    3    3    0    0 -0.29770516104E+01 -0.21610012356E+02  0.60965978793E+01  0.22650032583E+02  0.00000000000E+00 0.  1.
</event>
<event>
 7    1  0.2294216E-010  0.4778727E+02  0.7816164E-02  0.1312668E+00
        -11   -1    0    0    0    0  0.00000000000E+00  0.00000000000E+00  0.45593999997E+02  0.45594000000E+02  0.51100000000E-03 0. -1.
         11   -1    0    0    0    0 -0.00000000000E+00 -0.00000000000E+00 -0.45593999997E+02  0.45594000000E+02  0.51100000000E-03 0.  1.
    9900012    2    1    2    0    0 -0.40878385546E+02  0.13350015403E+02 -0.58615606327E+01  0.47787271790E+02  0.20000003401E+02 0.  0.
        -12    1    1    2    0    0  0.40878385546E+02 -0.13350015403E+02  0.58615606327E+01  0.43400728210E+02  0.00000000000E+00 0.  1.
         11    1    3    3    0    0 -0.37112274145E+00 -0.41937820174E+00 -0.91192529696E+00  0.10701486690E+01  0.51100000000E-03 0.  1.
        -11    1    3    3    0    0 -0.22035610262E+02  0.94518835156E+01  0.61307201344E+01  0.24748574732E+02  0.51100000000E-03 0. -1.
         12    1    3    3    0    0 -0.18471652542E+02  0.43175100890E+01 -0.11080355470E+02  0.21968548390E+02  0.00000000000E+00 0. -1.
</event>
<event>
 7    1  0.2294216E-010  0.4778727E+02  0.7816164E-02  0.1312668E+00
        -11   -1    0    0    0    0  0.00000000000E+00  0.00000000000E+00  0.45593999997E+02  0.45594000000E+02  0.51100000000E-03 0. -1.
         11   -1    0    0    0    0 -0.00000000000E+00 -0.00000000000E+00 -0.45593999997E+02  0.45594000000E+02  0.51100000000E-03 0.  1.
    9900012    2    1    2    0    0 -0.14170533026E+02  0.16246840194E+02  0.37667750324E+02  0.47787271469E+02  0.20000001937E+02 0.  0.
        -12    1    1    2    0    0  0.14170533026E+02 -0.16246840194E+02 -0.37667750324E+02  0.43400728531E+02  0.00000000000E+00 0.  1.
         11    1    3    3    0    0 -0.31174606986E+01  0.52147483321E-01  0.51452445036E+00  0.31600658598E+01  0.51100000000E-03 0. -1.
        -11    1    3    3    0    0 -0.85272655753E+01  0.10250951524E+02  0.98686813032E+01  0.16588765363E+02  0.51100000000E-03 0.  1.
         12    1    3    3    0    0 -0.25258067522E+01  0.59437411862E+01  0.27284544570E+02  0.28038440246E+02  0.00000000000E+00 0. -1.
</event>
<event>
 7    1  0.2294216E-010  0.4778727E+02  0.7816164E-02  0.1312668E+00
        -11   -1    0    0    0    0  0.00000000000E+00  0.00000000000E+00  0.45593999997E+02  0.45594000000E+02  0.51100000000E-03 0.  1.
         11   -1    0    0    0    0 -0.00000000000E+00 -0.00000000000E+00 -0.45593999997E+02  0.45594000000E+02  0.51100000000E-03 0. -1.
    9900012    2    1    2    0    0  0.65739102986E+01 -0.25036622038E+02 -0.34836396905E+02  0.47787270870E+02  0.19999999203E+02 0.  0.
        -12    1    1    2    0    0 -0.65739102986E+01  0.25036622038E+02  0.34836396905E+02  0.43400729130E+02  0.00000000000E+00 0.  1.
         11    1    3    3    0    0  0.93812649707E+01 -0.17064531822E+02 -0.31785076575E+02  0.37275963728E+02  0.51100000000E-03 0. -1.
        -11    1    3    3    0    0  0.35504313927E+00 -0.57903396696E+00 -0.23426373889E+01  0.24391158567E+01  0.51100000000E-03 0.  1.
        -12    1    3    3    0    0 -0.31623978114E+01 -0.73930562494E+01 -0.70868294195E+00  0.80721912847E+01  0.00000000000E+00 0.  1.
</event>
<event>
 7    1  0.2294216E-010  0.4778727E+02  0.7816164E-02  0.1312668E+00
        -11   -1    0    0    0    0  0.00000000000E+00  0.00000000000E+00  0.45593999997E+02  0.45594000000E+02  0.51100000000E-03 0. -1.
         11   -1    0    0    0    0 -0.00000000000E+00 -0.00000000000E+00 -0.45593999997E+02  0.45594000000E+02  0.51100000000E-03 0.  1.
    9900012    2    1    2    0    0 -0.16733518555E+02 -0.38549030205E+02  0.10843655747E+02  0.47787271401E+02  0.20000001625E+02 0.  0.
        -12    1    1    2    0    0  0.16733518555E+02  0.38549030205E+02 -0.10843655747E+02  0.43400728599E+02  0.00000000000E+00 0.  1.
         11    1    3    3    0    0 -0.14264056847E+02 -0.27199075499E+02  0.79190463838E+01  0.31716940609E+02  0.51100000000E-03 0. -1.
        -11    1    3    3    0    0 -0.31012980419E+01 -0.99008251423E+01 -0.22869760881E+01  0.10624248111E+02  0.51100000000E-03 0.  1.
        -12    1    3    3    0    0  0.63183633352E+00 -0.14491295639E+01  0.52115854511E+01  0.54460826802E+01  0.00000000000E+00 0.  1.
</event>
<event>
 7    1  0.2294216E-010  0.4778727E+02  0.7816164E-02  0.1312668E+00
        -11   -1    0    0    0    0  0.00000000000E+00  0.00000000000E+00  0.45593999997E+02  0.45594000000E+02  0.51100000000E-03 0.  1.
         11   -1    0    0    0    0 -0.00000000000E+00 -0.00000000000E+00 -0.45593999997E+02  0.45594000000E+02  0.51100000000E-03 0. -1.
    9900012    2    1    2    0    0  0.30548823734E+02  0.22602356447E+02 -0.20964873297E+02  0.47787273498E+02  0.20000011188E+02 0.  0.
        -12    1    1    2    0    0 -0.30548823734E+02 -0.22602356447E+02  0.20964873297E+02  0.43400726502E+02  0.00000000000E+00 0.  1.
         11    1    3    3    0    0 -0.16087780954E+01  0.16489125171E+01 -0.11165679831E+00  0.23064143060E+01  0.51100000000E-03 0.  1.
        -11    1    3    3    0    0  0.10458123583E+01  0.46480163946E+01 -0.51165843742E+01  0.69912241998E+01  0.51100000000E-03 0. -1.
         12    1    3    3    0    0  0.31111789471E+02  0.16305427535E+02 -0.15736632125E+02  0.38489634992E+02  0.00000000000E+00 0. -1.
</event>
<event>
 7    1  0.2294216E-010  0.4778727E+02  0.7816164E-02  0.1312668E+00
        -11   -1    0    0    0    0  0.00000000000E+00  0.00000000000E+00  0.45593999997E+02  0.45594000000E+02  0.51100000000E-03 0. -1.
         11   -1    0    0    0    0 -0.00000000000E+00 -0.00000000000E+00 -0.45593999997E+02  0.45594000000E+02  0.51100000000E-03 0.  1.
    9900012    2    1    2    0    0  0.87363918688E+01 -0.24706411948E+02  0.34596126355E+02  0.47787270824E+02  0.19999998996E+02 0.  0.
        -12    1    1    2    0    0 -0.87363918688E+01  0.24706411948E+02 -0.34596126355E+02  0.43400729176E+02  0.00000000000E+00 0.  1.
         11    1    3    3    0    0  0.14264934039E+01 -0.67170918793E+01  0.12692108480E+02  0.14430655726E+02  0.51100000000E-03 0. -1.
        -11    1    3    3    0    0  0.69371879884E+01 -0.20904076351E+02  0.20542265346E+02  0.30117929063E+02  0.51100000000E-03 0.  1.
        -12    1    3    3    0    0  0.37271047651E+00  0.29147562820E+01  0.13617525285E+01  0.32386860347E+01  0.00000000000E+00 0.  1.
</event>
<event>
 7    1  0.2294216E-010  0.4778727E+02  0.7816164E-02  0.1312668E+00
        -11   -1    0    0    0    0  0.00000000000E+00  0.00000000000E+00  0.45593999997E+02  0.45594000000E+02  0.51100000000E-03 0.  1.
         11   -1    0    0    0    0 -0.00000000000E+00 -0.00000000000E+00 -0.45593999997E+02  0.45594000000E+02  0.51100000000E-03 0. -1.
    9900012    2    1    2    0    0  0.27211057165E+02  0.12217004630E+02 -0.31526604695E+02  0.47787266852E+02  0.19999980886E+02 0.  0.
        -12    1    1    2    0    0 -0.27211057165E+02 -0.12217004630E+02  0.31526604695E+02  0.43400733148E+02  0.00000000000E+00 0.  1.
         11    1    3    3    0    0  0.12000819737E+02  0.47820916124E+00 -0.19042436306E+02  0.22513612307E+02  0.51100000000E-03 0. -1.
        -11    1    3    3    0    0  0.10544983132E+02  0.75740858390E+01 -0.13730600453E+02  0.18896900132E+02  0.51100000000E-03 0.  1.
         12    1    3    3    0    0  0.46652542964E+01  0.41647096300E+01  0.12464320648E+01  0.63767544131E+01  0.00000000000E+00 0. -1.
</event>
<event>
 7    1  0.2294216E-010  0.4778727E+02  0.7816164E-02  0.1312668E+00
        -11   -1    0    0    0    0  0.00000000000E+00  0.00000000000E+00  0.45593999997E+02  0.45594000000E+02  0.51100000000E-03 0. -1.
         11   -1    0    0    0    0 -0.00000000000E+00 -0.00000000000E+00 -0.45593999997E+02  0.45594000000E+02  0.51100000000E-03 0.  1.
    9900012    2    1    2    0    0 -0.67952934603E+01 -0.42234422240E+02 -0.73281153791E+01  0.47787266018E+02  0.19999977081E+02 0.  0.
        -12    1    1    2    0    0  0.67952934603E+01  0.42234422240E+02  0.73281153791E+01  0.43400733982E+02  0.00000000000E+00 0.  1.
         11    1    3    3    0    0 -0.12975052479E+01 -0.13898233545E+02  0.21454347552E+01  0.14122581424E+02  0.51100000000E-03 0. -1.
        -11    1    3    3    0    0  0.49434853576E+00 -0.15506613100E+02  0.17271589710E+01  0.15610333394E+02  0.51100000000E-03 0.  1.
        -12    1    3    3    0    0 -0.59921367482E+01 -0.12829575596E+02 -0.11200709105E+02  0.18054351200E+02  0.00000000000E+00 0.  1.
</event>
<event>
 7    1  0.2294216E-010  0.4778727E+02  0.7816164E-02  0.1312668E+00
        -11   -1    0    0    0    0  0.00000000000E+00  0.00000000000E+00  0.45593999997E+02  0.45594000000E+02  0.51100000000E-03 0. -1.
         11   -1    0    0    0    0 -0.00000000000E+00 -0.00000000000E+00 -0.45593999997E+02  0.45594000000E+02  0.51100000000E-03 0.  1.
    9900012    2    1    2    0    0  0.36200002771E+02 -0.23583635153E+02 -0.41225731523E+01  0.47787266630E+02  0.19999979873E+02 0.  0.
        -12    1    1    2    0    0 -0.36200002771E+02  0.23583635153E+02  0.41225731523E+01  0.43400733370E+02  0.00000000000E+00 0.  1.
         11    1    3    3    0    0  0.11803085581E+02 -0.12347535249E+02 -0.40180276486E+01  0.17547620990E+02  0.51100000000E-03 0. -1.
        -11    1    3    3    0    0  0.11831976143E+02 -0.12429086213E+02 -0.26508863643E+01  0.17363900550E+02  0.51100000000E-03 0.  1.
        -12    1    3    3    0    0  0.12564941047E+02  0.11929863090E+01  0.25463408605E+01  0.12875745090E+02  0.00000000000E+00 0.  1.
</event>
<event>
 7    1  0.2294216E-010  0.4778727E+02  0.7816164E-02  0.1312668E+00
        -11   -1    0    0    0    0  0.00000000000E+00  0.00000000000E+00  0.45593999997E+02  0.45594000000E+02  0.51100000000E-03 0.  1.
         11   -1    0    0    0    0 -0.00000000000E+00 -0.00000000000E+00 -0.45593999997E+02  0.45594000000E+02  0.51100000000E-03 0. -1.
    9900012    2    1    2    0    0 -0.37012812080E+02 -0.22024987503E+02  0.53455289000E+01  0.47787274064E+02  0.20000013767E+02 0.  0.
        -12    1    1    2    0    0  0.37012812080E+02  0.22024987503E+02 -0.53455289000E+01  0.43400725936E+02  0.00000000000E+00 0.  1.
         11    1    3    3    0    0 -0.23033657512E+02 -0.22059740145E+02  0.93931299775E+00  0.31907112418E+02  0.51100000000E-03 0. -1.
        -11    1    3    3    0    0 -0.10252128436E+02 -0.19242819765E+01  0.10275376001E+01  0.10481642637E+02  0.51100000000E-03 0.  1.
         12    1    3    3    0    0 -0.37270261317E+01  0.19590346186E+01  0.33786783022E+01  0.53985190092E+01  0.00000000000E+00 0. -1.
</event>
<event>
 7    1  0.2294216E-010  0.4778727E+02  0.7816164E-02  0.1312668E+00
        -11   -1    0    0    0    0  0.00000000000E+00  0.00000000000E+00  0.45593999997E+02  0.45594000000E+02  0.51100000000E-03 0.  1.
         11   -1    0    0    0    0 -0.00000000000E+00 -0.00000000000E+00 -0.45593999997E+02  0.45594000000E+02  0.51100000000E-03 0. -1.
    9900012    2    1    2    0    0 -0.19473018635E+02 -0.11387029596E+02 -0.37077764962E+02  0.47787267836E+02  0.19999985372E+02 0.  0.
        -12    1    1    2    0    0  0.19473018635E+02  0.11387029596E+02  0.37077764962E+02  0.43400732164E+02  0.00000000000E+00 0.  1.
         11    1    3    3    0    0 -0.98201535408E+01 -0.10751034508E+02 -0.23470622076E+02  0.27620468125E+02  0.51100000000E-03 0. -1.
        -11    1    3    3    0    0 -0.25435019460E+01 -0.55163217530E+01 -0.72215787855E+01  0.94366523857E+01  0.51100000000E-03 0.  1.
        -12    1    3    3    0    0 -0.71093631484E+01  0.48803266655E+01 -0.63855641007E+01  0.10730147325E+02  0.00000000000E+00 0.  1.
</event>
<event>
 7    1  0.2294216E-010  0.4778727E+02  0.7816164E-02  0.1312668E+00
        -11   -1    0    0    0    0  0.00000000000E+00  0.00000000000E+00  0.45593999997E+02  0.45594000000E+02  0.51100000000E-03 0.  1.
         11   -1    0    0    0    0 -0.00000000000E+00 -0.00000000000E+00 -0.45593999997E+02  0.45594000000E+02  0.51100000000E-03 0. -1.
    9900012    2    1    2    0    0  0.18727427368E+02 -0.32417987607E+02  0.21954063346E+02  0.47787270124E+02  0.19999995804E+02 0.  0.
        -12    1    1    2    0    0 -0.18727427368E+02  0.32417987607E+02 -0.21954063346E+02  0.43400729876E+02  0.00000000000E+00 0.  1.
         11    1    3    3    0    0  0.67697232616E+01 -0.44446815816E+01  0.46676703525E+01  0.93472720181E+01  0.51100000000E-03 0.  1.
        -11    1    3    3    0    0  0.13956102526E+02 -0.13167857675E+02  0.11794874110E+02  0.22522973361E+02  0.51100000000E-03 0. -1.
        -12    1    3    3    0    0 -0.19983984192E+01 -0.14805448350E+02  0.54915188837E+01  0.15917024745E+02  0.00000000000E+00 0.  1.
</event>
<event>
 7    1  0.2294216E-010  0.4778727E+02  0.7816164E-02  0.1312668E+00
        -11   -1    0    0    0    0  0.00000000000E+00  0.00000000000E+00  0.45593999997E+02  0.45594000000E+02  0.51100000000E-03 0.  1.
         11   -1    0    0    0    0 -0.00000000000E+00 -0.00000000000E+00 -0.45593999997E+02  0.45594000000E+02  0.51100000000E-03 0. -1.
    9900012    2    1    2    0    0 -0.38672804070E+02  0.38440196476E+01 -0.19319959875E+02  0.47787272918E+02  0.20000008540E+02 0.  0.
        -12    1    1    2    0    0  0.38672804070E+02 -0.38440196476E+01  0.19319959875E+02  0.43400727082E+02  0.00000000000E+00 0.  1.
         11    1    3    3    0    0 -0.28847597440E+02 -0.11041629701E+01 -0.99337329610E+01  0.30530019730E+02  0.51100000000E-03 0. -1.
        -11    1    3    3    0    0 -0.41922072650E+01 -0.12631886145E+01  0.36851260160E+00  0.43938649304E+01  0.51100000000E-03 0.  1.
        -12    1    3    3    0    0 -0.56329993656E+01  0.62113712321E+01 -0.97547395159E+01  0.12863388257E+02  0.00000000000E+00 0.  1.
</event>
<event>
 7    1  0.2294216E-010  0.4778727E+02  0.7816164E-02  0.1312668E+00
        -11   -1    0    0    0    0  0.00000000000E+00  0.00000000000E+00  0.45593999997E+02  0.45594000000E+02  0.51100000000E-03 0.  1.
         11   -1    0    0    0    0 -0.00000000000E+00 -0.00000000000E+00 -0.45593999997E+02  0.45594000000E+02  0.51100000000E-03 0. -1.
    9900012    2    1    2    0    0  0.14448886163E+02  0.37867374069E+02 -0.15521432801E+02  0.47787271821E+02  0.20000003541E+02 0.  0.
        -12    1    1    2    0    0 -0.14448886163E+02 -0.37867374069E+02  0.15521432801E+02  0.43400728179E+02  0.00000000000E+00 0.  1.
         11    1    3    3    0    0  0.96355839381E+01  0.93277089497E+01 -0.11988121388E+02  0.17987931698E+02  0.51100000000E-03 0. -1.
        -11    1    3    3    0    0  0.29494162946E+01  0.69426460651E+01  0.11265928911E+01  0.76268343805E+01  0.51100000000E-03 0.  1.
         12    1    3    3    0    0  0.18638859306E+01  0.21597019054E+02 -0.46599043038E+01  0.22172505743E+02  0.00000000000E+00 0. -1.
</event>
<event>
 7    1  0.2294216E-010  0.4778729E+02  0.7816164E-02  0.1312668E+00
        -11   -1    0    0    0    0  0.00000000000E+00  0.00000000000E+00  0.45593999997E+02  0.45594000000E+02  0.51100000000E-03 0. -1.
         11   -1    0    0    0    0 -0.00000000000E+00 -0.00000000000E+00 -0.45593999997E+02  0.45594000000E+02  0.51100000000E-03 0.  1.
    9900012    2    1    2    0    0 -0.89089346449E+01 -0.42277164869E+02  0.41102596648E+01  0.47787285486E+02  0.20000065843E+02 0.  0.
        -12    1    1    2    0    0  0.89089346449E+01  0.42277164869E+02 -0.41102596648E+01  0.43400714514E+02  0.00000000000E+00 0.  1.
         11    1    3    3    0    0 -0.36228656543E+01 -0.11974571878E+02  0.21661434285E+01  0.12696759619E+02  0.51100000000E-03 0. -1.
        -11    1    3    3    0    0 -0.45804594875E+01 -0.15338072070E+02 -0.71860935159E+01  0.17546424258E+02  0.51100000000E-03 0.  1.
        -12    1    3    3    0    0 -0.70560950314E+00 -0.14964520921E+02  0.91302097522E+01  0.17544101610E+02  0.00000000000E+00 0.  1.
</event>
<event>
 7    1  0.2294216E-010  0.4778727E+02  0.7816164E-02  0.1312668E+00
        -11   -1    0    0    0    0  0.00000000000E+00  0.00000000000E+00  0.45593999997E+02  0.45594000000E+02  0.51100000000E-03 0. -1.
         11   -1    0    0    0    0 -0.00000000000E+00 -0.00000000000E+00 -0.45593999997E+02  0.45594000000E+02  0.51100000000E-03 0.  1.
    9900012    2    1    2    0    0 -0.41038536848E+02 -0.12202749362E+02 -0.71101822247E+01  0.47787270860E+02  0.19999999158E+02 0.  0.
        -12    1    1    2    0    0  0.41038536848E+02  0.12202749362E+02  0.71101822247E+01  0.43400729140E+02  0.00000000000E+00 0.  1.
         11    1    3    3    0    0 -0.51716491268E+00 -0.28527290121E-01  0.16341291998E+01  0.17142496481E+01  0.51100000000E-03 0. -1.
        -11    1    3    3    0    0 -0.86065363226E+01  0.39578608088E+01 -0.16418451884E+01  0.96141970823E+01  0.51100000000E-03 0.  1.
        -12    1    3    3    0    0 -0.31914835613E+02 -0.16132082881E+02 -0.71024662361E+01  0.36458824129E+02  0.00000000000E+00 0.  1.
</event>
<event>
 7    1  0.2294216E-010  0.4778727E+02  0.7816164E-02  0.1312668E+00
        -11   -1    0    0    0    0  0.00000000000E+00  0.00000000000E+00  0.45593999997E+02  0.45594000000E+02  0.51100000000E-03 0.  1.
         11   -1    0    0    0    0 -0.00000000000E+00 -0.00000000000E+00 -0.45593999997E+02  0.45594000000E+02  0.51100000000E-03 0. -1.
    9900012    2    1    2    0    0 -0.15199961553E+02 -0.21539974081E+02 -0.34476284641E+02  0.47787268241E+02  0.19999987217E+02 0.  0.
        -12    1    1    2    0    0  0.15199961553E+02  0.21539974081E+02  0.34476284641E+02  0.43400731759E+02  0.00000000000E+00 0.  1.
         11    1    3    3    0    0 -0.92697247568E+01 -0.85545805378E+01 -0.38732446763E+01  0.13195100220E+02  0.51100000000E-03 0.  1.
        -11    1    3    3    0    0 -0.54778024521E+01 -0.76447376829E+01 -0.12080211272E+02  0.15309468919E+02  0.51100000000E-03 0. -1.
        -12    1    3    3    0    0 -0.45243434397E+00 -0.53406558599E+01 -0.18522828693E+02  0.19282699101E+02  0.00000000000E+00 0.  1.
</event>
<event>
 7    1  0.2294216E-010  0.4778727E+02  0.7816164E-02  0.1312668E+00
        -11   -1    0    0    0    0  0.00000000000E+00  0.00000000000E+00  0.45593999997E+02  0.45594000000E+02  0.51100000000E-03 0.  1.
         11   -1    0    0    0    0 -0.00000000000E+00 -0.00000000000E+00 -0.45593999997E+02  0.45594000000E+02  0.51100000000E-03 0. -1.
    9900012    2    1    2    0    0  0.40815035815E+02  0.10112249952E+02  0.10747023959E+02  0.47787271070E+02  0.20000000118E+02 0.  0.
        -12    1    1    2    0    0 -0.40815035815E+02 -0.10112249952E+02 -0.10747023959E+02  0.43400728930E+02  0.00000000000E+00 0.  1.
         11    1    3    3    0    0  0.45347590727E+01  0.26884976903E+01  0.67585427659E+01  0.85714619674E+01  0.51100000000E-03 0. -1.
        -11    1    3    3    0    0  0.17184179788E+02 -0.68519131400E+00  0.63558038516E+01  0.18334714751E+02  0.51100000000E-03 0.  1.
         12    1    3    3    0    0  0.19096096954E+02  0.81089435754E+01 -0.23673226581E+01  0.20881094352E+02  0.00000000000E+00 0. -1.
</event>
<event>
 7    1  0.2294216E-010  0.4778727E+02  0.7816164E-02  0.1312668E+00
        -11   -1    0    0    0    0  0.00000000000E+00  0.00000000000E+00  0.45593999997E+02  0.45594000000E+02  0.51100000000E-03 0. -1.
         11   -1    0    0    0    0 -0.00000000000E+00 -0.00000000000E+00 -0.45593999997E+02  0.45594000000E+02  0.51100000000E-03 0.  1.
    9900012    2    1    2    0    0 -0.14449507666E+02  0.25606521666E+02  0.31923989428E+02  0.47787270460E+02  0.19999997337E+02 0.  0.
        -12    1    1    2    0    0  0.14449507666E+02 -0.25606521666E+02 -0.31923989428E+02  0.43400729540E+02  0.00000000000E+00 0.  1.
         11    1    3    3    0    0 -0.25574148949E+01  0.92868987039E+01  0.22753468360E+01  0.98976796254E+01  0.51100000000E-03 0. -1.
        -11    1    3    3    0    0 -0.52567164541E+01 -0.42440085104E+00  0.94903520956E+01  0.10857254124E+02  0.51100000000E-03 0.  1.
         12    1    3    3    0    0 -0.66353763167E+01  0.16744023813E+02  0.20158290496E+02  0.27032336711E+02  0.00000000000E+00 0. -1.
</event>
<event>
 7    1  0.2294216E-010  0.4778727E+02  0.7816164E-02  0.1312668E+00
        -11   -1    0    0    0    0  0.00000000000E+00  0.00000000000E+00  0.45593999997E+02  0.45594000000E+02  0.51100000000E-03 0.  1.
         11   -1    0    0    0    0 -0.00000000000E+00 -0.00000000000E+00 -0.45593999997E+02  0.45594000000E+02  0.51100000000E-03 0. -1.
    9900012    2    1    2    0    0 -0.42418923266E+02  0.90400121302E+01 -0.15926167721E+01  0.47787270760E+02  0.19999998703E+02 0.  0.
        -12    1    1    2    0    0  0.42418923266E+02 -0.90400121302E+01  0.15926167721E+01  0.43400729240E+02  0.00000000000E+00 0.  1.
         11    1    3    3    0    0 -0.28551302792E+01 -0.86510930924E+00  0.28893206522E+01  0.41531141472E+01  0.51100000000E-03 0. -1.
        -11    1    3    3    0    0 -0.98947113968E+01  0.53550888679E+01 -0.74160121843E+01  0.13475144800E+02  0.51100000000E-03 0.  1.
         12    1    3    3    0    0 -0.29669081590E+02  0.45500325715E+01  0.29340747600E+01  0.30159011813E+02  0.00000000000E+00 0. -1.
</event>
<event>
 7    1  0.2294216E-010  0.4778727E+02  0.7816164E-02  0.1312668E+00
        -11   -1    0    0    0    0  0.00000000000E+00  0.00000000000E+00  0.45593999997E+02  0.45594000000E+02  0.51100000000E-03 0.  1.
         11   -1    0    0    0    0 -0.00000000000E+00 -0.00000000000E+00 -0.45593999997E+02  0.45594000000E+02  0.51100000000E-03 0. -1.
    9900012    2    1    2    0    0  0.20507335280E+02  0.38150539680E+02 -0.27583981525E+01  0.47787271452E+02  0.20000001857E+02 0.  0.
        -12    1    1    2    0    0 -0.20507335280E+02 -0.38150539680E+02  0.27583981525E+01  0.43400728548E+02  0.00000000000E+00 0.  1.
         11    1    3    3    0    0  0.26116091308E+01  0.20678032313E+02 -0.68991643641E+01  0.21954498213E+02  0.51100000000E-03 0.  1.
        -11    1    3    3    0    0  0.12971476129E+01 -0.12405613914E+00  0.33364124302E+00  0.13451017045E+01  0.51100000000E-03 0. -1.
         12    1    3    3    0    0  0.16598578537E+02  0.17596563506E+02  0.38071249686E+01  0.24487671534E+02  0.00000000000E+00 0. -1.
</event>
<event>
 7    1  0.2294216E-010  0.4778727E+02  0.7816164E-02  0.1312668E+00
        -11   -1    0    0    0    0  0.00000000000E+00  0.00000000000E+00  0.45593999997E+02  0.45594000000E+02  0.51100000000E-03 0.  1.
         11   -1    0    0    0    0 -0.00000000000E+00 -0.00000000000E+00 -0.45593999997E+02  0.45594000000E+02  0.51100000000E-03 0. -1.
    9900012    2    1    2    0    0 -0.27222668359E+01 -0.47828977200E+01 -0.43050394582E+02  0.47787270502E+02  0.19999997527E+02 0.  0.
        -12    1    1    2    0    0  0.27222668359E+01  0.47828977200E+01  0.43050394582E+02  0.43400729498E+02  0.00000000000E+00 0.  1.
         11    1    3    3    0    0 -0.17486562870E+01 -0.30215730971E+01 -0.73718331463E+01  0.81566921597E+01  0.51100000000E-03 0. -1.
        -11    1    3    3    0    0 -0.62394519721E+01  0.49930356229E+01 -0.22838793685E+02  0.24196521711E+02  0.51100000000E-03 0.  1.
        -12    1    3    3    0    0  0.52658414232E+01 -0.67543602459E+01 -0.12839767750E+02  0.15434056631E+02  0.00000000000E+00 0.  1.
</event>
<event>
 7    1  0.2294216E-010  0.4778726E+02  0.7816164E-02  0.1312668E+00
        -11   -1    0    0    0    0  0.00000000000E+00  0.00000000000E+00  0.45593999997E+02  0.45594000000E+02  0.51100000000E-03 0. -1.
         11   -1    0    0    0    0 -0.00000000000E+00 -0.00000000000E+00 -0.45593999997E+02  0.45594000000E+02  0.51100000000E-03 0.  1.
    9900012    2    1    2    0    0  0.22397938137E+02 -0.35960089249E+02 -0.94249066877E+01  0.47787256715E+02  0.19999934668E+02 0.  0.
        -12    1    1    2    0    0 -0.22397938137E+02  0.35960089249E+02  0.94249066877E+01  0.43400743285E+02  0.00000000000E+00 0.  1.
         11    1    3    3    0    0  0.13246155594E+02 -0.15760438036E+02 -0.90484086527E+01  0.22488346861E+02  0.51100000000E-03 0. -1.
        -11    1    3    3    0    0  0.18198234035E+01 -0.10092596910E+02 -0.56909816051E+01  0.11728577983E+02  0.51100000000E-03 0.  1.
         12    1    3    3    0    0  0.73319591395E+01 -0.10107054302E+02  0.53144835701E+01  0.13570331872E+02  0.00000000000E+00 0. -1.
</event>
<event>
 7    1  0.2294216E-010  0.4778726E+02  0.7816164E-02  0.1312668E+00
        -11   -1    0    0    0    0  0.00000000000E+00  0.00000000000E+00  0.45593999997E+02  0.45594000000E+02  0.51100000000E-03 0. -1.
         11   -1    0    0    0    0 -0.00000000000E+00 -0.00000000000E+00 -0.45593999997E+02  0.45594000000E+02  0.51100000000E-03 0.  1.
    9900012    2    1    2    0    0 -0.22246919394E+02  0.30297862879E+02  0.21696495355E+02  0.47787264658E+02  0.19999970882E+02 0.  0.
        -12    1    1    2    0    0  0.22246919394E+02 -0.30297862879E+02 -0.21696495355E+02  0.43400735342E+02  0.00000000000E+00 0.  1.
         11    1    3    3    0    0 -0.53418063003E+00 -0.12750495132E+00  0.40455048881E+00  0.68210542970E+00  0.51100000000E-03 0. -1.
        -11    1    3    3    0    0 -0.12851479469E+02  0.30060490732E+01  0.70071978252E+01  0.14943148169E+02  0.51100000000E-03 0.  1.
         12    1    3    3    0    0 -0.88612592951E+01  0.27419318757E+02  0.14284747041E+02  0.32162011060E+02  0.00000000000E+00 0. -1.
</event>
<event>
 7    1  0.2294216E-010  0.4778727E+02  0.7816164E-02  0.1312668E+00
        -11   -1    0    0    0    0  0.00000000000E+00  0.00000000000E+00  0.45593999997E+02  0.45594000000E+02  0.51100000000E-03 0.  1.
         11   -1    0    0    0    0 -0.00000000000E+00 -0.00000000000E+00 -0.45593999997E+02  0.45594000000E+02  0.51100000000E-03 0. -1.
    9900012    2    1    2    0    0 -0.39339674530E+02  0.65094641668E+01 -0.17135931485E+02  0.47787271161E+02  0.20000000533E+02 0.  0.
        -12    1    1    2    0    0  0.39339674530E+02 -0.65094641668E+01  0.17135931485E+02  0.43400728839E+02  0.00000000000E+00 0.  1.
         11    1    3    3    0    0 -0.27505449150E+01 -0.11121298271E+01 -0.19926481980E+01  0.35739302153E+01  0.51100000000E-03 0. -1.
        -11    1    3    3    0    0 -0.13047622003E+02 -0.10301092957E+01 -0.13913842321E+02  0.19102266187E+02  0.51100000000E-03 0.  1.
         12    1    3    3    0    0 -0.23541507612E+02  0.86517032896E+01 -0.12294409663E+01  0.25111074759E+02  0.00000000000E+00 0. -1.
</event>
<event>
 7    1  0.2294216E-010  0.4778723E+02  0.7816164E-02  0.1312668E+00
        -11   -1    0    0    0    0  0.00000000000E+00  0.00000000000E+00  0.45593999997E+02  0.45594000000E+02  0.51100000000E-03 0.  1.
         11   -1    0    0    0    0 -0.00000000000E+00 -0.00000000000E+00 -0.45593999997E+02  0.45594000000E+02  0.51100000000E-03 0. -1.
    9900012    2    1    2    0    0  0.13861540655E+01  0.14893957044E+02 -0.40741566328E+02  0.47787232652E+02  0.19999824954E+02 0.  0.
        -12    1    1    2    0    0 -0.13861540655E+01 -0.14893957044E+02  0.40741566328E+02  0.43400767348E+02  0.00000000000E+00 0.  1.
         11    1    3    3    0    0  0.34248206569E+01 -0.17090868629E+01 -0.49414627695E+01  0.62504743021E+01  0.51100000000E-03 0.  1.
        -11    1    3    3    0    0  0.34044365428E+01  0.49445847765E+00 -0.10538389142E+02  0.11085681004E+02  0.51100000000E-03 0. -1.
         12    1    3    3    0    0 -0.54431031343E+01  0.16108585429E+02 -0.25261714417E+02  0.30451077346E+02  0.00000000000E+00 0. -1.
</event>
<event>
 7    1  0.2294216E-010  0.4778727E+02  0.7816164E-02  0.1312668E+00
        -11   -1    0    0    0    0  0.00000000000E+00  0.00000000000E+00  0.45593999997E+02  0.45594000000E+02  0.51100000000E-03 0. -1.
         11   -1    0    0    0    0 -0.00000000000E+00 -0.00000000000E+00 -0.45593999997E+02  0.45594000000E+02  0.51100000000E-03 0.  1.
    9900012    2    1    2    0    0  0.12832761286E+02 -0.31950755823E+02 -0.26421444095E+02  0.47787271113E+02  0.20000000313E+02 0.  0.
        -12    1    1    2    0    0 -0.12832761286E+02  0.31950755823E+02  0.26421444095E+02  0.43400728887E+02  0.00000000000E+00 0.  1.
         11    1    3    3    0    0  0.44741273372E+01 -0.35381863717E+01 -0.12508345800E+02  0.13747555897E+02  0.51100000000E-03 0. -1.
        -11    1    3    3    0    0 -0.81685305320E-01 -0.12227386951E+01  0.12780004837E+01  0.17706066483E+01  0.51100000000E-03 0.  1.
        -12    1    3    3    0    0  0.84403192538E+01 -0.27189830756E+02 -0.15191098778E+02  0.32269108567E+02  0.00000000000E+00 0.  1.
</event>
<event>
 7    1  0.2294216E-010  0.4778728E+02  0.7816164E-02  0.1312668E+00
        -11   -1    0    0    0    0  0.00000000000E+00  0.00000000000E+00  0.45593999997E+02  0.45594000000E+02  0.51100000000E-03 0. -1.
         11   -1    0    0    0    0 -0.00000000000E+00 -0.00000000000E+00 -0.45593999997E+02  0.45594000000E+02  0.51100000000E-03 0.  1.
    9900012    2    1    2    0    0 -0.33370481887E+02  0.15673434380E+02  0.22899279185E+02  0.47787278878E+02  0.20000035718E+02 0.  0.
        -12    1    1    2    0    0  0.33370481887E+02 -0.15673434380E+02 -0.22899279185E+02  0.43400721122E+02  0.00000000000E+00 0.  1.
         11    1    3    3    0    0 -0.15477247729E+02  0.44035931761E+01  0.10203412496E+02  0.19053778023E+02  0.51100000000E-03 0. -1.
        -11    1    3    3    0    0 -0.20353953109E+02  0.10634213135E+02  0.12591220833E+02  0.26189859459E+02  0.51100000000E-03 0.  1.
        -12    1    3    3    0    0  0.24607189508E+01  0.63562806910E+00  0.10464585626E+00  0.25436413962E+01  0.00000000000E+00 0.  1.
</event>
<event>
 7    1  0.2294216E-010  0.4778729E+02  0.7816164E-02  0.1312668E+00
        -11   -1    0    0    0    0  0.00000000000E+00  0.00000000000E+00  0.45593999997E+02  0.45594000000E+02  0.51100000000E-03 0.  1.
         11   -1    0    0    0    0 -0.00000000000E+00 -0.00000000000E+00 -0.45593999997E+02  0.45594000000E+02  0.51100000000E-03 0. -1.
    9900012    2    1    2    0    0  0.19476409475E+02 -0.62899767050E+01 -0.38271751536E+02  0.47787293800E+02  0.20000103752E+02 0.  0.
        -12    1    1    2    0    0 -0.19476409475E+02  0.62899767050E+01  0.38271751536E+02  0.43400706200E+02  0.00000000000E+00 0.  1.
         11    1    3    3    0    0  0.41664609392E+01 -0.26006902631E+01 -0.63943900977E+01  0.80629530314E+01  0.51100000000E-03 0. -1.
        -11    1    3    3    0    0 -0.30426359262E+01 -0.34040290879E+01 -0.11091194020E+02  0.11994149927E+02  0.51100000000E-03 0.  1.
         12    1    3    3    0    0  0.18352584462E+02 -0.28525735398E+00 -0.20786167418E+02  0.27730190842E+02  0.00000000000E+00 0. -1.
</event>
<event>
 7    1  0.2294216E-010  0.4778727E+02  0.7816164E-02  0.1312668E+00
        -11   -1    0    0    0    0  0.00000000000E+00  0.00000000000E+00  0.45593999997E+02  0.45594000000E+02  0.51100000000E-03 0.  1.
         11   -1    0    0    0    0 -0.00000000000E+00 -0.00000000000E+00 -0.45593999997E+02  0.45594000000E+02  0.51100000000E-03 0. -1.
    9900012    2    1    2    0    0  0.33255709723E+02 -0.17669798951E+02 -0.21574510330E+02  0.47787268207E+02  0.19999987065E+02 0.  0.
        -12    1    1    2    0    0 -0.33255709723E+02  0.17669798951E+02  0.21574510330E+02  0.43400731793E+02  0.00000000000E+00 0.  1.
         11    1    3    3    0    0  0.28126493896E+02 -0.17101173473E+02 -0.19382675926E+02  0.38199972766E+02  0.51100000000E-03 0. -1.
        -11    1    3    3    0    0  0.43341184998E+01 -0.68623901272E+00  0.23480365826E+01  0.49768246109E+01  0.51100000000E-03 0.  1.
        -12    1    3    3    0    0  0.79509732714E+00  0.11761353458E+00 -0.45398709864E+01  0.46104708302E+01  0.00000000000E+00 0.  1.
</event>
<event>
 7    1  0.2294216E-010  0.4778726E+02  0.7816164E-02  0.1312668E+00
        -11   -1    0    0    0    0  0.00000000000E+00  0.00000000000E+00  0.45593999997E+02  0.45594000000E+02  0.51100000000E-03 0.  1.
         11   -1    0    0    0    0 -0.00000000000E+00 -0.00000000000E+00 -0.45593999997E+02  0.45594000000E+02  0.51100000000E-03 0. -1.
    9900012    2    1    2    0    0  0.32203257843E+02  0.13482175323E+02 -0.25783814409E+02  0.47787263225E+02  0.19999964348E+02 0.  0.
        -12    1    1    2    0    0 -0.32203257843E+02 -0.13482175323E+02  0.25783814409E+02  0.43400736775E+02  0.00000000000E+00 0.  1.
         11    1    3    3    0    0  0.17727750294E+02  0.10708314485E+02 -0.85377486757E+01  0.22401658026E+02  0.51100000000E-03 0. -1.
        -11    1    3    3    0    0  0.30382173242E+01  0.48230618360E+01 -0.16447266670E+01  0.59327747348E+01  0.51100000000E-03 0.  1.
         12    1    3    3    0    0  0.11437290225E+02 -0.20492009980E+01 -0.15601339066E+02  0.19452830464E+02  0.00000000000E+00 0. -1.
</event>
<event>
 7    1  0.2294216E-010  0.4778728E+02  0.7816164E-02  0.1312668E+00
        -11   -1    0    0    0    0  0.00000000000E+00  0.00000000000E+00  0.45593999997E+02  0.45594000000E+02  0.51100000000E-03 0.  1.
         11   -1    0    0    0    0 -0.00000000000E+00 -0.00000000000E+00 -0.45593999997E+02  0.45594000000E+02  0.51100000000E-03 0. -1.
    9900012    2    1    2    0    0 -0.39021159950E+02  0.18226681048E+02  0.53628263296E+01  0.47787277286E+02  0.20000028457E+02 0.  0.
        -12    1    1    2    0    0  0.39021159950E+02 -0.18226681048E+02 -0.53628263296E+01  0.43400722714E+02  0.00000000000E+00 0.  1.
         11    1    3    3    0    0 -0.82756772841E+00 -0.25680266270E+01 -0.44404054749E+00  0.27343740364E+01  0.51100000000E-03 0. -1.
        -11    1    3    3    0    0 -0.42509754312E+01  0.72884961625E+00  0.35014516692E+01  0.55553737887E+01  0.51100000000E-03 0.  1.
         12    1    3    3    0    0 -0.33942616790E+02  0.20065858059E+02  0.23054152079E+01  0.39497529461E+02  0.00000000000E+00 0. -1.
</event>
<event>
 7    1  0.2294216E-010  0.4778728E+02  0.7816164E-02  0.1312668E+00
        -11   -1    0    0    0    0  0.00000000000E+00  0.00000000000E+00  0.45593999997E+02  0.45594000000E+02  0.51100000000E-03 0.  1.
         11   -1    0    0    0    0 -0.00000000000E+00 -0.00000000000E+00 -0.45593999997E+02  0.45594000000E+02  0.51100000000E-03 0. -1.
    9900012    2    1    2    0    0  0.29524466286E+02 -0.96604878304E+01 -0.30308473735E+02  0.47787277486E+02  0.20000029369E+02 0.  0.
        -12    1    1    2    0    0 -0.29524466286E+02  0.96604878304E+01  0.30308473735E+02  0.43400722514E+02  0.00000000000E+00 0.  1.
         11    1    3    3    0    0  0.19638735579E+01 -0.22456991622E+01 -0.20436157946E+01  0.36161208297E+01  0.51100000000E-03 0. -1.
        -11    1    3    3    0    0  0.16337359324E+02 -0.61942965407E+01 -0.47808468021E+01  0.18114500151E+02  0.51100000000E-03 0.  1.
         12    1    3    3    0    0  0.11223233404E+02 -0.12204921275E+01 -0.23484011138E+02  0.26056656505E+02  0.00000000000E+00 0. -1.
</event>
<event>
 7    1  0.2294216E-010  0.4778727E+02  0.7816164E-02  0.1312668E+00
        -11   -1    0    0    0    0  0.00000000000E+00  0.00000000000E+00  0.45593999997E+02  0.45594000000E+02  0.51100000000E-03 0.  1.
         11   -1    0    0    0    0 -0.00000000000E+00 -0.00000000000E+00 -0.45593999997E+02  0.45594000000E+02  0.51100000000E-03 0. -1.
    9900012    2    1    2    0    0 -0.25755370200E+02 -0.18961584552E+01 -0.34881069706E+02  0.47787268038E+02  0.19999986293E+02 0.  0.
        -12    1    1    2    0    0  0.25755370200E+02  0.18961584552E+01  0.34881069706E+02  0.43400731962E+02  0.00000000000E+00 0.  1.
         11    1    3    3    0    0 -0.56019506809E+01 -0.19580748888E+01 -0.53976902682E+01  0.80219055837E+01  0.51100000000E-03 0. -1.
        -11    1    3    3    0    0 -0.19023011254E+02 -0.61394890851E+01 -0.19281232914E+02  0.27772904535E+02  0.51100000000E-03 0.  1.
         12    1    3    3    0    0 -0.11304082650E+01  0.62014055187E+01 -0.10202146524E+02  0.11992457919E+02  0.00000000000E+00 0. -1.
</event>
<event>
 7    1  0.2294216E-010  0.4778728E+02  0.7816164E-02  0.1312668E+00
        -11   -1    0    0    0    0  0.00000000000E+00  0.00000000000E+00  0.45593999997E+02  0.45594000000E+02  0.51100000000E-03 0.  1.
         11   -1    0    0    0    0 -0.00000000000E+00 -0.00000000000E+00 -0.45593999997E+02  0.45594000000E+02  0.51100000000E-03 0. -1.
    9900012    2    1    2    0    0  0.18998868011E+01 -0.64431976800E+01 -0.42877714430E+02  0.47787276954E+02  0.20000026943E+02 0.  0.
        -12    1    1    2    0    0 -0.18998868011E+01  0.64431976800E+01  0.42877714430E+02  0.43400723046E+02  0.00000000000E+00 0.  1.
         11    1    3    3    0    0  0.60399730445E+01 -0.32929594033E+01 -0.34167652300E+02  0.34853311463E+02  0.51100000000E-03 0. -1.
        -11    1    3    3    0    0  0.59748455692E-01  0.99721431864E-01 -0.74826033623E+01  0.74835063693E+01  0.51100000000E-03 0.  1.
        -12    1    3    3    0    0 -0.41998346990E+01 -0.32499597086E+01 -0.12274587683E+01  0.54504591214E+01  0.00000000000E+00 0.  1.
</event>
<event>
 7    1  0.2294216E-010  0.4778727E+02  0.7816164E-02  0.1312668E+00
        -11   -1    0    0    0    0  0.00000000000E+00  0.00000000000E+00  0.45593999997E+02  0.45594000000E+02  0.51100000000E-03 0.  1.
         11   -1    0    0    0    0 -0.00000000000E+00 -0.00000000000E+00 -0.45593999997E+02  0.45594000000E+02  0.51100000000E-03 0. -1.
    9900012    2    1    2    0    0 -0.26818353893E+02  0.30379458954E+02  0.15539872866E+02  0.47787270967E+02  0.19999999649E+02 0.  0.
        -12    1    1    2    0    0  0.26818353893E+02 -0.30379458954E+02 -0.15539872866E+02  0.43400729033E+02  0.00000000000E+00 0.  1.
         11    1    3    3    0    0 -0.10850782323E+02  0.10560320173E+02  0.29651785976E+01  0.15428937862E+02  0.51100000000E-03 0. -1.
        -11    1    3    3    0    0 -0.40420698870E+00  0.69068043751E+01  0.97267129887E+01  0.11936342647E+02  0.51100000000E-03 0.  1.
        -12    1    3    3    0    0 -0.15563364581E+02  0.12912334407E+02  0.28479812795E+01  0.20421990458E+02  0.00000000000E+00 0.  1.
</event>
<event>
 7    1  0.2294216E-010  0.4778726E+02  0.7816164E-02  0.1312668E+00
        -11   -1    0    0    0    0  0.00000000000E+00  0.00000000000E+00  0.45593999997E+02  0.45594000000E+02  0.51100000000E-03 0.  1.
         11   -1    0    0    0    0 -0.00000000000E+00 -0.00000000000E+00 -0.45593999997E+02  0.45594000000E+02  0.51100000000E-03 0. -1.
    9900012    2    1    2    0    0 -0.74388684464E+01 -0.41163934940E+02 -0.11567968413E+02  0.47787260412E+02  0.19999951524E+02 0.  0.
        -12    1    1    2    0    0  0.74388684464E+01  0.41163934940E+02  0.11567968413E+02  0.43400739588E+02  0.00000000000E+00 0.  1.
         11    1    3    3    0    0 -0.60629484397E+01 -0.21679630828E+02 -0.62062615571E+00  0.22520011405E+02  0.51100000000E-03 0.  1.
        -11    1    3    3    0    0  0.39524559414E+01 -0.12201093162E+02 -0.28398412460E+01  0.13135953749E+02  0.51100000000E-03 0. -1.
        -12    1    3    3    0    0 -0.53283759481E+01 -0.72832109503E+01 -0.81075010115E+01  0.12131295258E+02  0.00000000000E+00 0.  1.
</event>
<event>
 7    1  0.2294216E-010  0.4778723E+02  0.7816164E-02  0.1312668E+00
        -11   -1    0    0    0    0  0.00000000000E+00  0.00000000000E+00  0.45593999997E+02  0.45594000000E+02  0.51100000000E-03 0.  1.
         11   -1    0    0    0    0 -0.00000000000E+00 -0.00000000000E+00 -0.45593999997E+02  0.45594000000E+02  0.51100000000E-03 0. -1.
    9900012    2    1    2    0    0  0.63871379888E+01 -0.70020518792E+01 -0.42353310860E+02  0.47787225778E+02  0.19999793612E+02 0.  0.
        -12    1    1    2    0    0 -0.63871379888E+01  0.70020518792E+01  0.42353310860E+02  0.43400774222E+02  0.00000000000E+00 0.  1.
         11    1    3    3    0    0  0.96458573701E+01 -0.48924879783E+00 -0.36474658377E+02  0.37731719187E+02  0.51100000000E-03 0. -1.
        -11    1    3    3    0    0  0.59102497112E+00 -0.14309171507E+01 -0.28527544525E+00  0.15742352903E+01  0.51100000000E-03 0.  1.
         12    1    3    3    0    0 -0.38497443525E+01 -0.50818859308E+01 -0.55933770378E+01  0.84812713009E+01  0.00000000000E+00 0. -1.
</event>
<event>
 7    1  0.2294216E-010  0.4778727E+02  0.7816164E-02  0.1312668E+00
        -11   -1    0    0    0    0  0.00000000000E+00  0.00000000000E+00  0.45593999997E+02  0.45594000000E+02  0.51100000000E-03 0.  1.
         11   -1    0    0    0    0 -0.00000000000E+00 -0.00000000000E+00 -0.45593999997E+02  0.45594000000E+02  0.51100000000E-03 0. -1.
    9900012    2    1    2    0    0 -0.29106072887E+02  0.13366692885E+02 -0.29288076593E+02  0.47787269729E+02  0.19999994002E+02 0.  0.
        -12    1    1    2    0    0  0.29106072887E+02 -0.13366692885E+02  0.29288076593E+02  0.43400730271E+02  0.00000000000E+00 0.  1.
         11    1    3    3    0    0 -0.10906425800E+02  0.78581661963E+01 -0.74825914445E+01  0.15384735119E+02  0.51100000000E-03 0. -1.
        -11    1    3    3    0    0 -0.51217480280E+01  0.68406732833E+01 -0.22456040229E+01  0.88357145450E+01  0.51100000000E-03 0.  1.
        -12    1    3    3    0    0 -0.13077899059E+02 -0.13321465942E+01 -0.19559881125E+02  0.23566820065E+02  0.00000000000E+00 0.  1.
</event>
<event>
 7    1  0.2294216E-010  0.4778727E+02  0.7816164E-02  0.1312668E+00
        -11   -1    0    0    0    0  0.00000000000E+00  0.00000000000E+00  0.45593999997E+02  0.45594000000E+02  0.51100000000E-03 0.  1.
         11   -1    0    0    0    0 -0.00000000000E+00 -0.00000000000E+00 -0.45593999997E+02  0.45594000000E+02  0.51100000000E-03 0. -1.
    9900012    2    1    2    0    0 -0.28503282399E+02  0.21625939150E+02 -0.24566337999E+02  0.47787270578E+02  0.19999997874E+02 0.  0.
        -12    1    1    2    0    0  0.28503282399E+02 -0.21625939150E+02  0.24566337999E+02  0.43400729422E+02  0.00000000000E+00 0.  1.
         11    1    3    3    0    0 -0.73306189248E+01 -0.67672145548E+00 -0.34555738284E+01  0.81324606666E+01  0.51100000000E-03 0. -1.
        -11    1    3    3    0    0 -0.29566725437E+01  0.42609356606E+01  0.15756334308E+01  0.54203418899E+01  0.51100000000E-03 0.  1.
         12    1    3    3    0    0 -0.18215990931E+02  0.18041724945E+02 -0.22686397602E+02  0.34234468022E+02  0.00000000000E+00 0. -1.
</event>
<event>
 7    1  0.2294216E-010  0.4778726E+02  0.7816164E-02  0.1312668E+00
        -11   -1    0    0    0    0  0.00000000000E+00  0.00000000000E+00  0.45593999997E+02  0.45594000000E+02  0.51100000000E-03 0.  1.
         11   -1    0    0    0    0 -0.00000000000E+00 -0.00000000000E+00 -0.45593999997E+02  0.45594000000E+02  0.51100000000E-03 0. -1.
    9900012    2    1    2    0    0  0.14373235549E+02 -0.35384899413E+02 -0.20614160386E+02  0.47787255594E+02  0.19999929554E+02 0.  0.
        -12    1    1    2    0    0 -0.14373235549E+02  0.35384899413E+02  0.20614160386E+02  0.43400744406E+02  0.00000000000E+00 0.  1.
         11    1    3    3    0    0  0.61734544250E+01 -0.19542175961E+02 -0.47006087236E+01  0.21026266989E+02  0.51100000000E-03 0. -1.
        -11    1    3    3    0    0 -0.13468159389E+00 -0.49728190045E+01  0.91975483269E+00  0.50589541604E+01  0.51100000000E-03 0.  1.
        -12    1    3    3    0    0  0.83344627174E+01 -0.10869904447E+02 -0.16833306496E+02  0.21702034445E+02  0.00000000000E+00 0.  1.
</event>
<event>
 7    1  0.2294216E-010  0.4778728E+02  0.7816164E-02  0.1312668E+00
        -11   -1    0    0    0    0  0.00000000000E+00  0.00000000000E+00  0.45593999997E+02  0.45594000000E+02  0.51100000000E-03 0.  1.
         11   -1    0    0    0    0 -0.00000000000E+00 -0.00000000000E+00 -0.45593999997E+02  0.45594000000E+02  0.51100000000E-03 0. -1.
    9900012    2    1    2    0    0  0.32087464120E+02 -0.33185901998E+01 -0.29034532570E+02  0.47787280235E+02  0.20000041903E+02 0.  0.
        -12    1    1    2    0    0 -0.32087464120E+02  0.33185901998E+01  0.29034532570E+02  0.43400719765E+02  0.00000000000E+00 0.  1.
         11    1    3    3    0    0  0.22185271379E+01 -0.18240873541E+01  0.16771393776E+01  0.33259516066E+01  0.51100000000E-03 0. -1.
        -11    1    3    3    0    0  0.10998389174E+02 -0.24426621567E+01 -0.44597955437E+01  0.12116969068E+02  0.51100000000E-03 0.  1.
         12    1    3    3    0    0  0.18870547808E+02  0.94815931099E+00 -0.26251876404E+02  0.32344359561E+02  0.00000000000E+00 0. -1.
</event>
<event>
 7    1  0.2294216E-010  0.4778726E+02  0.7816164E-02  0.1312668E+00
        -11   -1    0    0    0    0  0.00000000000E+00  0.00000000000E+00  0.45593999997E+02  0.45594000000E+02  0.51100000000E-03 0. -1.
         11   -1    0    0    0    0 -0.00000000000E+00 -0.00000000000E+00 -0.45593999997E+02  0.45594000000E+02  0.51100000000E-03 0.  1.
    9900012    2    1    2    0    0  0.19170523552E+02 -0.36337144165E+02 -0.13990243435E+02  0.47787263477E+02  0.19999965497E+02 0.  0.
        -12    1    1    2    0    0 -0.19170523552E+02  0.36337144165E+02  0.13990243435E+02  0.43400736523E+02  0.00000000000E+00 0.  1.
         11    1    3    3    0    0  0.11811598931E+02 -0.13818649915E+02 -0.52661227627E+01  0.18926198879E+02  0.51100000000E-03 0. -1.
        -11    1    3    3    0    0  0.11026826697E+02 -0.19895491409E+02 -0.86938333979E+01  0.24351678070E+02  0.51100000000E-03 0.  1.
        -12    1    3    3    0    0 -0.36679020758E+01 -0.26230028417E+01 -0.30287274235E-01  0.45093865286E+01  0.00000000000E+00 0.  1.
</event>
<event>
 7    1  0.2294216E-010  0.4778726E+02  0.7816164E-02  0.1312668E+00
        -11   -1    0    0    0    0  0.00000000000E+00  0.00000000000E+00  0.45593999997E+02  0.45594000000E+02  0.51100000000E-03 0.  1.
         11   -1    0    0    0    0 -0.00000000000E+00 -0.00000000000E+00 -0.45593999997E+02  0.45594000000E+02  0.51100000000E-03 0. -1.
    9900012    2    1    2    0    0  0.14459537425E+02 -0.40524285912E+02 -0.56857613652E+01  0.47787264367E+02  0.19999969554E+02 0.  0.
        -12    1    1    2    0    0 -0.14459537425E+02  0.40524285912E+02  0.56857613652E+01  0.43400735633E+02  0.00000000000E+00 0.  1.
         11    1    3    3    0    0  0.10163571613E+01 -0.62708299996E+01  0.25491013623E+01  0.68450134244E+01  0.51100000000E-03 0. -1.
        -11    1    3    3    0    0  0.15786152063E+02 -0.24583826127E+02 -0.21841322143E+01  0.29297398141E+02  0.51100000000E-03 0.  1.
        -12    1    3    3    0    0 -0.23429717996E+01 -0.96696297850E+01 -0.60507305132E+01  0.11644852802E+02  0.00000000000E+00 0.  1.
</event>
<event>
 7    1  0.2294216E-010  0.4778727E+02  0.7816164E-02  0.1312668E+00
        -11   -1    0    0    0    0  0.00000000000E+00  0.00000000000E+00  0.45593999997E+02  0.45594000000E+02  0.51100000000E-03 0.  1.
         11   -1    0    0    0    0 -0.00000000000E+00 -0.00000000000E+00 -0.45593999997E+02  0.45594000000E+02  0.51100000000E-03 0. -1.
    9900012    2    1    2    0    0 -0.38230971421E+02 -0.77567538030E+01 -0.19022318598E+02  0.47787274082E+02  0.20000013849E+02 0.  0.
        -12    1    1    2    0    0  0.38230971421E+02  0.77567538030E+01  0.19022318598E+02  0.43400725918E+02  0.00000000000E+00 0.  1.
         11    1    3    3    0    0 -0.26730793677E+01 -0.18970447325E+01  0.78319690540E+00  0.33700934226E+01  0.51100000000E-03 0. -1.
        -11    1    3    3    0    0 -0.27122658360E+02 -0.11640698717E+02 -0.14156998207E+02  0.32734768391E+02  0.51100000000E-03 0.  1.
        -12    1    3    3    0    0 -0.84352336942E+01  0.57809896465E+01 -0.56485172964E+01  0.11682412269E+02  0.00000000000E+00 0.  1.
</event>
<event>
 7    1  0.2294216E-010  0.4778726E+02  0.7816164E-02  0.1312668E+00
        -11   -1    0    0    0    0  0.00000000000E+00  0.00000000000E+00  0.45593999997E+02  0.45594000000E+02  0.51100000000E-03 0.  1.
         11   -1    0    0    0    0 -0.00000000000E+00 -0.00000000000E+00 -0.45593999997E+02  0.45594000000E+02  0.51100000000E-03 0. -1.
    9900012    2    1    2    0    0  0.39126669861E+01  0.29588344447E+02 -0.31509439683E+02  0.47787264070E+02  0.19999968203E+02 0.  0.
        -12    1    1    2    0    0 -0.39126669861E+01 -0.29588344447E+02  0.31509439683E+02  0.43400735930E+02  0.00000000000E+00 0.  1.
         11    1    3    3    0    0 -0.65339825299E+01  0.14555085464E+02 -0.91710101732E+01  0.18402469085E+02  0.51100000000E-03 0. -1.
        -11    1    3    3    0    0  0.32189088272E+01  0.51500922154E+01 -0.11622823335E+02  0.13113918042E+02  0.51100000000E-03 0.  1.
         12    1    3    3    0    0  0.72277406889E+01  0.98831667682E+01 -0.10715606175E+02  0.16270876944E+02  0.00000000000E+00 0. -1.
</event>
<event>
 7    1  0.2294216E-010  0.4778730E+02  0.7816164E-02  0.1312668E+00
        -11   -1    0    0    0    0  0.00000000000E+00  0.00000000000E+00  0.45593999997E+02  0.45594000000E+02  0.51100000000E-03 0.  1.
         11   -1    0    0    0    0 -0.00000000000E+00 -0.00000000000E+00 -0.45593999997E+02  0.45594000000E+02  0.51100000000E-03 0. -1.
    9900012    2    1    2    0    0  0.78084103876E+01 -0.17458626710E+02 -0.38959537745E+02  0.47787302993E+02  0.20000145665E+02 0.  0.
        -12    1    1    2    0    0 -0.78084103876E+01  0.17458626710E+02  0.38959537745E+02  0.43400697007E+02  0.00000000000E+00 0.  1.
         11    1    3    3    0    0 -0.40334636384E+01 -0.45368719556E+01 -0.12847026416E+02  0.14209085968E+02  0.51100000000E-03 0. -1.
        -11    1    3    3    0    0  0.10069882509E+01  0.20920932135E+01 -0.48972839904E+01  0.54198035107E+01  0.51100000000E-03 0.  1.
         12    1    3    3    0    0  0.10834885775E+02 -0.15013847968E+02 -0.21215227339E+02  0.28158413514E+02  0.00000000000E+00 0. -1.
</event>
<event>
 7    1  0.2294216E-010  0.4778728E+02  0.7816164E-02  0.1312668E+00
        -11   -1    0    0    0    0  0.00000000000E+00  0.00000000000E+00  0.45593999997E+02  0.45594000000E+02  0.51100000000E-03 0.  1.
         11   -1    0    0    0    0 -0.00000000000E+00 -0.00000000000E+00 -0.45593999997E+02  0.45594000000E+02  0.51100000000E-03 0. -1.
    9900012    2    1    2    0    0 -0.15578405181E+01  0.18853719522E+02 -0.39060626952E+02  0.47787283591E+02  0.20000057205E+02 0.  0.
        -12    1    1    2    0    0  0.15578405181E+01 -0.18853719522E+02  0.39060626952E+02  0.43400716409E+02  0.00000000000E+00 0.  1.
         11    1    3    3    0    0  0.82202657571E+00  0.20557962454E+01 -0.14869150760E+01  0.26670100483E+01  0.51100000000E-03 0. -1.
        -11    1    3    3    0    0 -0.71189710181E+01  0.14753706118E+01 -0.50351690316E+01  0.88436075352E+01  0.51100000000E-03 0.  1.
         12    1    3    3    0    0  0.47391039243E+01  0.15322552665E+02 -0.32538542845E+02  0.36276666008E+02  0.00000000000E+00 0. -1.
</event>
<event>
 7    1  0.2294216E-010  0.4778727E+02  0.7816164E-02  0.1312668E+00
        -11   -1    0    0    0    0  0.00000000000E+00  0.00000000000E+00  0.45593999997E+02  0.45594000000E+02  0.51100000000E-03 0.  1.
         11   -1    0    0    0    0 -0.00000000000E+00 -0.00000000000E+00 -0.45593999997E+02  0.45594000000E+02  0.51100000000E-03 0. -1.
    9900012    2    1    2    0    0 -0.11167612799E+02  0.44190291882E+01 -0.41705873633E+02  0.47787270857E+02  0.19999999146E+02 0.  0.
        -12    1    1    2    0    0  0.11167612799E+02 -0.44190291882E+01  0.41705873633E+02  0.43400729143E+02  0.00000000000E+00 0.  1.
         11    1    3    3    0    0 -0.46112924475E+01  0.92706675576E+00 -0.16198766866E+02  0.16867824965E+02  0.51100000000E-03 0. -1.
        -11    1    3    3    0    0  0.32592120882E+01  0.49655210045E+01 -0.16424408359E+02  0.17465395858E+02  0.51100000000E-03 0.  1.
        -12    1    3    3    0    0 -0.98155324400E+01 -0.14735585721E+01 -0.90826984090E+01  0.13454050035E+02  0.00000000000E+00 0.  1.
</event>
<event>
 7    1  0.2294216E-010  0.4778726E+02  0.7816164E-02  0.1312668E+00
        -11   -1    0    0    0    0  0.00000000000E+00  0.00000000000E+00  0.45593999997E+02  0.45594000000E+02  0.51100000000E-03 0.  1.
         11   -1    0    0    0    0 -0.00000000000E+00 -0.00000000000E+00 -0.45593999997E+02  0.45594000000E+02  0.51100000000E-03 0. -1.
    9900012    2    1    2    0    0  0.42607354385E+02 -0.82093509826E+01 -0.91895289363E+00  0.47787256163E+02  0.19999932147E+02 0.  0.
        -12    1    1    2    0    0 -0.42607354385E+02  0.82093509826E+01  0.91895289363E+00  0.43400743837E+02  0.00000000000E+00 0.  1.
         11    1    3    3    0    0  0.17575403100E+02 -0.29206569618E+01  0.43642997620E+01  0.18343177039E+02  0.51100000000E-03 0. -1.
        -11    1    3    3    0    0  0.14673439585E+02 -0.76791614863E+00  0.35304261982E+01  0.15111698577E+02  0.51100000000E-03 0.  1.
         12    1    3    3    0    0  0.10358511700E+02 -0.45207778722E+01 -0.88136788538E+01  0.14332380547E+02  0.00000000000E+00 0. -1.
</event>
<event>
 7    1  0.2294216E-010  0.4778727E+02  0.7816164E-02  0.1312668E+00
        -11   -1    0    0    0    0  0.00000000000E+00  0.00000000000E+00  0.45593999997E+02  0.45594000000E+02  0.51100000000E-03 0.  1.
         11   -1    0    0    0    0 -0.00000000000E+00 -0.00000000000E+00 -0.45593999997E+02  0.45594000000E+02  0.51100000000E-03 0. -1.
    9900012    2    1    2    0    0 -0.16947518937E+02  0.39126944819E+02 -0.80924124864E+01  0.47787270181E+02  0.19999996064E+02 0.  0.
        -12    1    1    2    0    0  0.16947518937E+02 -0.39126944819E+02  0.80924124864E+01  0.43400729819E+02  0.00000000000E+00 0.  1.
         11    1    3    3    0    0 -0.97943084463E+01  0.26568621494E+02 -0.10329832640E+02  0.30141757889E+02  0.51100000000E-03 0. -1.
        -11    1    3    3    0    0  0.16467102399E+01  0.57796508172E+01 -0.96131395116E+00  0.60860613665E+01  0.51100000000E-03 0.  1.
         12    1    3    3    0    0 -0.87999207303E+01  0.67786725080E+01  0.31987341045E+01  0.11559450926E+02  0.00000000000E+00 0. -1.
</event>
<event>
 7    1  0.2294216E-010  0.4778727E+02  0.7816164E-02  0.1312668E+00
        -11   -1    0    0    0    0  0.00000000000E+00  0.00000000000E+00  0.45593999997E+02  0.45594000000E+02  0.51100000000E-03 0.  1.
         11   -1    0    0    0    0 -0.00000000000E+00 -0.00000000000E+00 -0.45593999997E+02  0.45594000000E+02  0.51100000000E-03 0. -1.
    9900012    2    1    2    0    0 -0.25408455032E+02  0.15000341182E+02 -0.31828028427E+02  0.47787271709E+02  0.20000003028E+02 0.  0.
        -12    1    1    2    0    0  0.25408455032E+02 -0.15000341182E+02  0.31828028427E+02  0.43400728291E+02  0.00000000000E+00 0.  1.
         11    1    3    3    0    0 -0.12373518081E+02  0.62836960635E+01 -0.91832175521E+01  0.16640921573E+02  0.51100000000E-03 0. -1.
        -11    1    3    3    0    0 -0.85074839914E+01 -0.14771787782E+01 -0.42259259244E+01  0.96134172481E+01  0.51100000000E-03 0.  1.
        -12    1    3    3    0    0 -0.45274529594E+01  0.10193823897E+02 -0.18418884950E+02  0.21532932888E+02  0.00000000000E+00 0.  1.
</event>
<event>
 7    1  0.2294216E-010  0.4778727E+02  0.7816164E-02  0.1312668E+00
        -11   -1    0    0    0    0  0.00000000000E+00  0.00000000000E+00  0.45593999997E+02  0.45594000000E+02  0.51100000000E-03 0. -1.
         11   -1    0    0    0    0 -0.00000000000E+00 -0.00000000000E+00 -0.45593999997E+02  0.45594000000E+02  0.51100000000E-03 0.  1.
    9900012    2    1    2    0    0  0.35005084956E+01 -0.34843319944E+02  0.25638115381E+02  0.47787268846E+02  0.19999989975E+02 0.  0.
        -12    1    1    2    0    0 -0.35005084956E+01  0.34843319944E+02 -0.25638115381E+02  0.43400731154E+02  0.00000000000E+00 0.  1.
         11    1    3    3    0    0 -0.14129110135E+01 -0.36109399323E+01 -0.18400090018E+01  0.42919503858E+01  0.51100000000E-03 0.  1.
        -11    1    3    3    0    0  0.22096417953E+01 -0.31204952162E+01  0.89118099893E+01  0.96974411473E+01  0.51100000000E-03 0. -1.
         12    1    3    3    0    0  0.27037777137E+01 -0.28111884796E+02  0.18566314393E+02  0.33797877313E+02  0.00000000000E+00 0. -1.
</event>
<event>
 7    1  0.2294216E-010  0.4778727E+02  0.7816164E-02  0.1312668E+00
        -11   -1    0    0    0    0  0.00000000000E+00  0.00000000000E+00  0.45593999997E+02  0.45594000000E+02  0.51100000000E-03 0.  1.
         11   -1    0    0    0    0 -0.00000000000E+00 -0.00000000000E+00 -0.45593999997E+02  0.45594000000E+02  0.51100000000E-03 0. -1.
    9900012    2    1    2    0    0  0.23502157926E+02  0.31730297706E+02 -0.18012772442E+02  0.47787272002E+02  0.20000004367E+02 0.  0.
        -12    1    1    2    0    0 -0.23502157926E+02 -0.31730297706E+02  0.18012772442E+02  0.43400727998E+02  0.00000000000E+00 0.  1.
         11    1    3    3    0    0  0.15692492881E+02  0.21142600565E+02 -0.15935698375E+02  0.30776783042E+02  0.51100000000E-03 0.  1.
        -11    1    3    3    0    0  0.73496570973E+01  0.21423246181E+01 -0.35275022794E+01  0.84291332181E+01  0.51100000000E-03 0. -1.
        -12    1    3    3    0    0  0.46000794751E+00  0.84453725236E+01  0.14504282123E+01  0.85813557421E+01  0.00000000000E+00 0.  1.
</event>
<event>
 7    1  0.2294216E-010  0.4778727E+02  0.7816164E-02  0.1312668E+00
        -11   -1    0    0    0    0  0.00000000000E+00  0.00000000000E+00  0.45593999997E+02  0.45594000000E+02  0.51100000000E-03 0. -1.
         11   -1    0    0    0    0 -0.00000000000E+00 -0.00000000000E+00 -0.45593999997E+02  0.45594000000E+02  0.51100000000E-03 0.  1.
    9900012    2    1    2    0    0  0.12967036852E+01  0.40893910444E+02  0.14478604948E+02  0.47787270132E+02  0.19999995841E+02 0.  0.
        -12    1    1    2    0    0 -0.12967036852E+01 -0.40893910444E+02 -0.14478604948E+02  0.43400729868E+02  0.00000000000E+00 0.  1.
         11    1    3    3    0    0  0.94917796782E+00  0.12004715475E+02  0.64732547310E+01  0.13671765048E+02  0.51100000000E-03 0.  1.
        -11    1    3    3    0    0  0.44239719741E+01  0.28087442147E+02  0.90361180131E+01  0.29835002319E+02  0.51100000000E-03 0. -1.
        -12    1    3    3    0    0 -0.40764462568E+01  0.80175282152E+00 -0.10307677960E+01  0.42805027649E+01  0.00000000000E+00 0.  1.
</event>
<event>
 7    1  0.2294216E-010  0.4778727E+02  0.7816164E-02  0.1312668E+00
        -11   -1    0    0    0    0  0.00000000000E+00  0.00000000000E+00  0.45593999997E+02  0.45594000000E+02  0.51100000000E-03 0.  1.
         11   -1    0    0    0    0 -0.00000000000E+00 -0.00000000000E+00 -0.45593999997E+02  0.45594000000E+02  0.51100000000E-03 0. -1.
    9900012    2    1    2    0    0  0.49828734714E+01  0.39916325443E+02 -0.16293592072E+02  0.47787271809E+02  0.20000003486E+02 0.  0.
        -12    1    1    2    0    0 -0.49828734714E+01 -0.39916325443E+02  0.16293592072E+02  0.43400728191E+02  0.00000000000E+00 0.  1.
         11    1    3    3    0    0  0.59709417518E+01  0.12631852248E+02 -0.71741133638E+01  0.15706168834E+02  0.51100000000E-03 0. -1.
        -11    1    3    3    0    0  0.65712349644E+01  0.11616208755E+02 -0.34615201757E+01  0.13787659590E+02  0.51100000000E-03 0.  1.
        -12    1    3    3    0    0 -0.75593032449E+01  0.15668264440E+02 -0.56579585324E+01  0.18293443385E+02  0.00000000000E+00 0.  1.
</event>
<event>
 7    1  0.2294216E-010  0.4778727E+02  0.7816164E-02  0.1312668E+00
        -11   -1    0    0    0    0  0.00000000000E+00  0.00000000000E+00  0.45593999997E+02  0.45594000000E+02  0.51100000000E-03 0.  1.
         11   -1    0    0    0    0 -0.00000000000E+00 -0.00000000000E+00 -0.45593999997E+02  0.45594000000E+02  0.51100000000E-03 0. -1.
    9900012    2    1    2    0    0  0.30866831128E+02  0.27865403225E+02 -0.12425028818E+02  0.47787270722E+02  0.19999998529E+02 0.  0.
        -12    1    1    2    0    0 -0.30866831128E+02 -0.27865403225E+02  0.12425028818E+02  0.43400729278E+02  0.00000000000E+00 0.  1.
         11    1    3    3    0    0  0.16073057410E+01  0.45720220775E+01  0.35645490111E+01  0.60160475012E+01  0.51100000000E-03 0.  1.
        -11    1    3    3    0    0  0.73823804869E+01  0.11453944364E+02 -0.43248883170E+01  0.14296749364E+02  0.51100000000E-03 0. -1.
        -12    1    3    3    0    0  0.21877144900E+02  0.11839436783E+02 -0.11664689512E+02  0.27474473857E+02  0.00000000000E+00 0.  1.
</event>
<event>
 7    1  0.2294216E-010  0.4778727E+02  0.7816164E-02  0.1312668E+00
        -11   -1    0    0    0    0  0.00000000000E+00  0.00000000000E+00  0.45593999997E+02  0.45594000000E+02  0.51100000000E-03 0. -1.
         11   -1    0    0    0    0 -0.00000000000E+00 -0.00000000000E+00 -0.45593999997E+02  0.45594000000E+02  0.51100000000E-03 0.  1.
    9900012    2    1    2    0    0 -0.14918619505E+02  0.40191341881E+02  0.67612243922E+01  0.47787270451E+02  0.19999997293E+02 0.  0.
        -12    1    1    2    0    0  0.14918619505E+02 -0.40191341881E+02 -0.67612243922E+01  0.43400729549E+02  0.00000000000E+00 0.  1.
         11    1    3    3    0    0 -0.11105528031E+02  0.80651480213E+01  0.68522442132E+01  0.15340554633E+02  0.51100000000E-03 0. -1.
        -11    1    3    3    0    0 -0.17271354413E+01  0.14829323425E+02  0.11937504231E+01  0.14977211703E+02  0.51100000000E-03 0.  1.
         12    1    3    3    0    0 -0.20859560328E+01  0.17296870435E+02 -0.12847702442E+01  0.17469504114E+02  0.00000000000E+00 0. -1.
</event>
<event>
 7    1  0.2294216E-010  0.4778727E+02  0.7816164E-02  0.1312668E+00
        -11   -1    0    0    0    0  0.00000000000E+00  0.00000000000E+00  0.45593999997E+02  0.45594000000E+02  0.51100000000E-03 0. -1.
         11   -1    0    0    0    0 -0.00000000000E+00 -0.00000000000E+00 -0.45593999997E+02  0.45594000000E+02  0.51100000000E-03 0.  1.
    9900012    2    1    2    0    0 -0.36653686325E+02  0.18033868471E+02  0.14659822901E+02  0.47787267970E+02  0.19999985981E+02 0.  0.
        -12    1    1    2    0    0  0.36653686325E+02 -0.18033868471E+02 -0.14659822901E+02  0.43400732030E+02  0.00000000000E+00 0.  1.
         11    1    3    3    0    0 -0.17443388300E+01  0.12617481855E+01 -0.15649100237E+01  0.26615165002E+01  0.51100000000E-03 0. -1.
        -11    1    3    3    0    0 -0.34505563925E+02  0.11637881395E+02  0.11639480166E+02  0.38230246193E+02  0.51100000000E-03 0.  1.
        -12    1    3    3    0    0 -0.40378357017E+00  0.51342388907E+01  0.45852527588E+01  0.68955052766E+01  0.00000000000E+00 0.  1.
</event>
<event>
 7    1  0.2294216E-010  0.4778727E+02  0.7816164E-02  0.1312668E+00
        -11   -1    0    0    0    0  0.00000000000E+00  0.00000000000E+00  0.45593999997E+02  0.45594000000E+02  0.51100000000E-03 0.  1.
         11   -1    0    0    0    0 -0.00000000000E+00 -0.00000000000E+00 -0.45593999997E+02  0.45594000000E+02  0.51100000000E-03 0. -1.
    9900012    2    1    2    0    0  0.76682410797E+01 -0.42681430082E+02 -0.17655071433E+01  0.47787269470E+02  0.19999992821E+02 0.  0.
        -12    1    1    2    0    0 -0.76682410797E+01  0.42681430082E+02  0.17655071433E+01  0.43400730530E+02  0.00000000000E+00 0.  1.
         11    1    3    3    0    0  0.10583735329E+02 -0.17495233597E+02  0.10733246264E+01  0.20475611789E+02  0.51100000000E-03 0. -1.
        -11    1    3    3    0    0  0.79117055462E+00 -0.61457247925E+01 -0.47673004470E+01  0.78181224015E+01  0.51100000000E-03 0.  1.
         12    1    3    3    0    0 -0.37066648040E+01 -0.19040471692E+02  0.19284686773E+01  0.19493535279E+02  0.00000000000E+00 0. -1.
</event>
<event>
 7    1  0.2294216E-010  0.4778727E+02  0.7816164E-02  0.1312668E+00
        -11   -1    0    0    0    0  0.00000000000E+00  0.00000000000E+00  0.45593999997E+02  0.45594000000E+02  0.51100000000E-03 0. -1.
         11   -1    0    0    0    0 -0.00000000000E+00 -0.00000000000E+00 -0.45593999997E+02  0.45594000000E+02  0.51100000000E-03 0.  1.
    9900012    2    1    2    0    0 -0.14237723683E+02 -0.39616810865E+02  0.10555501195E+02  0.47787273229E+02  0.20000009960E+02 0.  0.
        -12    1    1    2    0    0  0.14237723683E+02  0.39616810865E+02 -0.10555501195E+02  0.43400726771E+02  0.00000000000E+00 0.  1.
         11    1    3    3    0    0 -0.12553882843E+02 -0.19034052142E+02  0.74885062767E+01  0.23999434200E+02  0.51100000000E-03 0. -1.
        -11    1    3    3    0    0  0.70090721570E-01 -0.86494548959E+01  0.69721942180E+01  0.11109881871E+02  0.51100000000E-03 0.  1.
        -12    1    3    3    0    0 -0.17539315617E+01 -0.11933303827E+02 -0.39051992996E+01  0.12677957159E+02  0.00000000000E+00 0.  1.
</event>
<event>
 7    1  0.2294216E-010  0.4778727E+02  0.7816164E-02  0.1312668E+00
        -11   -1    0    0    0    0  0.00000000000E+00  0.00000000000E+00  0.45593999997E+02  0.45594000000E+02  0.51100000000E-03 0.  1.
         11   -1    0    0    0    0 -0.00000000000E+00 -0.00000000000E+00 -0.45593999997E+02  0.45594000000E+02  0.51100000000E-03 0. -1.
    9900012    2    1    2    0    0  0.15952674640E+02 -0.15416232894E+02 -0.37302483228E+02  0.47787270515E+02  0.19999997588E+02 0.  0.
        -12    1    1    2    0    0 -0.15952674640E+02  0.15416232894E+02  0.37302483228E+02  0.43400729485E+02  0.00000000000E+00 0.  1.
         11    1    3    3    0    0 -0.17156313050E+01 -0.31672111998E+01 -0.61509278962E+01  0.71280103678E+01  0.51100000000E-03 0. -1.
        -11    1    3    3    0    0  0.15638474742E+01 -0.34578473747E+00  0.16041701658E+01  0.22668366040E+01  0.51100000000E-03 0.  1.
        -12    1    3    3    0    0  0.16104458471E+02 -0.11903236957E+02 -0.32755725498E+02  0.38392423544E+02  0.00000000000E+00 0.  1.
</event>
<event>
 7    1  0.2294216E-010  0.4778727E+02  0.7816164E-02  0.1312668E+00
        -11   -1    0    0    0    0  0.00000000000E+00  0.00000000000E+00  0.45593999997E+02  0.45594000000E+02  0.51100000000E-03 0.  1.
         11   -1    0    0    0    0 -0.00000000000E+00 -0.00000000000E+00 -0.45593999997E+02  0.45594000000E+02  0.51100000000E-03 0. -1.
    9900012    2    1    2    0    0 -0.18719926446E+02  0.11121450618E+02 -0.37543324372E+02  0.47787268268E+02  0.19999987339E+02 0.  0.
        -12    1    1    2    0    0  0.18719926446E+02 -0.11121450618E+02  0.37543324372E+02  0.43400731732E+02  0.00000000000E+00 0.  1.
         11    1    3    3    0    0 -0.89341955892E+01  0.53875823327E+01 -0.66804942890E+01  0.12388498635E+02  0.51100000000E-03 0. -1.
        -11    1    3    3    0    0  0.26691445699E+00 -0.13299272496E+01  0.70181603654E+00  0.15272510687E+01  0.51100000000E-03 0.  1.
        -12    1    3    3    0    0 -0.10052645314E+02  0.70637955352E+01 -0.31564646120E+02  0.33871518564E+02  0.00000000000E+00 0.  1.
</event>
<event>
 7    1  0.2294216E-010  0.4778733E+02  0.7816164E-02  0.1312667E+00
        -11   -1    0    0    0    0  0.00000000000E+00  0.00000000000E+00  0.45593999997E+02  0.45594000000E+02  0.51100000000E-03 0. -1.
         11   -1    0    0    0    0 -0.00000000000E+00 -0.00000000000E+00 -0.45593999997E+02  0.45594000000E+02  0.51100000000E-03 0.  1.
    9900012    2    1    2    0    0  0.42598960461E+02  0.18221535353E+01  0.81010050654E+01  0.47787332275E+02  0.20000279173E+02 0.  0.
        -12    1    1    2    0    0 -0.42598960461E+02 -0.18221535353E+01 -0.81010050654E+01  0.43400667725E+02  0.00000000000E+00 0.  1.
         11    1    3    3    0    0  0.16004425351E+02  0.31378307706E+01 -0.22985792390E+01  0.16470309030E+02  0.51100000000E-03 0. -1.
        -11    1    3    3    0    0  0.14188947802E+01  0.35143234854E+01  0.43972074989E+00  0.38153750217E+01  0.51100000000E-03 0.  1.
         12    1    3    3    0    0  0.25175640330E+02 -0.48300007206E+01  0.99598635545E+01  0.27501648224E+02  0.00000000000E+00 0. -1.
</event>
<event>
 7    1  0.2294216E-010  0.4778727E+02  0.7816164E-02  0.1312668E+00
        -11   -1    0    0    0    0  0.00000000000E+00  0.00000000000E+00  0.45593999997E+02  0.45594000000E+02  0.51100000000E-03 0. -1.
         11   -1    0    0    0    0 -0.00000000000E+00 -0.00000000000E+00 -0.45593999997E+02  0.45594000000E+02  0.51100000000E-03 0.  1.
    9900012    2    1    2    0    0  0.10567148067E+02  0.55111072987E+01  0.41732318975E+02  0.47787269949E+02  0.19999995005E+02 0.  0.
        -12    1    1    2    0    0 -0.10567148067E+02 -0.55111072987E+01 -0.41732318975E+02  0.43400730051E+02  0.00000000000E+00 0.  1.
         11    1    3    3    0    0  0.21809906250E+01  0.25630935655E+01  0.26112867566E+01  0.42596933596E+01  0.51100000000E-03 0. -1.
        -11    1    3    3    0    0  0.21407649175E+01  0.93238701351E+01  0.14820196447E+02  0.17639604636E+02  0.51100000000E-03 0.  1.
         12    1    3    3    0    0  0.62453925249E+01 -0.63758564020E+01  0.24300835771E+02  0.25887971953E+02  0.00000000000E+00 0. -1.
</event>
<event>
 7    1  0.2294216E-010  0.4778727E+02  0.7816164E-02  0.1312668E+00
        -11   -1    0    0    0    0  0.00000000000E+00  0.00000000000E+00  0.45593999997E+02  0.45594000000E+02  0.51100000000E-03 0.  1.
         11   -1    0    0    0    0 -0.00000000000E+00 -0.00000000000E+00 -0.45593999997E+02  0.45594000000E+02  0.51100000000E-03 0. -1.
    9900012    2    1    2    0    0 -0.32854232730E+02  0.32763036653E+01 -0.28168926349E+02  0.47787272061E+02  0.20000004633E+02 0.  0.
        -12    1    1    2    0    0  0.32854232730E+02 -0.32763036653E+01  0.28168926349E+02  0.43400727939E+02  0.00000000000E+00 0.  1.
         11    1    3    3    0    0 -0.19391296239E+02 -0.62677750116E+01 -0.17421530519E+02  0.26810764616E+02  0.51100000000E-03 0. -1.
        -11    1    3    3    0    0  0.78673647361E+00  0.47600409447E+00  0.64970116950E-01  0.92182186678E+00  0.51100000000E-03 0.  1.
         12    1    3    3    0    0 -0.14249672965E+02  0.90680745824E+01 -0.10812365947E+02  0.20054685578E+02  0.00000000000E+00 0. -1.
</event>
<event>
 7    1  0.2294216E-010  0.4778726E+02  0.7816164E-02  0.1312668E+00
        -11   -1    0    0    0    0  0.00000000000E+00  0.00000000000E+00  0.45593999997E+02  0.45594000000E+02  0.51100000000E-03 0.  1.
         11   -1    0    0    0    0 -0.00000000000E+00 -0.00000000000E+00 -0.45593999997E+02  0.45594000000E+02  0.51100000000E-03 0. -1.
    9900012    2    1    2    0    0 -0.26875184571E+02  0.34078540795E+02  0.39167553197E-01  0.47787262420E+02  0.19999960676E+02 0.  0.
        -12    1    1    2    0    0  0.26875184571E+02 -0.34078540795E+02 -0.39167553197E-01  0.43400737580E+02  0.00000000000E+00 0.  1.
         11    1    3    3    0    0 -0.13311854320E+02  0.11273818308E+02  0.43469952271E+01  0.17977786639E+02  0.51100000000E-03 0. -1.
        -11    1    3    3    0    0 -0.14675712553E+02  0.13019861143E+02 -0.22327749700E+01  0.19745343943E+02  0.51100000000E-03 0.  1.
         12    1    3    3    0    0  0.11123823021E+01  0.97848613440E+01 -0.20750527039E+01  0.10064131837E+02  0.00000000000E+00 0. -1.
</event>
<event>
 7    1  0.2294216E-010  0.4778727E+02  0.7816164E-02  0.1312668E+00
        -11   -1    0    0    0    0  0.00000000000E+00  0.00000000000E+00  0.45593999997E+02  0.45594000000E+02  0.51100000000E-03 0.  1.
         11   -1    0    0    0    0 -0.00000000000E+00 -0.00000000000E+00 -0.45593999997E+02  0.45594000000E+02  0.51100000000E-03 0. -1.
    9900012    2    1    2    0    0  0.42773844233E+02 -0.34694296126E+01 -0.64795482513E+01  0.47787271460E+02  0.20000001894E+02 0.  0.
        -12    1    1    2    0    0 -0.42773844233E+02  0.34694296126E+01  0.64795482513E+01  0.43400728540E+02  0.00000000000E+00 0.  1.
         11    1    3    3    0    0  0.14353026912E+02  0.37814423726E+01 -0.92230268734E+01  0.17474922401E+02  0.51100000000E-03 0. -1.
        -11    1    3    3    0    0  0.29190909457E+01  0.73851681857E+00  0.19290869412E+01  0.35760139441E+01  0.51100000000E-03 0.  1.
         12    1    3    3    0    0  0.25501726375E+02 -0.79893888038E+01  0.81439168088E+00  0.26736335115E+02  0.00000000000E+00 0. -1.
</event>
<event>
 7    1  0.2294216E-010  0.4778727E+02  0.7816164E-02  0.1312668E+00
        -11   -1    0    0    0    0  0.00000000000E+00  0.00000000000E+00  0.45593999997E+02  0.45594000000E+02  0.51100000000E-03 0.  1.
         11   -1    0    0    0    0 -0.00000000000E+00 -0.00000000000E+00 -0.45593999997E+02  0.45594000000E+02  0.51100000000E-03 0. -1.
    9900012    2    1    2    0    0  0.90469073267E+01 -0.23375974980E+02 -0.35430786605E+02  0.47787269846E+02  0.19999994537E+02 0.  0.
        -12    1    1    2    0    0 -0.90469073267E+01  0.23375974980E+02  0.35430786605E+02  0.43400730154E+02  0.00000000000E+00 0.  1.
         11    1    3    3    0    0  0.69930937835E+01 -0.22478146636E+02 -0.16779676059E+02  0.28908959957E+02  0.51100000000E-03 0. -1.
        -11    1    3    3    0    0 -0.29619842921E+00 -0.40538105307E+00 -0.40669840402E+01  0.40978563606E+01  0.51100000000E-03 0.  1.
         12    1    3    3    0    0  0.23500119724E+01 -0.49244729133E+00 -0.14584126505E+02  0.14780453529E+02  0.00000000000E+00 0. -1.
</event>
<event>
 7    1  0.2294216E-010  0.4778727E+02  0.7816164E-02  0.1312668E+00
        -11   -1    0    0    0    0  0.00000000000E+00  0.00000000000E+00  0.45593999997E+02  0.45594000000E+02  0.51100000000E-03 0. -1.
         11   -1    0    0    0    0 -0.00000000000E+00 -0.00000000000E+00 -0.45593999997E+02  0.45594000000E+02  0.51100000000E-03 0.  1.
    9900012    2    1    2    0    0  0.52683056819E+01  0.31905324279E+02  0.28946829688E+02  0.47787266007E+02  0.19999977032E+02 0.  0.
        -12    1    1    2    0    0 -0.52683056819E+01 -0.31905324279E+02 -0.28946829688E+02  0.43400733993E+02  0.00000000000E+00 0.  1.
         11    1    3    3    0    0 -0.25030981167E+00  0.17569668351E+02  0.15368717117E+02  0.23344236270E+02  0.51100000000E-03 0. -1.
        -11    1    3    3    0    0 -0.39323894726E+01  0.16685918357E+01  0.45535537216E+01  0.62436157341E+01  0.51100000000E-03 0.  1.
        -12    1    3    3    0    0  0.94510049662E+01  0.12667064093E+02  0.90245588497E+01  0.18199414003E+02  0.00000000000E+00 0.  1.
</event>
<event>
 7    1  0.2294216E-010  0.4778727E+02  0.7816164E-02  0.1312668E+00
        -11   -1    0    0    0    0  0.00000000000E+00  0.00000000000E+00  0.45593999997E+02  0.45594000000E+02  0.51100000000E-03 0.  1.
         11   -1    0    0    0    0 -0.00000000000E+00 -0.00000000000E+00 -0.45593999997E+02  0.45594000000E+02  0.51100000000E-03 0. -1.
    9900012    2    1    2    0    0 -0.37264492563E+02  0.23226322493E+00 -0.22246950988E+02  0.47787272120E+02  0.20000004906E+02 0.  0.
        -12    1    1    2    0    0  0.37264492563E+02 -0.23226322493E+00  0.22246950988E+02  0.43400727880E+02  0.00000000000E+00 0.  1.
         11    1    3    3    0    0 -0.34893894035E+01  0.19695611711E+01 -0.26308033087E+01  0.47933428759E+01  0.51100000000E-03 0. -1.
        -11    1    3    3    0    0 -0.22439264424E+02 -0.90442195717E+01 -0.16085367583E+02  0.29052668485E+02  0.51100000000E-03 0.  1.
        -12    1    3    3    0    0 -0.11335838735E+02  0.73069216256E+01 -0.35307800971E+01  0.13941260760E+02  0.00000000000E+00 0.  1.
</event>
<event>
 7    1  0.2294216E-010  0.4778727E+02  0.7816164E-02  0.1312668E+00
        -11   -1    0    0    0    0  0.00000000000E+00  0.00000000000E+00  0.45593999997E+02  0.45594000000E+02  0.51100000000E-03 0. -1.
         11   -1    0    0    0    0 -0.00000000000E+00 -0.00000000000E+00 -0.45593999997E+02  0.45594000000E+02  0.51100000000E-03 0.  1.
    9900012    2    1    2    0    0 -0.31098558216E+02 -0.63735312397E+01 -0.29595290982E+02  0.47787268763E+02  0.19999989600E+02 0.  0.
        -12    1    1    2    0    0  0.31098558216E+02  0.63735312397E+01  0.29595290982E+02  0.43400731237E+02  0.00000000000E+00 0.  1.
         11    1    3    3    0    0 -0.28127329170E+01  0.16202607678E+01  0.11761516546E+01  0.34525417294E+01  0.51100000000E-03 0.  1.
        -11    1    3    3    0    0 -0.24891898773E+02 -0.10900111683E+02 -0.24197209422E+02  0.36385766493E+02  0.51100000000E-03 0. -1.
         12    1    3    3    0    0 -0.33939265260E+01  0.29063196753E+01 -0.65742332147E+01  0.79489605409E+01  0.00000000000E+00 0. -1.
</event>
<event>
 7    1  0.2294216E-010  0.4778726E+02  0.7816164E-02  0.1312668E+00
        -11   -1    0    0    0    0  0.00000000000E+00  0.00000000000E+00  0.45593999997E+02  0.45594000000E+02  0.51100000000E-03 0.  1.
         11   -1    0    0    0    0 -0.00000000000E+00 -0.00000000000E+00 -0.45593999997E+02  0.45594000000E+02  0.51100000000E-03 0. -1.
    9900012    2    1    2    0    0 -0.41851159351E+01 -0.37706196201E+02 -0.21079645151E+02  0.47787264211E+02  0.19999968842E+02 0.  0.
        -12    1    1    2    0    0  0.41851159351E+01  0.37706196201E+02  0.21079645151E+02  0.43400735789E+02  0.00000000000E+00 0.  1.
         11    1    3    3    0    0 -0.80619694893E+01 -0.22583575306E+02 -0.13517605813E+02  0.27527057468E+02  0.51100000000E-03 0. -1.
        -11    1    3    3    0    0 -0.14489766483E+01  0.53818174971E+00 -0.25394635882E+01  0.29728855511E+01  0.51100000000E-03 0.  1.
         12    1    3    3    0    0  0.53258302024E+01 -0.15660802645E+02 -0.50225757499E+01  0.17287321192E+02  0.00000000000E+00 0. -1.
</event>
<event>
 7    1  0.2294216E-010  0.4778725E+02  0.7816164E-02  0.1312668E+00
        -11   -1    0    0    0    0  0.00000000000E+00  0.00000000000E+00  0.45593999997E+02  0.45594000000E+02  0.51100000000E-03 0.  1.
         11   -1    0    0    0    0 -0.00000000000E+00 -0.00000000000E+00 -0.45593999997E+02  0.45594000000E+02  0.51100000000E-03 0. -1.
    9900012    2    1    2    0    0  0.14892172757E+02 -0.27213305375E+02 -0.30352664603E+02  0.47787250613E+02  0.19999906845E+02 0.  0.
        -12    1    1    2    0    0 -0.14892172757E+02  0.27213305375E+02  0.30352664603E+02  0.43400749387E+02  0.00000000000E+00 0.  1.
         11    1    3    3    0    0  0.43393759045E+01 -0.23160941150E+01 -0.32464839452E+01  0.58935671251E+01  0.51100000000E-03 0. -1.
        -11    1    3    3    0    0 -0.22910142128E+01 -0.14680420132E+02 -0.86362673623E+01  0.17185709051E+02  0.51100000000E-03 0.  1.
        -12    1    3    3    0    0  0.12843811065E+02 -0.10216791128E+02 -0.18469913295E+02  0.24707974437E+02  0.00000000000E+00 0.  1.
</event>
<event>
 7    1  0.2294216E-010  0.4778727E+02  0.7816164E-02  0.1312668E+00
        -11   -1    0    0    0    0  0.00000000000E+00  0.00000000000E+00  0.45593999997E+02  0.45594000000E+02  0.51100000000E-03 0.  1.
         11   -1    0    0    0    0 -0.00000000000E+00 -0.00000000000E+00 -0.45593999997E+02  0.45594000000E+02  0.51100000000E-03 0. -1.
    9900012    2    1    2    0    0 -0.75530623377E+01 -0.95172248592E-01 -0.42738337194E+02  0.47787271037E+02  0.19999999965E+02 0.  0.
        -12    1    1    2    0    0  0.75530623377E+01  0.95172248592E-01  0.42738337194E+02  0.43400728963E+02  0.00000000000E+00 0.  1.
         11    1    3    3    0    0 -0.42239837596E+01  0.71913841205E+01 -0.17137484636E+02  0.19059155917E+02  0.51100000000E-03 0. -1.
        -11    1    3    3    0    0 -0.44708641316E+01  0.82834814480E-01 -0.44814995679E+01  0.63308235110E+01  0.51100000000E-03 0.  1.
        -12    1    3    3    0    0  0.11417855535E+01 -0.73693911836E+01 -0.21119352990E+02  0.22397291608E+02  0.00000000000E+00 0.  1.
</event>
<event>
 7    1  0.2294216E-010  0.4778727E+02  0.7816164E-02  0.1312668E+00
        -11   -1    0    0    0    0  0.00000000000E+00  0.00000000000E+00  0.45593999997E+02  0.45594000000E+02  0.51100000000E-03 0.  1.
         11   -1    0    0    0    0 -0.00000000000E+00 -0.00000000000E+00 -0.45593999997E+02  0.45594000000E+02  0.51100000000E-03 0. -1.
    9900012    2    1    2    0    0 -0.23849775972E+02 -0.25471735629E+02  0.25807015643E+02  0.47787272054E+02  0.20000004604E+02 0.  0.
        -12    1    1    2    0    0  0.23849775972E+02  0.25471735629E+02 -0.25807015643E+02  0.43400727946E+02  0.00000000000E+00 0.  1.
         11    1    3    3    0    0 -0.10341476487E+02 -0.72659174638E+01  0.17128314674E+01  0.12754351588E+02  0.51100000000E-03 0. -1.
        -11    1    3    3    0    0 -0.12422557398E+02 -0.10768585155E+02  0.10523583363E+02  0.19519942766E+02  0.51100000000E-03 0.  1.
        -12    1    3    3    0    0 -0.10857420864E+01 -0.74372330104E+01  0.13570600812E+02  0.15512977700E+02  0.00000000000E+00 0.  1.
</event>
<event>
 7    1  0.2294216E-010  0.4778727E+02  0.7816164E-02  0.1312668E+00
        -11   -1    0    0    0    0  0.00000000000E+00  0.00000000000E+00  0.45593999997E+02  0.45594000000E+02  0.51100000000E-03 0. -1.
         11   -1    0    0    0    0 -0.00000000000E+00 -0.00000000000E+00 -0.45593999997E+02  0.45594000000E+02  0.51100000000E-03 0.  1.
    9900012    2    1    2    0    0  0.38646959805E+01  0.42986859977E+02  0.45625973284E+01  0.47787270743E+02  0.19999998625E+02 0.  0.
        -12    1    1    2    0    0 -0.38646959805E+01 -0.42986859977E+02 -0.45625973284E+01  0.43400729257E+02  0.00000000000E+00 0.  1.
         11    1    3    3    0    0  0.42800825233E+01  0.38505807513E+02  0.24708744670E+01  0.38821663277E+02  0.51100000000E-03 0. -1.
        -11    1    3    3    0    0 -0.24127195060E+00  0.58533364833E+01 -0.65043379322E+00  0.58943044137E+01  0.51100000000E-03 0.  1.
        -12    1    3    3    0    0 -0.17411459222E+00 -0.13722840201E+01  0.27421566547E+01  0.30713030528E+01  0.00000000000E+00 0.  1.
</event>
<event>
 7    1  0.2294216E-010  0.4778727E+02  0.7816164E-02  0.1312668E+00
        -11   -1    0    0    0    0  0.00000000000E+00  0.00000000000E+00  0.45593999997E+02  0.45594000000E+02  0.51100000000E-03 0.  1.
         11   -1    0    0    0    0 -0.00000000000E+00 -0.00000000000E+00 -0.45593999997E+02  0.45594000000E+02  0.51100000000E-03 0. -1.
    9900012    2    1    2    0    0 -0.20849352144E+02  0.30089418682E+02 -0.23314262779E+02  0.47787269011E+02  0.19999990730E+02 0.  0.
        -12    1    1    2    0    0  0.20849352144E+02 -0.30089418682E+02  0.23314262779E+02  0.43400730989E+02  0.00000000000E+00 0.  1.
         11    1    3    3    0    0  0.30897648086E+00 -0.13472384843E+01 -0.13184640484E+01  0.19102004364E+01  0.51100000000E-03 0. -1.
        -11    1    3    3    0    0 -0.21856290058E+01  0.11540748769E+02 -0.11533197895E+02  0.16461485663E+02  0.51100000000E-03 0.  1.
        -12    1    3    3    0    0 -0.18972699619E+02  0.19895908397E+02 -0.10462600836E+02  0.29415582911E+02  0.00000000000E+00 0.  1.
</event>
<event>
 7    1  0.2294216E-010  0.4778728E+02  0.7816164E-02  0.1312668E+00
        -11   -1    0    0    0    0  0.00000000000E+00  0.00000000000E+00  0.45593999997E+02  0.45594000000E+02  0.51100000000E-03 0.  1.
         11   -1    0    0    0    0 -0.00000000000E+00 -0.00000000000E+00 -0.45593999997E+02  0.45594000000E+02  0.51100000000E-03 0. -1.
    9900012    2    1    2    0    0  0.12442163199E+02 -0.19659453168E+02 -0.36637703663E+02  0.47787275886E+02  0.20000022075E+02 0.  0.
        -12    1    1    2    0    0 -0.12442163199E+02  0.19659453168E+02  0.36637703663E+02  0.43400724114E+02  0.00000000000E+00 0.  1.
         11    1    3    3    0    0  0.34688483455E+01 -0.73533837318E+01 -0.12348353157E+02  0.14784687589E+02  0.51100000000E-03 0. -1.
        -11    1    3    3    0    0  0.87806478699E+01 -0.10345478880E+02 -0.26663372194E+02  0.29917622354E+02  0.51100000000E-03 0.  1.
        -12    1    3    3    0    0  0.19266698395E+00 -0.19605905561E+01  0.23740216884E+01  0.30849659435E+01  0.00000000000E+00 0.  1.
</event>
<event>
 7    1  0.2294216E-010  0.4778727E+02  0.7816164E-02  0.1312668E+00
        -11   -1    0    0    0    0  0.00000000000E+00  0.00000000000E+00  0.45593999997E+02  0.45594000000E+02  0.51100000000E-03 0.  1.
         11   -1    0    0    0    0 -0.00000000000E+00 -0.00000000000E+00 -0.45593999997E+02  0.45594000000E+02  0.51100000000E-03 0. -1.
    9900012    2    1    2    0    0  0.22884494508E+01 -0.18921788842E+02 -0.38991693987E+02  0.47787270814E+02  0.19999998951E+02 0.  0.
        -12    1    1    2    0    0 -0.22884494508E+01  0.18921788842E+02  0.38991693987E+02  0.43400729186E+02  0.00000000000E+00 0.  1.
         11    1    3    3    0    0  0.64205649110E+01 -0.13863829088E+02 -0.22489057078E+02  0.27187995499E+02  0.51100000000E-03 0.  1.
        -11    1    3    3    0    0 -0.27613363602E+01 -0.82890583418E+01 -0.10653739490E+02  0.13778085211E+02  0.51100000000E-03 0. -1.
         12    1    3    3    0    0 -0.13707790999E+01  0.32310985873E+01 -0.58488974193E+01  0.68211901046E+01  0.00000000000E+00 0. -1.
</event>
<event>
 7    1  0.2294216E-010  0.4778726E+02  0.7816164E-02  0.1312668E+00
        -11   -1    0    0    0    0  0.00000000000E+00  0.00000000000E+00  0.45593999997E+02  0.45594000000E+02  0.51100000000E-03 0.  1.
         11   -1    0    0    0    0 -0.00000000000E+00 -0.00000000000E+00 -0.45593999997E+02  0.45594000000E+02  0.51100000000E-03 0. -1.
    9900012    2    1    2    0    0  0.21727113898E+02 -0.44529570361E+01 -0.37305871452E+02  0.47787258653E+02  0.19999943503E+02 0.  0.
        -12    1    1    2    0    0 -0.21727113898E+02  0.44529570361E+01  0.37305871452E+02  0.43400741347E+02  0.00000000000E+00 0.  1.
         11    1    3    3    0    0  0.37417952761E+01 -0.56611401853E+01 -0.15900601532E+02  0.17288107746E+02  0.51100000000E-03 0. -1.
        -11    1    3    3    0    0  0.13691746760E+01 -0.37534781095E+01 -0.19781925663E+01  0.44583049809E+01  0.51100000000E-03 0.  1.
        -12    1    3    3    0    0  0.16616143946E+02  0.49616612588E+01 -0.19427077353E+02  0.26040845926E+02  0.00000000000E+00 0.  1.
</event>
<event>
 7    1  0.2294216E-010  0.4778728E+02  0.7816164E-02  0.1312668E+00
        -11   -1    0    0    0    0  0.00000000000E+00  0.00000000000E+00  0.45593999997E+02  0.45594000000E+02  0.51100000000E-03 0.  1.
         11   -1    0    0    0    0 -0.00000000000E+00 -0.00000000000E+00 -0.45593999997E+02  0.45594000000E+02  0.51100000000E-03 0. -1.
    9900012    2    1    2    0    0 -0.51169218355E+01  0.25169800642E+02 -0.34984578595E+02  0.47787280042E+02  0.20000041023E+02 0.  0.
        -12    1    1    2    0    0  0.51169218355E+01 -0.25169800642E+02  0.34984578595E+02  0.43400719958E+02  0.00000000000E+00 0.  1.
         11    1    3    3    0    0 -0.15354933257E+01  0.64987295749E+01 -0.26206269254E+01  0.71734867104E+01  0.51100000000E-03 0. -1.
        -11    1    3    3    0    0 -0.40269712886E+01  0.41875530037E+01 -0.77656254641E+00  0.58613264342E+01  0.51100000000E-03 0.  1.
         12    1    3    3    0    0  0.44554277888E+00  0.14483518064E+02 -0.31587389123E+02  0.34752466897E+02  0.00000000000E+00 0. -1.
</event>
<event>
 7    1  0.2294216E-010  0.4778727E+02  0.7816164E-02  0.1312668E+00
        -11   -1    0    0    0    0  0.00000000000E+00  0.00000000000E+00  0.45593999997E+02  0.45594000000E+02  0.51100000000E-03 0.  1.
         11   -1    0    0    0    0 -0.00000000000E+00 -0.00000000000E+00 -0.45593999997E+02  0.45594000000E+02  0.51100000000E-03 0. -1.
    9900012    2    1    2    0    0  0.22187672966E+02 -0.10084875023E+02 -0.35911360102E+02  0.47787270510E+02  0.19999997564E+02 0.  0.
        -12    1    1    2    0    0 -0.22187672966E+02  0.10084875023E+02  0.35911360102E+02  0.43400729490E+02  0.00000000000E+00 0.  1.
         11    1    3    3    0    0  0.25123117961E+01 -0.20670710669E+01 -0.57720971883E+01  0.66258282176E+01  0.51100000000E-03 0. -1.
        -11    1    3    3    0    0 -0.25944850336E+01 -0.27773940369E+01 -0.67861333313E+00  0.38608012825E+01  0.51100000000E-03 0.  1.
         12    1    3    3    0    0  0.22269846204E+02 -0.52404099194E+01 -0.29460649580E+02  0.37300641010E+02  0.00000000000E+00 0. -1.
</event>
<event>
 7    1  0.2294216E-010  0.4778727E+02  0.7816164E-02  0.1312668E+00
        -11   -1    0    0    0    0  0.00000000000E+00  0.00000000000E+00  0.45593999997E+02  0.45594000000E+02  0.51100000000E-03 0.  1.
         11   -1    0    0    0    0 -0.00000000000E+00 -0.00000000000E+00 -0.45593999997E+02  0.45594000000E+02  0.51100000000E-03 0. -1.
    9900012    2    1    2    0    0 -0.19501052370E+02 -0.10617292790E+02 -0.37290821947E+02  0.47787270153E+02  0.19999995936E+02 0.  0.
        -12    1    1    2    0    0  0.19501052370E+02  0.10617292790E+02  0.37290821947E+02  0.43400729847E+02  0.00000000000E+00 0.  1.
         11    1    3    3    0    0  0.26304647213E+01 -0.75780583869E+00 -0.79362097549E+01  0.83950604449E+01  0.51100000000E-03 0.  1.
        -11    1    3    3    0    0 -0.97650575747E+01 -0.49334600525E+01 -0.20991946163E+02  0.23671864766E+02  0.51100000000E-03 0. -1.
        -12    1    3    3    0    0 -0.12366459517E+02 -0.49260268990E+01 -0.83626660297E+01  0.15720344943E+02  0.00000000000E+00 0.  1.
</event>
<event>
 7    1  0.2294216E-010  0.4778726E+02  0.7816164E-02  0.1312668E+00
        -11   -1    0    0    0    0  0.00000000000E+00  0.00000000000E+00  0.45593999997E+02  0.45594000000E+02  0.51100000000E-03 0.  1.
         11   -1    0    0    0    0 -0.00000000000E+00 -0.00000000000E+00 -0.45593999997E+02  0.45594000000E+02  0.51100000000E-03 0. -1.
    9900012    2    1    2    0    0 -0.40450084972E+02 -0.10897546338E+02 -0.11342751678E+02  0.47787263761E+02  0.19999966792E+02 0.  0.
        -12    1    1    2    0    0  0.40450084972E+02  0.10897546338E+02  0.11342751678E+02  0.43400736239E+02  0.00000000000E+00 0.  1.
         11    1    3    3    0    0 -0.17963410682E+01  0.20313307450E+01  0.81025666438E+00  0.28301346174E+01  0.51100000000E-03 0. -1.
        -11    1    3    3    0    0 -0.32045650487E+01  0.19955404118E+01  0.16128226869E+01  0.41051937795E+01  0.51100000000E-03 0.  1.
         12    1    3    3    0    0 -0.35449178855E+02 -0.14924417495E+02 -0.13765831029E+02  0.40851935364E+02  0.00000000000E+00 0. -1.
</event>
<event>
 7    1  0.2294216E-010  0.4778727E+02  0.7816164E-02  0.1312668E+00
        -11   -1    0    0    0    0  0.00000000000E+00  0.00000000000E+00  0.45593999997E+02  0.45594000000E+02  0.51100000000E-03 0. -1.
         11   -1    0    0    0    0 -0.00000000000E+00 -0.00000000000E+00 -0.45593999997E+02  0.45594000000E+02  0.51100000000E-03 0.  1.
    9900012    2    1    2    0    0  0.27102870784E+02 -0.33181398834E+02  0.69320231147E+01  0.47787265239E+02  0.19999973532E+02 0.  0.
        -12    1    1    2    0    0 -0.27102870784E+02  0.33181398834E+02 -0.69320231147E+01  0.43400734761E+02  0.00000000000E+00 0.  1.
         11    1    3    3    0    0  0.18956337789E-01 -0.31365974675E+01  0.16381980802E+01  0.35386856638E+01  0.51100000000E-03 0. -1.
        -11    1    3    3    0    0 -0.47850031308E+00 -0.72538387695E+01 -0.24192977546E+01  0.76616017471E+01  0.51100000000E-03 0.  1.
         12    1    3    3    0    0  0.27562414759E+02 -0.22790962597E+02  0.77131227891E+01  0.36586977828E+02  0.00000000000E+00 0. -1.
</event>
<event>
 7    1  0.2294216E-010  0.4778727E+02  0.7816164E-02  0.1312668E+00
        -11   -1    0    0    0    0  0.00000000000E+00  0.00000000000E+00  0.45593999997E+02  0.45594000000E+02  0.51100000000E-03 0.  1.
         11   -1    0    0    0    0 -0.00000000000E+00 -0.00000000000E+00 -0.45593999997E+02  0.45594000000E+02  0.51100000000E-03 0. -1.
    9900012    2    1    2    0    0  0.41267477639E+02  0.66262709872E+01 -0.11692344299E+02  0.47787273127E+02  0.20000009496E+02 0.  0.
        -12    1    1    2    0    0 -0.41267477639E+02 -0.66262709872E+01  0.11692344299E+02  0.43400726873E+02  0.00000000000E+00 0.  1.
         11    1    3    3    0    0  0.51526715978E+01 -0.19645956846E+01 -0.54270299155E+01  0.77370740441E+01  0.51100000000E-03 0. -1.
        -11    1    3    3    0    0  0.43833942145E+01  0.36027120502E+01  0.32634924466E+01  0.65455375766E+01  0.51100000000E-03 0.  1.
         12    1    3    3    0    0  0.31731411827E+02  0.49881546216E+01 -0.95288068305E+01  0.33504661506E+02  0.00000000000E+00 0. -1.
</event>
<event>
 7    1  0.2294216E-010  0.4778727E+02  0.7816164E-02  0.1312668E+00
        -11   -1    0    0    0    0  0.00000000000E+00  0.00000000000E+00  0.45593999997E+02  0.45594000000E+02  0.51100000000E-03 0. -1.
         11   -1    0    0    0    0 -0.00000000000E+00 -0.00000000000E+00 -0.45593999997E+02  0.45594000000E+02  0.51100000000E-03 0.  1.
    9900012    2    1    2    0    0 -0.40862015139E+02 -0.46384460387E+01  0.13870963009E+02  0.47787273305E+02  0.20000010307E+02 0.  0.
        -12    1    1    2    0    0  0.40862015139E+02  0.46384460387E+01 -0.13870963009E+02  0.43400726695E+02  0.00000000000E+00 0.  1.
         11    1    3    3    0    0 -0.40216000141E+01 -0.18223925779E+01 -0.24748116296E+01  0.50615288446E+01  0.51100000000E-03 0. -1.
        -11    1    3    3    0    0 -0.25965572873E+02  0.45147880608E+01  0.10586892320E+02  0.28402052305E+02  0.51100000000E-03 0.  1.
         12    1    3    3    0    0 -0.10874842251E+02 -0.73308415215E+01  0.57588823185E+01  0.14323692155E+02  0.00000000000E+00 0. -1.
</event>
<event>
 7    1  0.2294216E-010  0.4778727E+02  0.7816164E-02  0.1312668E+00
        -11   -1    0    0    0    0  0.00000000000E+00  0.00000000000E+00  0.45593999997E+02  0.45594000000E+02  0.51100000000E-03 0. -1.
         11   -1    0    0    0    0 -0.00000000000E+00 -0.00000000000E+00 -0.45593999997E+02  0.45594000000E+02  0.51100000000E-03 0.  1.
    9900012    2    1    2    0    0  0.35526971795E+02  0.16993128893E+02 -0.18239831734E+02  0.47787267101E+02  0.19999982018E+02 0.  0.
        -12    1    1    2    0    0 -0.35526971795E+02 -0.16993128893E+02  0.18239831734E+02  0.43400732899E+02  0.00000000000E+00 0.  1.
         11    1    3    3    0    0  0.94465421383E+01  0.13561168720E+01 -0.89922920146E+00  0.95856572419E+01  0.51100000000E-03 0. -1.
        -11    1    3    3    0    0  0.98395493162E+01  0.56316269480E+01  0.14451056314E+01  0.11428923107E+02  0.51100000000E-03 0.  1.
         12    1    3    3    0    0  0.16240880341E+02  0.10005385073E+02 -0.18785708164E+02  0.26772686752E+02  0.00000000000E+00 0. -1.
</event>
<event>
 7    1  0.2294216E-010  0.4778727E+02  0.7816164E-02  0.1312668E+00
        -11   -1    0    0    0    0  0.00000000000E+00  0.00000000000E+00  0.45593999997E+02  0.45594000000E+02  0.51100000000E-03 0.  1.
         11   -1    0    0    0    0 -0.00000000000E+00 -0.00000000000E+00 -0.45593999997E+02  0.45594000000E+02  0.51100000000E-03 0. -1.
    9900012    2    1    2    0    0 -0.18743632860E+02 -0.95260104721E+01 -0.37967811837E+02  0.47787269775E+02  0.19999994214E+02 0.  0.
        -12    1    1    2    0    0  0.18743632860E+02  0.95260104721E+01  0.37967811837E+02  0.43400730225E+02  0.00000000000E+00 0.  1.
         11    1    3    3    0    0 -0.84847657352E+01  0.13891434917E+00 -0.16583133124E+02  0.18628227271E+02  0.51100000000E-03 0.  1.
        -11    1    3    3    0    0 -0.18636972039E+01  0.22351183419E+01 -0.10721116768E+02  0.11109071351E+02  0.51100000000E-03 0. -1.
         12    1    3    3    0    0 -0.83951699211E+01 -0.11900043163E+02 -0.10663561946E+02  0.18049971154E+02  0.00000000000E+00 0. -1.
</event>
<event>
 7    1  0.2294216E-010  0.4778727E+02  0.7816164E-02  0.1312668E+00
        -11   -1    0    0    0    0  0.00000000000E+00  0.00000000000E+00  0.45593999997E+02  0.45594000000E+02  0.51100000000E-03 0. -1.
         11   -1    0    0    0    0 -0.00000000000E+00 -0.00000000000E+00 -0.45593999997E+02  0.45594000000E+02  0.51100000000E-03 0.  1.
    9900012    2    1    2    0    0  0.27792785100E+02  0.12043807662E+02  0.31082649610E+02  0.47787270589E+02  0.19999997925E+02 0.  0.
        -12    1    1    2    0    0 -0.27792785100E+02 -0.12043807662E+02 -0.31082649610E+02  0.43400729411E+02  0.00000000000E+00 0.  1.
         11    1    3    3    0    0  0.82811519483E+01  0.86420383866E+00  0.11554854103E+02  0.14242155015E+02  0.51100000000E-03 0. -1.
        -11    1    3    3    0    0  0.84586952099E+01 -0.32653945108E+01  0.70994067434E+01  0.11515810972E+02  0.51100000000E-03 0.  1.
         12    1    3    3    0    0  0.11052937942E+02  0.14444998335E+02  0.12428388763E+02  0.22029304603E+02  0.00000000000E+00 0. -1.
</event>
<event>
 7    1  0.2294216E-010  0.4778727E+02  0.7816164E-02  0.1312668E+00
        -11   -1    0    0    0    0  0.00000000000E+00  0.00000000000E+00  0.45593999997E+02  0.45594000000E+02  0.51100000000E-03 0.  1.
         11   -1    0    0    0    0 -0.00000000000E+00 -0.00000000000E+00 -0.45593999997E+02  0.45594000000E+02  0.51100000000E-03 0. -1.
    9900012    2    1    2    0    0  0.12817805492E+02  0.37601387294E+02 -0.17477499787E+02  0.47787268867E+02  0.19999990072E+02 0.  0.
        -12    1    1    2    0    0 -0.12817805492E+02 -0.37601387294E+02  0.17477499787E+02  0.43400731133E+02  0.00000000000E+00 0.  1.
         11    1    3    3    0    0 -0.94441339084E+00  0.35840737192E+01 -0.58311653329E+01  0.69094131790E+01  0.51100000000E-03 0. -1.
        -11    1    3    3    0    0  0.22855430752E+00  0.15284062465E+02 -0.86785137925E+01  0.17577582439E+02  0.51100000000E-03 0.  1.
        -12    1    3    3    0    0  0.13533664575E+02  0.18733251110E+02 -0.29678206618E+01  0.23300273249E+02  0.00000000000E+00 0.  1.
</event>
<event>
 7    1  0.2294216E-010  0.4778727E+02  0.7816164E-02  0.1312668E+00
        -11   -1    0    0    0    0  0.00000000000E+00  0.00000000000E+00  0.45593999997E+02  0.45594000000E+02  0.51100000000E-03 0.  1.
         11   -1    0    0    0    0 -0.00000000000E+00 -0.00000000000E+00 -0.45593999997E+02  0.45594000000E+02  0.51100000000E-03 0. -1.
    9900012    2    1    2    0    0 -0.16308024300E+02  0.38352232952E+02 -0.12115192390E+02  0.47787270564E+02  0.19999997808E+02 0.  0.
        -12    1    1    2    0    0  0.16308024300E+02 -0.38352232952E+02  0.12115192390E+02  0.43400729436E+02  0.00000000000E+00 0.  1.
         11    1    3    3    0    0 -0.13807273457E+02  0.19675962512E+02 -0.42294255866E+01  0.24406399614E+02  0.51100000000E-03 0. -1.
        -11    1    3    3    0    0 -0.38536622917E+01  0.20046876647E+01  0.97568213008E+00  0.44521277578E+01  0.51100000000E-03 0.  1.
        -12    1    3    3    0    0  0.13529114480E+01  0.16671582775E+02 -0.88614489333E+01  0.18928743192E+02  0.00000000000E+00 0.  1.
</event>
<event>
 7    1  0.2294216E-010  0.4778724E+02  0.7816164E-02  0.1312668E+00
        -11   -1    0    0    0    0  0.00000000000E+00  0.00000000000E+00  0.45593999997E+02  0.45594000000E+02  0.51100000000E-03 0.  1.
         11   -1    0    0    0    0 -0.00000000000E+00 -0.00000000000E+00 -0.45593999997E+02  0.45594000000E+02  0.51100000000E-03 0. -1.
    9900012    2    1    2    0    0  0.80290097423E+01  0.39916093574E+02 -0.15028857474E+02  0.47787238709E+02  0.19999852570E+02 0.  0.
        -12    1    1    2    0    0 -0.80290097423E+01 -0.39916093574E+02  0.15028857474E+02  0.43400761291E+02  0.00000000000E+00 0.  1.
         11    1    3    3    0    0  0.40022800087E+01  0.10570808678E+02  0.63067004577E+00  0.11320688422E+02  0.51100000000E-03 0. -1.
        -11    1    3    3    0    0  0.26104916223E+01  0.96145543677E+01  0.17499026903E+01  0.10115160992E+02  0.51100000000E-03 0.  1.
        -12    1    3    3    0    0  0.14162381114E+01  0.19730730528E+02 -0.17409430210E+02  0.26351389295E+02  0.00000000000E+00 0.  1.
</event>
<event>
 7    1  0.2294216E-010  0.4778729E+02  0.7816164E-02  0.1312668E+00
        -11   -1    0    0    0    0  0.00000000000E+00  0.00000000000E+00  0.45593999997E+02  0.45594000000E+02  0.51100000000E-03 0.  1.
         11   -1    0    0    0    0 -0.00000000000E+00 -0.00000000000E+00 -0.45593999997E+02  0.45594000000E+02  0.51100000000E-03 0. -1.
    9900012    2    1    2    0    0 -0.16850651316E+02 -0.33529208256E+02 -0.21805266205E+02  0.47787286984E+02  0.20000072675E+02 0.  0.
        -12    1    1    2    0    0  0.16850651316E+02  0.33529208256E+02  0.21805266205E+02  0.43400713016E+02  0.00000000000E+00 0.  1.
         11    1    3    3    0    0 -0.28049605730E+01 -0.69595324999E+01  0.36551117927E+00  0.75124227194E+01  0.51100000000E-03 0. -1.
        -11    1    3    3    0    0 -0.34533896501E+01 -0.20690328619E+02 -0.10518759370E+02  0.23466143641E+02  0.51100000000E-03 0.  1.
         12    1    3    3    0    0 -0.10592301093E+02 -0.58793471371E+01 -0.11652018014E+02  0.16808720624E+02  0.00000000000E+00 0. -1.
</event>
<event>
 7    1  0.2294216E-010  0.4778727E+02  0.7816164E-02  0.1312668E+00
        -11   -1    0    0    0    0  0.00000000000E+00  0.00000000000E+00  0.45593999997E+02  0.45594000000E+02  0.51100000000E-03 0.  1.
         11   -1    0    0    0    0 -0.00000000000E+00 -0.00000000000E+00 -0.45593999997E+02  0.45594000000E+02  0.51100000000E-03 0. -1.
    9900012    2    1    2    0    0 -0.38482013328E+02 -0.16801527509E+02 -0.10975730035E+02  0.47787270442E+02  0.19999997251E+02 0.  0.
        -12    1    1    2    0    0  0.38482013328E+02  0.16801527509E+02  0.10975730035E+02  0.43400729558E+02  0.00000000000E+00 0.  1.
         11    1    3    3    0    0 -0.14055735486E+02 -0.34455079699E+01 -0.94337181552E+01  0.17275134260E+02  0.51100000000E-03 0. -1.
        -11    1    3    3    0    0 -0.63559707517E+01  0.19859918768E+01 -0.14119689217E+01  0.68070687104E+01  0.51100000000E-03 0.  1.
         12    1    3    3    0    0 -0.18070307090E+02 -0.15342011416E+02 -0.13004295796E+00  0.23705067471E+02  0.00000000000E+00 0. -1.
</event>
<event>
 7    1  0.2294216E-010  0.4778727E+02  0.7816164E-02  0.1312668E+00
        -11   -1    0    0    0    0  0.00000000000E+00  0.00000000000E+00  0.45593999997E+02  0.45594000000E+02  0.51100000000E-03 0. -1.
         11   -1    0    0    0    0 -0.00000000000E+00 -0.00000000000E+00 -0.45593999997E+02  0.45594000000E+02  0.51100000000E-03 0.  1.
    9900012    2    1    2    0    0 -0.17217146130E+02  0.11039830399E+01  0.39824292896E+02  0.47787271849E+02  0.20000003667E+02 0.  0.
        -12    1    1    2    0    0  0.17217146130E+02 -0.11039830399E+01 -0.39824292896E+02  0.43400728151E+02  0.00000000000E+00 0.  1.
         11    1    3    3    0    0  0.34477793611E+00  0.54237032983E+00  0.44428282876E+00  0.78129693009E+00  0.51100000000E-03 0.  1.
        -11    1    3    3    0    0 -0.10966928568E+02  0.34182886860E+01  0.61943854823E+01  0.13051001169E+02  0.51100000000E-03 0. -1.
         12    1    3    3    0    0 -0.65949954981E+01 -0.28566759759E+01  0.33185624585E+02  0.33954973749E+02  0.00000000000E+00 0. -1.
</event>
<event>
 7    1  0.2294216E-010  0.4778728E+02  0.7816164E-02  0.1312668E+00
        -11   -1    0    0    0    0  0.00000000000E+00  0.00000000000E+00  0.45593999997E+02  0.45594000000E+02  0.51100000000E-03 0.  1.
         11   -1    0    0    0    0 -0.00000000000E+00 -0.00000000000E+00 -0.45593999997E+02  0.45594000000E+02  0.51100000000E-03 0. -1.
    9900012    2    1    2    0    0 -0.13011404018E+02  0.96695287432E+01 -0.40259489612E+02  0.47787275070E+02  0.20000018352E+02 0.  0.
        -12    1    1    2    0    0  0.13011404018E+02 -0.96695287432E+01  0.40259489612E+02  0.43400724930E+02  0.00000000000E+00 0.  1.
         11    1    3    3    0    0 -0.83407418054E+01  0.63822554339E+01 -0.21928383608E+02  0.24313682696E+02  0.51100000000E-03 0. -1.
        -11    1    3    3    0    0 -0.15261041412E+01  0.12618929836E+01 -0.19464731043E+02  0.19565201828E+02  0.51100000000E-03 0.  1.
        -12    1    3    3    0    0 -0.31445580716E+01  0.20253803257E+01  0.11336250387E+01  0.39083905457E+01  0.00000000000E+00 0.  1.
</event>
<event>
 7    1  0.2294216E-010  0.4778727E+02  0.7816164E-02  0.1312668E+00
        -11   -1    0    0    0    0  0.00000000000E+00  0.00000000000E+00  0.45593999997E+02  0.45594000000E+02  0.51100000000E-03 0.  1.
         11   -1    0    0    0    0 -0.00000000000E+00 -0.00000000000E+00 -0.45593999997E+02  0.45594000000E+02  0.51100000000E-03 0. -1.
    9900012    2    1    2    0    0  0.62671213989E+01  0.29957492248E+02 -0.30771660209E+02  0.47787271614E+02  0.20000002596E+02 0.  0.
        -12    1    1    2    0    0 -0.62671213989E+01 -0.29957492248E+02  0.30771660209E+02  0.43400728386E+02  0.00000000000E+00 0.  1.
         11    1    3    3    0    0  0.18729524364E+01  0.15657922200E+02 -0.20305243479E+02  0.25709558367E+02  0.51100000000E-03 0. -1.
        -11    1    3    3    0    0  0.57458917843E+01  0.16143910277E+02 -0.95210262908E+01  0.19603342912E+02  0.51100000000E-03 0.  1.
         12    1    3    3    0    0 -0.13517228219E+01 -0.18443402291E+01 -0.94539043945E+00  0.24743703342E+01  0.00000000000E+00 0. -1.
</event>
<event>
 7    1  0.2294216E-010  0.4778728E+02  0.7816164E-02  0.1312668E+00
        -11   -1    0    0    0    0  0.00000000000E+00  0.00000000000E+00  0.45593999997E+02  0.45594000000E+02  0.51100000000E-03 0.  1.
         11   -1    0    0    0    0 -0.00000000000E+00 -0.00000000000E+00 -0.45593999997E+02  0.45594000000E+02  0.51100000000E-03 0. -1.
    9900012    2    1    2    0    0 -0.21458998695E+02  0.24780780636E+02 -0.28443751269E+02  0.47787277654E+02  0.20000030136E+02 0.  0.
        -12    1    1    2    0    0  0.21458998695E+02 -0.24780780636E+02  0.28443751269E+02  0.43400722346E+02  0.00000000000E+00 0.  1.
         11    1    3    3    0    0 -0.13705896891E+02  0.13265262069E+02 -0.71180805960E+01  0.20358925781E+02  0.51100000000E-03 0.  1.
        -11    1    3    3    0    0 -0.56035431442E+01  0.53249004691E+01 -0.35944992746E+01  0.85249449306E+01  0.51100000000E-03 0. -1.
        -12    1    3    3    0    0 -0.21495586600E+01  0.61906180971E+01 -0.17731171398E+02  0.18903406942E+02  0.00000000000E+00 0.  1.
</event>
<event>
 7    1  0.2294216E-010  0.4778728E+02  0.7816164E-02  0.1312668E+00
        -11   -1    0    0    0    0  0.00000000000E+00  0.00000000000E+00  0.45593999997E+02  0.45594000000E+02  0.51100000000E-03 0.  1.
         11   -1    0    0    0    0 -0.00000000000E+00 -0.00000000000E+00 -0.45593999997E+02  0.45594000000E+02  0.51100000000E-03 0. -1.
    9900012    2    1    2    0    0 -0.40771536008E+02  0.88917789918E+01 -0.11926475063E+02  0.47787277776E+02  0.20000030694E+02 0.  0.
        -12    1    1    2    0    0  0.40771536008E+02 -0.88917789918E+01  0.11926475063E+02  0.43400722224E+02  0.00000000000E+00 0.  1.
         11    1    3    3    0    0 -0.46260553042E+01  0.46759229203E+01 -0.50781439213E+01  0.83097646646E+01  0.51100000000E-03 0. -1.
        -11    1    3    3    0    0 -0.48103560379E+01 -0.24604560920E+01 -0.50387459251E+01  0.73879855273E+01  0.51100000000E-03 0.  1.
        -12    1    3    3    0    0 -0.31335124666E+02  0.66763121635E+01 -0.18095852165E+01  0.32089527585E+02  0.00000000000E+00 0.  1.
</event>
<event>
 7    1  0.2294216E-010  0.4778727E+02  0.7816164E-02  0.1312668E+00
        -11   -1    0    0    0    0  0.00000000000E+00  0.00000000000E+00  0.45593999997E+02  0.45594000000E+02  0.51100000000E-03 0. -1.
         11   -1    0    0    0    0 -0.00000000000E+00 -0.00000000000E+00 -0.45593999997E+02  0.45594000000E+02  0.51100000000E-03 0.  1.
    9900012    2    1    2    0    0 -0.12638185403E+02  0.28280941268E+02  0.30398811597E+02  0.47787272865E+02  0.20000008302E+02 0.  0.
        -12    1    1    2    0    0  0.12638185403E+02 -0.28280941268E+02 -0.30398811597E+02  0.43400727135E+02  0.00000000000E+00 0.  1.
         11    1    3    3    0    0 -0.17508595395E+01  0.18952716556E+01  0.24821718126E+00  0.25921373046E+01  0.51100000000E-03 0. -1.
        -11    1    3    3    0    0 -0.12236572831E+02  0.28528138941E+02  0.26905246586E+02  0.41078957146E+02  0.51100000000E-03 0.  1.
        -12    1    3    3    0    0  0.13492469681E+01 -0.21424693283E+01  0.32453478299E+01  0.41161784146E+01  0.00000000000E+00 0.  1.
</event>
<event>
 7    1  0.2294216E-010  0.4778729E+02  0.7816164E-02  0.1312668E+00
        -11   -1    0    0    0    0  0.00000000000E+00  0.00000000000E+00  0.45593999997E+02  0.45594000000E+02  0.51100000000E-03 0.  1.
         11   -1    0    0    0    0 -0.00000000000E+00 -0.00000000000E+00 -0.45593999997E+02  0.45594000000E+02  0.51100000000E-03 0. -1.
    9900012    2    1    2    0    0 -0.14838224902E+02 -0.35747953965E+02 -0.19634986496E+02  0.47787287729E+02  0.20000076071E+02 0.  0.
        -12    1    1    2    0    0  0.14838224902E+02  0.35747953965E+02  0.19634986496E+02  0.43400712271E+02  0.00000000000E+00 0.  1.
         11    1    3    3    0    0 -0.68933129535E+01 -0.18511138419E+02 -0.12332255327E+02  0.23286574045E+02  0.51100000000E-03 0. -1.
        -11    1    3    3    0    0 -0.11737300237E+02 -0.10994721814E+02 -0.49341191282E+01  0.16822415298E+02  0.51100000000E-03 0.  1.
         12    1    3    3    0    0  0.37923882891E+01 -0.62420937322E+01 -0.23686120408E+01  0.76782983855E+01  0.00000000000E+00 0. -1.
</event>
<event>
 7    1  0.2294216E-010  0.4778727E+02  0.7816164E-02  0.1312668E+00
        -11   -1    0    0    0    0  0.00000000000E+00  0.00000000000E+00  0.45593999997E+02  0.45594000000E+02  0.51100000000E-03 0.  1.
         11   -1    0    0    0    0 -0.00000000000E+00 -0.00000000000E+00 -0.45593999997E+02  0.45594000000E+02  0.51100000000E-03 0. -1.
    9900012    2    1    2    0    0 -0.32949362476E+02  0.90449033896E+01 -0.26761027088E+02  0.47787270332E+02  0.19999996752E+02 0.  0.
        -12    1    1    2    0    0  0.32949362476E+02 -0.90449033896E+01  0.26761027088E+02  0.43400729668E+02  0.00000000000E+00 0.  1.
         11    1    3    3    0    0 -0.16781969654E+02  0.49617102388E+01 -0.19368471965E+02  0.26103462997E+02  0.51100000000E-03 0. -1.
        -11    1    3    3    0    0 -0.15923868956E+02  0.66897500955E+01 -0.79394279010E+01  0.19009389115E+02  0.51100000000E-03 0.  1.
         12    1    3    3    0    0 -0.24352386609E+00 -0.26065569447E+01  0.54687277741E+00  0.26744182197E+01  0.00000000000E+00 0. -1.
</event>
<event>
 7    1  0.2294216E-010  0.4778727E+02  0.7816164E-02  0.1312668E+00
        -11   -1    0    0    0    0  0.00000000000E+00  0.00000000000E+00  0.45593999997E+02  0.45594000000E+02  0.51100000000E-03 0.  1.
         11   -1    0    0    0    0 -0.00000000000E+00 -0.00000000000E+00 -0.45593999997E+02  0.45594000000E+02  0.51100000000E-03 0. -1.
    9900012    2    1    2    0    0  0.10085412356E+02  0.37395452074E+02 -0.19582844226E+02  0.47787272285E+02  0.20000005655E+02 0.  0.
        -12    1    1    2    0    0 -0.10085412356E+02 -0.37395452074E+02  0.19582844226E+02  0.43400727715E+02  0.00000000000E+00 0.  1.
         11    1    3    3    0    0  0.58293453483E+01  0.17622504997E+02 -0.21443465689E+01  0.18685078860E+02  0.51100000000E-03 0. -1.
        -11    1    3    3    0    0  0.48005107731E+01  0.15712530930E+01 -0.31181239088E+01  0.59360287176E+01  0.51100000000E-03 0.  1.
         12    1    3    3    0    0 -0.54444376519E+00  0.18201693985E+02 -0.14320373749E+02  0.23166164707E+02  0.00000000000E+00 0. -1.
</event>
<event>
 7    1  0.2294216E-010  0.4778729E+02  0.7816164E-02  0.1312668E+00
        -11   -1    0    0    0    0  0.00000000000E+00  0.00000000000E+00  0.45593999997E+02  0.45594000000E+02  0.51100000000E-03 0. -1.
         11   -1    0    0    0    0 -0.00000000000E+00 -0.00000000000E+00 -0.45593999997E+02  0.45594000000E+02  0.51100000000E-03 0.  1.
    9900012    2    1    2    0    0  0.22288509566E+02 -0.35063566694E+02  0.12545527679E+02  0.47787289951E+02  0.20000086204E+02 0.  0.
        -12    1    1    2    0    0 -0.22288509566E+02  0.35063566694E+02 -0.12545527679E+02  0.43400710049E+02  0.00000000000E+00 0.  1.
         11    1    3    3    0    0  0.11663235544E+02 -0.24049958585E+02  0.62480102575E+01  0.27449393504E+02  0.51100000000E-03 0. -1.
        -11    1    3    3    0    0  0.12744548796E+02 -0.98742038476E+01  0.32354893387E+01  0.16443595019E+02  0.51100000000E-03 0.  1.
        -12    1    3    3    0    0 -0.21192747732E+01 -0.11394042611E+01  0.30620280824E+01  0.38943014279E+01  0.00000000000E+00 0.  1.
</event>
<event>
 7    1  0.2294216E-010  0.4778727E+02  0.7816164E-02  0.1312668E+00
        -11   -1    0    0    0    0  0.00000000000E+00  0.00000000000E+00  0.45593999997E+02  0.45594000000E+02  0.51100000000E-03 0.  1.
         11   -1    0    0    0    0 -0.00000000000E+00 -0.00000000000E+00 -0.45593999997E+02  0.45594000000E+02  0.51100000000E-03 0. -1.
    9900012    2    1    2    0    0  0.23649486717E+02  0.34650342569E+02 -0.11121097659E+02  0.47787271029E+02  0.19999999929E+02 0.  0.
        -12    1    1    2    0    0 -0.23649486717E+02 -0.34650342569E+02  0.11121097659E+02  0.43400728971E+02  0.00000000000E+00 0.  1.
         11    1    3    3    0    0 -0.15807205013E+00 -0.15123361318E+01  0.73890055627E+00  0.16905980130E+01  0.51100000000E-03 0. -1.
        -11    1    3    3    0    0 -0.26887990485E+00  0.16529306910E+01  0.11746719709E+01  0.20455636810E+01  0.51100000000E-03 0.  1.
         12    1    3    3    0    0  0.24076438672E+02  0.34509748009E+02 -0.13034670186E+02  0.44051109335E+02  0.00000000000E+00 0. -1.
</event>
<event>
 7    1  0.2294216E-010  0.4778727E+02  0.7816164E-02  0.1312668E+00
        -11   -1    0    0    0    0  0.00000000000E+00  0.00000000000E+00  0.45593999997E+02  0.45594000000E+02  0.51100000000E-03 0.  1.
         11   -1    0    0    0    0 -0.00000000000E+00 -0.00000000000E+00 -0.45593999997E+02  0.45594000000E+02  0.51100000000E-03 0. -1.
    9900012    2    1    2    0    0  0.23511271526E+01  0.24909680541E+02 -0.35462705450E+02  0.47787268884E+02  0.19999990151E+02 0.  0.
        -12    1    1    2    0    0 -0.23511271526E+01 -0.24909680541E+02  0.35462705450E+02  0.43400731116E+02  0.00000000000E+00 0.  1.
         11    1    3    3    0    0 -0.68543272520E+00 -0.41703247313E+00 -0.59458064370E+01  0.59996957049E+01  0.51100000000E-03 0. -1.
        -11    1    3    3    0    0 -0.10583092190E+01  0.73943991786E+01 -0.57067977617E+00  0.74915174220E+01  0.51100000000E-03 0.  1.
         12    1    3    3    0    0  0.40948690968E+01  0.17932313836E+02 -0.28946219237E+02  0.34296055757E+02  0.00000000000E+00 0. -1.
</event>
<event>
 7    1  0.2294216E-010  0.4778727E+02  0.7816164E-02  0.1312668E+00
        -11   -1    0    0    0    0  0.00000000000E+00  0.00000000000E+00  0.45593999997E+02  0.45594000000E+02  0.51100000000E-03 0. -1.
         11   -1    0    0    0    0 -0.00000000000E+00 -0.00000000000E+00 -0.45593999997E+02  0.45594000000E+02  0.51100000000E-03 0.  1.
    9900012    2    1    2    0    0 -0.10451681130E+02 -0.39941128147E+02  0.13382530612E+02  0.47787268650E+02  0.19999989085E+02 0.  0.
        -12    1    1    2    0    0  0.10451681130E+02  0.39941128147E+02 -0.13382530612E+02  0.43400731350E+02  0.00000000000E+00 0.  1.
         11    1    3    3    0    0 -0.29923300118E+01 -0.22692264325E+02  0.71009513028E+01  0.23964899515E+02  0.51100000000E-03 0. -1.
        -11    1    3    3    0    0 -0.42012546972E+01 -0.10113198852E+02  0.10277919681E+02  0.15018753786E+02  0.51100000000E-03 0.  1.
         12    1    3    3    0    0 -0.32580964209E+01 -0.71356649701E+01 -0.39963403722E+01  0.88036153496E+01  0.00000000000E+00 0. -1.
</event>
<event>
 7    1  0.2294216E-010  0.4778727E+02  0.7816164E-02  0.1312668E+00
        -11   -1    0    0    0    0  0.00000000000E+00  0.00000000000E+00  0.45593999997E+02  0.45594000000E+02  0.51100000000E-03 0. -1.
         11   -1    0    0    0    0 -0.00000000000E+00 -0.00000000000E+00 -0.45593999997E+02  0.45594000000E+02  0.51100000000E-03 0.  1.
    9900012    2    1    2    0    0  0.43940473835E+01  0.38394340244E+02  0.19753236241E+02  0.47787270085E+02  0.19999995624E+02 0.  0.
        -12    1    1    2    0    0 -0.43940473835E+01 -0.38394340244E+02 -0.19753236241E+02  0.43400729915E+02  0.00000000000E+00 0.  1.
         11    1    3    3    0    0  0.30499329288E+01 -0.63336807494E+00  0.51904555890E+01  0.60534350142E+01  0.51100000000E-03 0.  1.
        -11    1    3    3    0    0  0.98247793567E+00  0.67593825740E+01  0.29016182267E+01  0.74211794393E+01  0.51100000000E-03 0. -1.
        -12    1    3    3    0    0  0.36163651907E+00  0.32268325745E+02  0.11661162426E+02  0.34312655631E+02  0.00000000000E+00 0.  1.
</event>
<event>
 7    1  0.2294216E-010  0.4778727E+02  0.7816164E-02  0.1312668E+00
        -11   -1    0    0    0    0  0.00000000000E+00  0.00000000000E+00  0.45593999997E+02  0.45594000000E+02  0.51100000000E-03 0. -1.
         11   -1    0    0    0    0 -0.00000000000E+00 -0.00000000000E+00 -0.45593999997E+02  0.45594000000E+02  0.51100000000E-03 0.  1.
    9900012    2    1    2    0    0 -0.22170070674E+01 -0.22694986271E+02  0.36927574777E+02  0.47787270731E+02  0.19999998571E+02 0.  0.
        -12    1    1    2    0    0  0.22170070674E+01  0.22694986271E+02 -0.36927574777E+02  0.43400729269E+02  0.00000000000E+00 0.  1.
         11    1    3    3    0    0 -0.19508685089E+00 -0.20202329031E+02  0.23441674738E+02  0.30946474306E+02  0.51100000000E-03 0. -1.
        -11    1    3    3    0    0 -0.10157304365E+01 -0.54413927251E+01  0.39268490861E+01  0.67867965281E+01  0.51100000000E-03 0.  1.
        -12    1    3    3    0    0 -0.10061897800E+01  0.29487354844E+01  0.95590509520E+01  0.10053999897E+02  0.00000000000E+00 0.  1.
</event>
<event>
 7    1  0.2294216E-010  0.4778727E+02  0.7816164E-02  0.1312668E+00
        -11   -1    0    0    0    0  0.00000000000E+00  0.00000000000E+00  0.45593999997E+02  0.45594000000E+02  0.51100000000E-03 0.  1.
         11   -1    0    0    0    0 -0.00000000000E+00 -0.00000000000E+00 -0.45593999997E+02  0.45594000000E+02  0.51100000000E-03 0. -1.
    9900012    2    1    2    0    0 -0.29252054335E+02  0.30859619904E+02 -0.86962227477E+01  0.47787272892E+02  0.20000008423E+02 0.  0.
        -12    1    1    2    0    0  0.29252054335E+02 -0.30859619904E+02  0.86962227477E+01  0.43400727108E+02  0.00000000000E+00 0.  1.
         11    1    3    3    0    0 -0.10162553738E+02  0.11510555621E+02 -0.38097506229E+01  0.15820385243E+02  0.51100000000E-03 0. -1.
        -11    1    3    3    0    0 -0.20353871186E+02  0.11152053968E+02 -0.46471688880E+01  0.23669485818E+02  0.51100000000E-03 0.  1.
        -12    1    3    3    0    0  0.12643705891E+01  0.81970103152E+01 -0.23930323690E+00  0.82974018303E+01  0.00000000000E+00 0.  1.
</event>
<event>
 7    1  0.2294216E-010  0.4778728E+02  0.7816164E-02  0.1312668E+00
        -11   -1    0    0    0    0  0.00000000000E+00  0.00000000000E+00  0.45593999997E+02  0.45594000000E+02  0.51100000000E-03 0.  1.
         11   -1    0    0    0    0 -0.00000000000E+00 -0.00000000000E+00 -0.45593999997E+02  0.45594000000E+02  0.51100000000E-03 0. -1.
    9900012    2    1    2    0    0  0.17254563628E+02 -0.29059728090E+02 -0.27229298729E+02  0.47787280283E+02  0.20000042124E+02 0.  0.
        -12    1    1    2    0    0 -0.17254563628E+02  0.29059728090E+02  0.27229298729E+02  0.43400719717E+02  0.00000000000E+00 0.  1.
         11    1    3    3    0    0  0.68889358577E+01 -0.10029525581E+02 -0.31042627315E+01  0.12557279483E+02  0.51100000000E-03 0.  1.
        -11    1    3    3    0    0  0.99613091417E+01 -0.47051037066E+01 -0.77494229638E+01  0.13469195865E+02  0.51100000000E-03 0. -1.
         12    1    3    3    0    0  0.40431862886E+00 -0.14325098802E+02 -0.16375613033E+02  0.21760804936E+02  0.00000000000E+00 0. -1.
</event>
<event>
 7    1  0.2294216E-010  0.4778727E+02  0.7816164E-02  0.1312668E+00
        -11   -1    0    0    0    0  0.00000000000E+00  0.00000000000E+00  0.45593999997E+02  0.45594000000E+02  0.51100000000E-03 0. -1.
         11   -1    0    0    0    0 -0.00000000000E+00 -0.00000000000E+00 -0.45593999997E+02  0.45594000000E+02  0.51100000000E-03 0.  1.
    9900012    2    1    2    0    0 -0.81441302767E-01  0.12503179277E+02  0.41560644904E+02  0.47787270403E+02  0.19999997075E+02 0.  0.
        -12    1    1    2    0    0  0.81441302767E-01 -0.12503179277E+02 -0.41560644904E+02  0.43400729597E+02  0.00000000000E+00 0.  1.
         11    1    3    3    0    0 -0.58429154272E+00  0.19591575985E+01  0.27162780904E+01  0.33996855778E+01  0.51100000000E-03 0. -1.
        -11    1    3    3    0    0  0.49238249905E+01  0.87612103465E+01  0.71430765177E+01  0.12329898689E+02  0.51100000000E-03 0.  1.
         12    1    3    3    0    0 -0.44209747506E+01  0.17828113321E+01  0.31701290296E+02  0.32057686136E+02  0.00000000000E+00 0. -1.
</event>
<event>
 7    1  0.2294216E-010  0.4778727E+02  0.7816164E-02  0.1312668E+00
        -11   -1    0    0    0    0  0.00000000000E+00  0.00000000000E+00  0.45593999997E+02  0.45594000000E+02  0.51100000000E-03 0.  1.
         11   -1    0    0    0    0 -0.00000000000E+00 -0.00000000000E+00 -0.45593999997E+02  0.45594000000E+02  0.51100000000E-03 0. -1.
    9900012    2    1    2    0    0 -0.23359403240E+02  0.36499537241E+02 -0.23969326344E+01  0.47787271612E+02  0.20000002588E+02 0.  0.
        -12    1    1    2    0    0  0.23359403240E+02 -0.36499537241E+02  0.23969326344E+01  0.43400728388E+02  0.00000000000E+00 0.  1.
         11    1    3    3    0    0 -0.59708381404E+00  0.99449809600E+01 -0.56195523913E+01  0.11438466887E+02  0.51100000000E-03 0. -1.
        -11    1    3    3    0    0 -0.45544318728E+01  0.11674186521E+02 -0.49954822816E+00  0.12541093625E+02  0.51100000000E-03 0.  1.
        -12    1    3    3    0    0 -0.18207887553E+02  0.14880369761E+02  0.37221679850E+01  0.23807711101E+02  0.00000000000E+00 0.  1.
</event>
<event>
 7    1  0.2294216E-010  0.4778727E+02  0.7816164E-02  0.1312668E+00
        -11   -1    0    0    0    0  0.00000000000E+00  0.00000000000E+00  0.45593999997E+02  0.45594000000E+02  0.51100000000E-03 0.  1.
         11   -1    0    0    0    0 -0.00000000000E+00 -0.00000000000E+00 -0.45593999997E+02  0.45594000000E+02  0.51100000000E-03 0. -1.
    9900012    2    1    2    0    0 -0.31237568452E+01  0.11072258889E+02 -0.41848186255E+02  0.47787268825E+02  0.19999989880E+02 0.  0.
        -12    1    1    2    0    0  0.31237568452E+01 -0.11072258889E+02  0.41848186255E+02  0.43400731175E+02  0.00000000000E+00 0.  1.
         11    1    3    3    0    0 -0.45426076222E+01  0.87077556483E+01 -0.15941346513E+02  0.18723963826E+02  0.51100000000E-03 0. -1.
        -11    1    3    3    0    0 -0.54663055603E+01 -0.87347066436E+00 -0.11857544352E+02  0.13086053867E+02  0.51100000000E-03 0.  1.
        -12    1    3    3    0    0  0.68851563373E+01  0.32379739048E+01 -0.14049295389E+02  0.15977251132E+02  0.00000000000E+00 0.  1.
</event>
<event>
 7    1  0.2294216E-010  0.4778727E+02  0.7816164E-02  0.1312668E+00
        -11   -1    0    0    0    0  0.00000000000E+00  0.00000000000E+00  0.45593999997E+02  0.45594000000E+02  0.51100000000E-03 0. -1.
         11   -1    0    0    0    0 -0.00000000000E+00 -0.00000000000E+00 -0.45593999997E+02  0.45594000000E+02  0.51100000000E-03 0.  1.
    9900012    2    1    2    0    0  0.31041816310E+02  0.17870426313E+02  0.24508709663E+02  0.47787270217E+02  0.19999996225E+02 0.  0.
        -12    1    1    2    0    0 -0.31041816310E+02 -0.17870426313E+02 -0.24508709663E+02  0.43400729783E+02  0.00000000000E+00 0.  1.
         11    1    3    3    0    0  0.17743557421E+02  0.10633344533E+02  0.17058077302E+02  0.26811934795E+02  0.51100000000E-03 0. -1.
        -11    1    3    3    0    0  0.31159672854E+01 -0.76058672804E+00  0.73587141498E+01  0.80273543895E+01  0.51100000000E-03 0.  1.
         12    1    3    3    0    0  0.10182291603E+02  0.79976685086E+01  0.91918210236E-01  0.12947981032E+02  0.00000000000E+00 0. -1.
</event>
<event>
 7    1  0.2294216E-010  0.4778727E+02  0.7816164E-02  0.1312668E+00
        -11   -1    0    0    0    0  0.00000000000E+00  0.00000000000E+00  0.45593999997E+02  0.45594000000E+02  0.51100000000E-03 0.  1.
         11   -1    0    0    0    0 -0.00000000000E+00 -0.00000000000E+00 -0.45593999997E+02  0.45594000000E+02  0.51100000000E-03 0. -1.
    9900012    2    1    2    0    0  0.42611227878E+01  0.30245594669E+00 -0.43189980030E+02  0.47787273947E+02  0.20000013232E+02 0.  0.
        -12    1    1    2    0    0 -0.42611227878E+01 -0.30245594669E+00  0.43189980030E+02  0.43400726053E+02  0.00000000000E+00 0.  1.
         11    1    3    3    0    0 -0.11722573671E+01  0.55532503408E+01 -0.20967864578E+02  0.21722433609E+02  0.51100000000E-03 0. -1.
        -11    1    3    3    0    0  0.66148164514E+01 -0.57686227696E+01 -0.82895019627E+01  0.12072640490E+02  0.51100000000E-03 0.  1.
        -12    1    3    3    0    0 -0.11814362965E+01  0.51782837555E+00 -0.13932613489E+02  0.13992199848E+02  0.00000000000E+00 0.  1.
</event>
<event>
 7    1  0.2294216E-010  0.4778727E+02  0.7816164E-02  0.1312668E+00
        -11   -1    0    0    0    0  0.00000000000E+00  0.00000000000E+00  0.45593999997E+02  0.45594000000E+02  0.51100000000E-03 0. -1.
         11   -1    0    0    0    0 -0.00000000000E+00 -0.00000000000E+00 -0.45593999997E+02  0.45594000000E+02  0.51100000000E-03 0.  1.
    9900012    2    1    2    0    0  0.28582591371E+02  0.19332426027E+02  0.26323293352E+02  0.47787274217E+02  0.20000014467E+02 0.  0.
        -12    1    1    2    0    0 -0.28582591371E+02 -0.19332426027E+02 -0.26323293352E+02  0.43400725783E+02  0.00000000000E+00 0.  1.
         11    1    3    3    0    0  0.51321330964E+01  0.71921606772E+00  0.13016677197E+01  0.53432575256E+01  0.51100000000E-03 0. -1.
        -11    1    3    3    0    0  0.14163126277E+02  0.79065266785E+00  0.10133479311E+02  0.17432919456E+02  0.51100000000E-03 0.  1.
         12    1    3    3    0    0  0.92873319982E+01  0.17822557291E+02  0.14888146321E+02  0.25011097235E+02  0.00000000000E+00 0. -1.
</event>
<event>
 7    1  0.2294216E-010  0.4778727E+02  0.7816164E-02  0.1312668E+00
        -11   -1    0    0    0    0  0.00000000000E+00  0.00000000000E+00  0.45593999997E+02  0.45594000000E+02  0.51100000000E-03 0.  1.
         11   -1    0    0    0    0 -0.00000000000E+00 -0.00000000000E+00 -0.45593999997E+02  0.45594000000E+02  0.51100000000E-03 0. -1.
    9900012    2    1    2    0    0  0.39847449518E+02 -0.41600713110E+01 -0.16688257954E+02  0.47787269822E+02  0.19999994426E+02 0.  0.
        -12    1    1    2    0    0 -0.39847449518E+02  0.41600713110E+01  0.16688257954E+02  0.43400730178E+02  0.00000000000E+00 0.  1.
         11    1    3    3    0    0  0.22316952383E+01 -0.55719055306E+01 -0.30688653029E+01  0.67412557723E+01  0.51100000000E-03 0.  1.
        -11    1    3    3    0    0  0.23447795837E+02  0.75412768794E+00 -0.13063587542E+02  0.26851911625E+02  0.51100000000E-03 0. -1.
        -12    1    3    3    0    0  0.14167958443E+02  0.65770653170E+00 -0.55580510946E+00  0.14194102425E+02  0.00000000000E+00 0.  1.
</event>
<event>
 7    1  0.2294216E-010  0.4778727E+02  0.7816164E-02  0.1312668E+00
        -11   -1    0    0    0    0  0.00000000000E+00  0.00000000000E+00  0.45593999997E+02  0.45594000000E+02  0.51100000000E-03 0.  1.
         11   -1    0    0    0    0 -0.00000000000E+00 -0.00000000000E+00 -0.45593999997E+02  0.45594000000E+02  0.51100000000E-03 0. -1.
    9900012    2    1    2    0    0  0.13263960193E+02 -0.38421389453E+02  0.15214706781E+02  0.47787272933E+02  0.20000008613E+02 0.  0.
        -12    1    1    2    0    0 -0.13263960193E+02  0.38421389453E+02 -0.15214706781E+02  0.43400727067E+02  0.00000000000E+00 0.  1.
         11    1    3    3    0    0  0.46109559893E+01 -0.14453868434E+02 -0.10180860011E+01  0.15205647872E+02  0.51100000000E-03 0. -1.
        -11    1    3    3    0    0  0.41021915423E+01 -0.26869628840E+00  0.26241661474E+01  0.48771324952E+01  0.51100000000E-03 0.  1.
         12    1    3    3    0    0  0.45508126617E+01 -0.23698824731E+02  0.13608626634E+02  0.27704492567E+02  0.00000000000E+00 0. -1.
</event>
<event>
 7    1  0.2294216E-010  0.4778727E+02  0.7816164E-02  0.1312668E+00
        -11   -1    0    0    0    0  0.00000000000E+00  0.00000000000E+00  0.45593999997E+02  0.45594000000E+02  0.51100000000E-03 0. -1.
         11   -1    0    0    0    0 -0.00000000000E+00 -0.00000000000E+00 -0.45593999997E+02  0.45594000000E+02  0.51100000000E-03 0.  1.
    9900012    2    1    2    0    0  0.98359834781E+01  0.27102551634E+02  0.32439607349E+02  0.47787274188E+02  0.20000014333E+02 0.  0.
        -12    1    1    2    0    0 -0.98359834781E+01 -0.27102551634E+02 -0.32439607349E+02  0.43400725812E+02  0.00000000000E+00 0.  1.
         11    1    3    3    0    0  0.33672863467E+00  0.17410286170E+02  0.20596823018E+02  0.26971476960E+02  0.51100000000E-03 0. -1.
        -11    1    3    3    0    0  0.95565559929E+00  0.60454063532E+01  0.48024656306E+00  0.61392876315E+01  0.51100000000E-03 0.  1.
         12    1    3    3    0    0  0.85435992442E+01  0.36468591102E+01  0.11362537768E+02  0.14676509596E+02  0.00000000000E+00 0. -1.
</event>
<event>
 7    1  0.2294216E-010  0.4778727E+02  0.7816164E-02  0.1312668E+00
        -11   -1    0    0    0    0  0.00000000000E+00  0.00000000000E+00  0.45593999997E+02  0.45594000000E+02  0.51100000000E-03 0.  1.
         11   -1    0    0    0    0 -0.00000000000E+00 -0.00000000000E+00 -0.45593999997E+02  0.45594000000E+02  0.51100000000E-03 0. -1.
    9900012    2    1    2    0    0  0.14940748235E+02 -0.24290446448E+02 -0.32716538491E+02  0.47787266858E+02  0.19999980912E+02 0.  0.
        -12    1    1    2    0    0 -0.14940748235E+02  0.24290446448E+02  0.32716538491E+02  0.43400733142E+02  0.00000000000E+00 0.  1.
         11    1    3    3    0    0  0.11893250808E+00 -0.10778434793E+02 -0.60809037961E+01  0.12376032998E+02  0.51100000000E-03 0. -1.
        -11    1    3    3    0    0 -0.42233147526E+00 -0.35416056965E+01 -0.57038813089E+00  0.36120185029E+01  0.51100000000E-03 0.  1.
        -12    1    3    3    0    0  0.15244147202E+02 -0.99704059578E+01 -0.26065246564E+02  0.31799215357E+02  0.00000000000E+00 0.  1.
</event>
<event>
 7    1  0.2294216E-010  0.4778727E+02  0.7816164E-02  0.1312668E+00
        -11   -1    0    0    0    0  0.00000000000E+00  0.00000000000E+00  0.45593999997E+02  0.45594000000E+02  0.51100000000E-03 0. -1.
         11   -1    0    0    0    0 -0.00000000000E+00 -0.00000000000E+00 -0.45593999997E+02  0.45594000000E+02  0.51100000000E-03 0.  1.
    9900012    2    1    2    0    0 -0.32193050201E+02 -0.28516352902E+02  0.58350965025E+01  0.47787271720E+02  0.20000003079E+02 0.  0.
        -12    1    1    2    0    0  0.32193050201E+02  0.28516352902E+02 -0.58350965025E+01  0.43400728280E+02  0.00000000000E+00 0.  1.
         11    1    3    3    0    0 -0.18503515171E+02 -0.94849224573E+01  0.27332933523E-01  0.20792897226E+02  0.51100000000E-03 0. -1.
        -11    1    3    3    0    0 -0.61230812090E+01 -0.57073389649E+01 -0.34927663004E+01  0.90700197487E+01  0.51100000000E-03 0.  1.
         12    1    3    3    0    0 -0.75664538214E+01 -0.13324091479E+02  0.93005298694E+01  0.17924354745E+02  0.00000000000E+00 0. -1.
</event>
<event>
 7    1  0.2294216E-010  0.4778727E+02  0.7816164E-02  0.1312668E+00
        -11   -1    0    0    0    0  0.00000000000E+00  0.00000000000E+00  0.45593999997E+02  0.45594000000E+02  0.51100000000E-03 0. -1.
         11   -1    0    0    0    0 -0.00000000000E+00 -0.00000000000E+00 -0.45593999997E+02  0.45594000000E+02  0.51100000000E-03 0.  1.
    9900012    2    1    2    0    0  0.42312263202E+02 -0.86673049262E+01  0.42630761385E+01  0.47787267171E+02  0.19999982340E+02 0.  0.
        -12    1    1    2    0    0 -0.42312263202E+02  0.86673049262E+01 -0.42630761385E+01  0.43400732829E+02  0.00000000000E+00 0.  1.
         11    1    3    3    0    0  0.15422465184E+02  0.16388252160E+01  0.19849708517E+01  0.15635801546E+02  0.51100000000E-03 0. -1.
        -11    1    3    3    0    0  0.65751760188E+00  0.33435351637E-01 -0.33370293806E+01  0.34013545343E+01  0.51100000000E-03 0.  1.
         12    1    3    3    0    0  0.26232280415E+02 -0.10339565494E+02  0.56151346674E+01  0.28750111091E+02  0.00000000000E+00 0. -1.
</event>
<event>
 7    1  0.2294216E-010  0.4778727E+02  0.7816164E-02  0.1312668E+00
        -11   -1    0    0    0    0  0.00000000000E+00  0.00000000000E+00  0.45593999997E+02  0.45594000000E+02  0.51100000000E-03 0.  1.
         11   -1    0    0    0    0 -0.00000000000E+00 -0.00000000000E+00 -0.45593999997E+02  0.45594000000E+02  0.51100000000E-03 0. -1.
    9900012    2    1    2    0    0 -0.16369103024E+02 -0.13263682992E+02 -0.37944045296E+02  0.47787269664E+02  0.19999993705E+02 0.  0.
        -12    1    1    2    0    0  0.16369103024E+02  0.13263682992E+02  0.37944045296E+02  0.43400730336E+02  0.00000000000E+00 0.  1.
         11    1    3    3    0    0 -0.46745073020E+01 -0.12469828171E+02 -0.17001961549E+02  0.21596627744E+02  0.51100000000E-03 0. -1.
        -11    1    3    3    0    0  0.17987386862E+01  0.76426989231E+00 -0.14536440034E+01  0.24357032822E+01  0.51100000000E-03 0.  1.
         12    1    3    3    0    0 -0.13493334408E+02 -0.15581247136E+01 -0.19488439743E+02  0.23754938638E+02  0.00000000000E+00 0. -1.
</event>
<event>
 7    1  0.2294216E-010  0.4778727E+02  0.7816164E-02  0.1312668E+00
        -11   -1    0    0    0    0  0.00000000000E+00  0.00000000000E+00  0.45593999997E+02  0.45594000000E+02  0.51100000000E-03 0.  1.
         11   -1    0    0    0    0 -0.00000000000E+00 -0.00000000000E+00 -0.45593999997E+02  0.45594000000E+02  0.51100000000E-03 0. -1.
    9900012    2    1    2    0    0  0.20628356508E+02  0.57140436456E+01 -0.37755048614E+02  0.47787273245E+02  0.20000010033E+02 0.  0.
        -12    1    1    2    0    0 -0.20628356508E+02 -0.57140436456E+01  0.37755048614E+02  0.43400726755E+02  0.00000000000E+00 0.  1.
         11    1    3    3    0    0  0.10377866229E+01 -0.10599296509E+01  0.11659570849E+01  0.18867718792E+01  0.51100000000E-03 0. -1.
        -11    1    3    3    0    0  0.61455070508E+01  0.66763659237E+01 -0.76760364362E+01  0.11885396690E+02  0.51100000000E-03 0.  1.
         12    1    3    3    0    0  0.13445062834E+02  0.97607372784E-01 -0.31244969263E+02  0.34015104675E+02  0.00000000000E+00 0. -1.
</event>
<event>
 7    1  0.2294216E-010  0.4778727E+02  0.7816164E-02  0.1312668E+00
        -11   -1    0    0    0    0  0.00000000000E+00  0.00000000000E+00  0.45593999997E+02  0.45594000000E+02  0.51100000000E-03 0.  1.
         11   -1    0    0    0    0 -0.00000000000E+00 -0.00000000000E+00 -0.45593999997E+02  0.45594000000E+02  0.51100000000E-03 0. -1.
    9900012    2    1    2    0    0  0.18114210036E+01  0.37125508786E+02 -0.22406219790E+02  0.47787270352E+02  0.19999996843E+02 0.  0.
        -12    1    1    2    0    0 -0.18114210036E+01 -0.37125508786E+02  0.22406219790E+02  0.43400729648E+02  0.00000000000E+00 0.  1.
         11    1    3    3    0    0 -0.91238536018E+00  0.10797500305E+02 -0.10769372338E+02  0.15277363670E+02  0.51100000000E-03 0. -1.
        -11    1    3    3    0    0  0.30700579744E+01  0.23960062838E+02 -0.14961129896E+02  0.28413821904E+02  0.51100000000E-03 0.  1.
        -12    1    3    3    0    0 -0.34625161063E+00  0.23679456429E+01  0.33242824436E+01  0.40960847782E+01  0.00000000000E+00 0.  1.
</event>
<event>
 7    1  0.2294216E-010  0.4778726E+02  0.7816164E-02  0.1312668E+00
        -11   -1    0    0    0    0  0.00000000000E+00  0.00000000000E+00  0.45593999997E+02  0.45594000000E+02  0.51100000000E-03 0. -1.
         11   -1    0    0    0    0 -0.00000000000E+00 -0.00000000000E+00 -0.45593999997E+02  0.45594000000E+02  0.51100000000E-03 0.  1.
    9900012    2    1    2    0    0  0.11885899201E+02  0.26142825748E+02  0.32540776005E+02  0.47787262208E+02  0.19999959711E+02 0.  0.
        -12    1    1    2    0    0 -0.11885899201E+02 -0.26142825748E+02 -0.32540776005E+02  0.43400737792E+02  0.00000000000E+00 0.  1.
         11    1    3    3    0    0  0.39572209041E+01  0.11978755340E+02  0.12849457017E+02  0.18007185307E+02  0.51100000000E-03 0. -1.
        -11    1    3    3    0    0  0.41427843550E+00  0.44833085648E+00  0.12588708790E+02  0.12603500166E+02  0.51100000000E-03 0.  1.
         12    1    3    3    0    0  0.75143998618E+01  0.13715739552E+02  0.71026101978E+01  0.17176576736E+02  0.00000000000E+00 0. -1.
</event>
<event>
 7    1  0.2294216E-010  0.4778727E+02  0.7816164E-02  0.1312668E+00
        -11   -1    0    0    0    0  0.00000000000E+00  0.00000000000E+00  0.45593999997E+02  0.45594000000E+02  0.51100000000E-03 0.  1.
         11   -1    0    0    0    0 -0.00000000000E+00 -0.00000000000E+00 -0.45593999997E+02  0.45594000000E+02  0.51100000000E-03 0. -1.
    9900012    2    1    2    0    0 -0.24549994958E+02 -0.15509004921E+01 -0.35756341011E+02  0.47787268816E+02  0.19999989841E+02 0.  0.
        -12    1    1    2    0    0  0.24549994958E+02  0.15509004921E+01  0.35756341011E+02  0.43400731184E+02  0.00000000000E+00 0.  1.
         11    1    3    3    0    0 -0.57692177513E+01 -0.74237777328E+01 -0.61876551552E+01  0.11255373200E+02  0.51100000000E-03 0. -1.
        -11    1    3    3    0    0 -0.37718013150E+01  0.42672859833E+01 -0.12561179544E+02  0.13792006620E+02  0.51100000000E-03 0.  1.
        -12    1    3    3    0    0 -0.15008975892E+02  0.16055912575E+01 -0.17007506312E+02  0.22739888996E+02  0.00000000000E+00 0.  1.
</event>
<event>
 7    1  0.2294216E-010  0.4778727E+02  0.7816164E-02  0.1312668E+00
        -11   -1    0    0    0    0  0.00000000000E+00  0.00000000000E+00  0.45593999997E+02  0.45594000000E+02  0.51100000000E-03 0. -1.
         11   -1    0    0    0    0 -0.00000000000E+00 -0.00000000000E+00 -0.45593999997E+02  0.45594000000E+02  0.51100000000E-03 0.  1.
    9900012    2    1    2    0    0 -0.23670470293E+02 -0.84558018997E+00  0.36367809111E+02  0.47787266028E+02  0.19999977130E+02 0.  0.
        -12    1    1    2    0    0  0.23670470293E+02  0.84558018997E+00 -0.36367809111E+02  0.43400733972E+02  0.00000000000E+00 0.  1.
         11    1    3    3    0    0  0.11437545860E+00 -0.27010602297E+00  0.44819796126E+00  0.53564977623E+00  0.51100000000E-03 0.  1.
        -11    1    3    3    0    0 -0.16791492900E+02 -0.11821222316E+01  0.36513616385E+02  0.40206912696E+02  0.51100000000E-03 0. -1.
         12    1    3    3    0    0 -0.69933528513E+01  0.60664806464E+00 -0.59400523481E+00  0.70447035563E+01  0.00000000000E+00 0. -1.
</event>
<event>
 7    1  0.2294216E-010  0.4778727E+02  0.7816164E-02  0.1312668E+00
        -11   -1    0    0    0    0  0.00000000000E+00  0.00000000000E+00  0.45593999997E+02  0.45594000000E+02  0.51100000000E-03 0. -1.
         11   -1    0    0    0    0 -0.00000000000E+00 -0.00000000000E+00 -0.45593999997E+02  0.45594000000E+02  0.51100000000E-03 0.  1.
    9900012    2    1    2    0    0  0.43766382438E+01  0.24652080014E+02  0.35450579673E+02  0.47787267166E+02  0.19999982317E+02 0.  0.
        -12    1    1    2    0    0 -0.43766382438E+01 -0.24652080014E+02 -0.35450579673E+02  0.43400732834E+02  0.00000000000E+00 0.  1.
         11    1    3    3    0    0 -0.28163208597E+01  0.10511320097E+01 -0.17015104797E+00  0.30108957682E+01  0.51100000000E-03 0. -1.
        -11    1    3    3    0    0  0.57952860209E+01  0.33134494878E+01  0.10697663514E+02  0.12609690420E+02  0.51100000000E-03 0.  1.
         12    1    3    3    0    0  0.13976730826E+01  0.20287498517E+02  0.24923067207E+02  0.32166680978E+02  0.00000000000E+00 0. -1.
</event>
<event>
 7    1  0.2294216E-010  0.4778727E+02  0.7816164E-02  0.1312668E+00
        -11   -1    0    0    0    0  0.00000000000E+00  0.00000000000E+00  0.45593999997E+02  0.45594000000E+02  0.51100000000E-03 0.  1.
         11   -1    0    0    0    0 -0.00000000000E+00 -0.00000000000E+00 -0.45593999997E+02  0.45594000000E+02  0.51100000000E-03 0. -1.
    9900012    2    1    2    0    0 -0.80283885009E+01  0.32765901438E+02 -0.27305023710E+02  0.47787266841E+02  0.19999980835E+02 0.  0.
        -12    1    1    2    0    0  0.80283885009E+01 -0.32765901438E+02  0.27305023710E+02  0.43400733159E+02  0.00000000000E+00 0.  1.
         11    1    3    3    0    0 -0.48176347607E+01  0.89015578444E+01 -0.24222081462E+01  0.10407421838E+02  0.51100000000E-03 0. -1.
        -11    1    3    3    0    0  0.57717281389E+00 -0.13858609713E+01  0.28516323593E+00  0.15280894676E+01  0.51100000000E-03 0.  1.
         12    1    3    3    0    0 -0.37879265542E+01  0.25250204564E+02 -0.25167978800E+02  0.35851755536E+02  0.00000000000E+00 0. -1.
</event>
<event>
 7    1  0.2294216E-010  0.4778727E+02  0.7816164E-02  0.1312668E+00
        -11   -1    0    0    0    0  0.00000000000E+00  0.00000000000E+00  0.45593999997E+02  0.45594000000E+02  0.51100000000E-03 0.  1.
         11   -1    0    0    0    0 -0.00000000000E+00 -0.00000000000E+00 -0.45593999997E+02  0.45594000000E+02  0.51100000000E-03 0. -1.
    9900012    2    1    2    0    0  0.17010197037E+02 -0.72514736511E+01 -0.39264391307E+02  0.47787273070E+02  0.20000009237E+02 0.  0.
        -12    1    1    2    0    0 -0.17010197037E+02  0.72514736511E+01  0.39264391307E+02  0.43400726930E+02  0.00000000000E+00 0.  1.
         11    1    3    3    0    0  0.28132662566E+01  0.12365891746E+01 -0.68781973931E+01  0.75334732665E+01  0.51100000000E-03 0. -1.
        -11    1    3    3    0    0  0.43527225730E+01  0.53427297076E+01 -0.10405689722E+02  0.12480758526E+02  0.51100000000E-03 0.  1.
         12    1    3    3    0    0  0.98442082071E+01 -0.13830792533E+02 -0.21980504192E+02  0.27773041278E+02  0.00000000000E+00 0. -1.
</event>
<event>
 7    1  0.2294216E-010  0.4778727E+02  0.7816164E-02  0.1312668E+00
        -11   -1    0    0    0    0  0.00000000000E+00  0.00000000000E+00  0.45593999997E+02  0.45594000000E+02  0.51100000000E-03 0. -1.
         11   -1    0    0    0    0 -0.00000000000E+00 -0.00000000000E+00 -0.45593999997E+02  0.45594000000E+02  0.51100000000E-03 0.  1.
    9900012    2    1    2    0    0  0.24558155317E+01 -0.11247673672E+01  0.43316591914E+02  0.47787271128E+02  0.20000000380E+02 0.  0.
        -12    1    1    2    0    0 -0.24558155317E+01  0.11247673672E+01 -0.43316591914E+02  0.43400728872E+02  0.00000000000E+00 0.  1.
         11    1    3    3    0    0  0.89331424110E+00 -0.70136321502E+01  0.20723452607E+02  0.21896358932E+02  0.51100000000E-03 0. -1.
        -11    1    3    3    0    0 -0.35482320373E+01 -0.13225890933E+01  0.74438605245E+01  0.83516616472E+01  0.51100000000E-03 0.  1.
         12    1    3    3    0    0  0.51107333279E+01  0.72114538762E+01  0.15149278783E+02  0.17539250548E+02  0.00000000000E+00 0. -1.
</event>
<event>
 7    1  0.2294216E-010  0.4778727E+02  0.7816164E-02  0.1312668E+00
        -11   -1    0    0    0    0  0.00000000000E+00  0.00000000000E+00  0.45593999997E+02  0.45594000000E+02  0.51100000000E-03 0. -1.
         11   -1    0    0    0    0 -0.00000000000E+00 -0.00000000000E+00 -0.45593999997E+02  0.45594000000E+02  0.51100000000E-03 0.  1.
    9900012    2    1    2    0    0 -0.42178165720E+01 -0.19994792519E+02  0.38288922561E+02  0.47787270797E+02  0.19999998871E+02 0.  0.
        -12    1    1    2    0    0  0.42178165720E+01  0.19994792519E+02 -0.38288922561E+02  0.43400729203E+02  0.00000000000E+00 0.  1.
         11    1    3    3    0    0 -0.57043698064E+01 -0.16115732100E+02  0.33318928359E+02  0.37448733533E+02  0.51100000000E-03 0. -1.
        -11    1    3    3    0    0 -0.27389087592E+01 -0.44948653763E+00  0.39087020762E+01  0.47939140084E+01  0.51100000000E-03 0.  1.
        -12    1    3    3    0    0  0.42254619936E+01 -0.34295738812E+01  0.10612921260E+01  0.55446232552E+01  0.00000000000E+00 0.  1.
</event>
<event>
 7    1  0.2294216E-010  0.4778727E+02  0.7816164E-02  0.1312668E+00
        -11   -1    0    0    0    0  0.00000000000E+00  0.00000000000E+00  0.45593999997E+02  0.45594000000E+02  0.51100000000E-03 0.  1.
         11   -1    0    0    0    0 -0.00000000000E+00 -0.00000000000E+00 -0.45593999997E+02  0.45594000000E+02  0.51100000000E-03 0. -1.
    9900012    2    1    2    0    0  0.14543629460E+02  0.34641281719E+02  0.21727578143E+02  0.47787271792E+02  0.20000003407E+02 0.  0.
        -12    1    1    2    0    0 -0.14543629460E+02 -0.34641281719E+02 -0.21727578143E+02  0.43400728208E+02  0.00000000000E+00 0.  1.
         11    1    3    3    0    0  0.11509934183E+02  0.17932245318E+02  0.78422963113E+01  0.22705629671E+02  0.51100000000E-03 0. -1.
        -11    1    3    3    0    0  0.38836094286E+01  0.94723024413E+01  0.10095986749E+01  0.10287187443E+02  0.51100000000E-03 0.  1.
        -12    1    3    3    0    0 -0.84991415152E+00  0.72367339603E+01  0.12875683157E+02  0.14794454679E+02  0.00000000000E+00 0.  1.
</event>
<event>
 7    1  0.2294216E-010  0.4778729E+02  0.7816164E-02  0.1312668E+00
        -11   -1    0    0    0    0  0.00000000000E+00  0.00000000000E+00  0.45593999997E+02  0.45594000000E+02  0.51100000000E-03 0. -1.
         11   -1    0    0    0    0 -0.00000000000E+00 -0.00000000000E+00 -0.45593999997E+02  0.45594000000E+02  0.51100000000E-03 0.  1.
    9900012    2    1    2    0    0 -0.10322329645E+02 -0.39947184990E+02  0.13464521683E+02  0.47787292378E+02  0.20000097269E+02 0.  0.
        -12    1    1    2    0    0  0.10322329645E+02  0.39947184990E+02 -0.13464521683E+02  0.43400707622E+02  0.00000000000E+00 0.  1.
         11    1    3    3    0    0 -0.73706378507E+01 -0.16512036788E+02  0.14382328284E+02  0.23104653824E+02  0.51100000000E-03 0.  1.
        -11    1    3    3    0    0 -0.21775786236E+01 -0.59239369261E+01  0.25630302594E+01  0.68120482777E+01  0.51100000000E-03 0. -1.
        -12    1    3    3    0    0 -0.77411317099E+00 -0.17511211276E+02 -0.34808368612E+01  0.17870590276E+02  0.00000000000E+00 0.  1.
</event>
<event>
 7    1  0.2294216E-010  0.4778727E+02  0.7816164E-02  0.1312668E+00
        -11   -1    0    0    0    0  0.00000000000E+00  0.00000000000E+00  0.45593999997E+02  0.45594000000E+02  0.51100000000E-03 0.  1.
         11   -1    0    0    0    0 -0.00000000000E+00 -0.00000000000E+00 -0.45593999997E+02  0.45594000000E+02  0.51100000000E-03 0. -1.
    9900012    2    1    2    0    0 -0.19797450945E+02 -0.37013082359E+02 -0.11032496052E+02  0.47787270757E+02  0.19999998691E+02 0.  0.
        -12    1    1    2    0    0  0.19797450945E+02  0.37013082359E+02  0.11032496052E+02  0.43400729243E+02  0.00000000000E+00 0.  1.
         11    1    3    3    0    0 -0.11817429490E+02 -0.28234259222E+02 -0.82037881749E+01  0.31687965763E+02  0.51100000000E-03 0. -1.
        -11    1    3    3    0    0 -0.79731625954E+01 -0.87461442077E+01  0.13578595779E+01  0.11912604382E+02  0.51100000000E-03 0.  1.
        -12    1    3    3    0    0 -0.68588597127E-02 -0.32678930000E-01 -0.41865674551E+01  0.41867006118E+01  0.00000000000E+00 0.  1.
</event>
<event>
 7    1  0.2294216E-010  0.4778727E+02  0.7816164E-02  0.1312668E+00
        -11   -1    0    0    0    0  0.00000000000E+00  0.00000000000E+00  0.45593999997E+02  0.45594000000E+02  0.51100000000E-03 0.  1.
         11   -1    0    0    0    0 -0.00000000000E+00 -0.00000000000E+00 -0.45593999997E+02  0.45594000000E+02  0.51100000000E-03 0. -1.
    9900012    2    1    2    0    0  0.54270093540E+01 -0.35689623637E+02 -0.24091941193E+02  0.47787270786E+02  0.19999998822E+02 0.  0.
        -12    1    1    2    0    0 -0.54270093540E+01  0.35689623637E+02  0.24091941193E+02  0.43400729214E+02  0.00000000000E+00 0.  1.
         11    1    3    3    0    0 -0.11842317484E+01 -0.14036130014E+02 -0.88818288949E+01  0.16652394284E+02  0.51100000000E-03 0. -1.
        -11    1    3    3    0    0  0.25607344681E+01 -0.17826268111E+02 -0.17498784981E+02  0.25110568927E+02  0.51100000000E-03 0.  1.
         12    1    3    3    0    0  0.40505066343E+01 -0.38272255114E+01  0.22886726824E+01  0.60243075748E+01  0.00000000000E+00 0. -1.
</event>
<event>
 7    1  0.2294216E-010  0.4778727E+02  0.7816164E-02  0.1312668E+00
        -11   -1    0    0    0    0  0.00000000000E+00  0.00000000000E+00  0.45593999997E+02  0.45594000000E+02  0.51100000000E-03 0.  1.
         11   -1    0    0    0    0 -0.00000000000E+00 -0.00000000000E+00 -0.45593999997E+02  0.45594000000E+02  0.51100000000E-03 0. -1.
    9900012    2    1    2    0    0  0.18496588078E+02  0.37570082842E+02  0.11401238219E+02  0.47787272723E+02  0.20000007653E+02 0.  0.
        -12    1    1    2    0    0 -0.18496588078E+02 -0.37570082842E+02 -0.11401238219E+02  0.43400727277E+02  0.00000000000E+00 0.  1.
         11    1    3    3    0    0  0.32572555302E+00 -0.55749136243E+00 -0.13802798799E+01  0.15238328527E+01  0.51100000000E-03 0. -1.
        -11    1    3    3    0    0  0.50255241606E+01  0.10824632467E+01  0.18490781817E+01  0.54632142693E+01  0.51100000000E-03 0.  1.
         12    1    3    3    0    0  0.13145338364E+02  0.37045110957E+02  0.10932439917E+02  0.40800225601E+02  0.00000000000E+00 0. -1.
</event>
<event>
 7    1  0.2294216E-010  0.4778727E+02  0.7816164E-02  0.1312668E+00
        -11   -1    0    0    0    0  0.00000000000E+00  0.00000000000E+00  0.45593999997E+02  0.45594000000E+02  0.51100000000E-03 0. -1.
         11   -1    0    0    0    0 -0.00000000000E+00 -0.00000000000E+00 -0.45593999997E+02  0.45594000000E+02  0.51100000000E-03 0.  1.
    9900012    2    1    2    0    0  0.39532016592E+02 -0.75221614155E+01  0.16256090116E+02  0.47787265973E+02  0.19999976878E+02 0.  0.
        -12    1    1    2    0    0 -0.39532016592E+02  0.75221614155E+01 -0.16256090116E+02  0.43400734027E+02  0.00000000000E+00 0.  1.
         11    1    3    3    0    0  0.86106265589E+00  0.13982030929E+01 -0.18382679018E+01  0.24648792925E+01  0.51100000000E-03 0. -1.
        -11    1    3    3    0    0  0.12089838015E+02 -0.73874700357E+01  0.22682057280E+01  0.14348646425E+02  0.51100000000E-03 0.  1.
         12    1    3    3    0    0  0.26581115921E+02 -0.15328944727E+01  0.15826152290E+02  0.30973740255E+02  0.00000000000E+00 0. -1.
</event>
<event>
 7    1  0.2294216E-010  0.4778727E+02  0.7816164E-02  0.1312668E+00
        -11   -1    0    0    0    0  0.00000000000E+00  0.00000000000E+00  0.45593999997E+02  0.45594000000E+02  0.51100000000E-03 0.  1.
         11   -1    0    0    0    0 -0.00000000000E+00 -0.00000000000E+00 -0.45593999997E+02  0.45594000000E+02  0.51100000000E-03 0. -1.
    9900012    2    1    2    0    0  0.54143825524E+01  0.39020525607E+02 -0.18212811756E+02  0.47787268795E+02  0.19999989745E+02 0.  0.
        -12    1    1    2    0    0 -0.54143825524E+01 -0.39020525607E+02  0.18212811756E+02  0.43400731205E+02  0.00000000000E+00 0.  1.
         11    1    3    3    0    0 -0.13442046855E+01  0.63016151801E+01  0.68447650371E-01  0.64437508841E+01  0.51100000000E-03 0. -1.
        -11    1    3    3    0    0 -0.34205957689E+01  0.15525951204E+02 -0.29751398042E+01  0.16174272575E+02  0.51100000000E-03 0.  1.
         12    1    3    3    0    0  0.10179183007E+02  0.17192959222E+02 -0.15306119603E+02  0.25169245336E+02  0.00000000000E+00 0. -1.
</event>
<event>
 7    1  0.2294216E-010  0.4778728E+02  0.7816164E-02  0.1312668E+00
        -11   -1    0    0    0    0  0.00000000000E+00  0.00000000000E+00  0.45593999997E+02  0.45594000000E+02  0.51100000000E-03 0. -1.
         11   -1    0    0    0    0 -0.00000000000E+00 -0.00000000000E+00 -0.45593999997E+02  0.45594000000E+02  0.51100000000E-03 0.  1.
    9900012    2    1    2    0    0  0.89694146469E+00 -0.29927424493E+02  0.31419215410E+02  0.47787281829E+02  0.20000049173E+02 0.  0.
        -12    1    1    2    0    0 -0.89694146469E+00  0.29927424493E+02 -0.31419215410E+02  0.43400718171E+02  0.00000000000E+00 0.  1.
         11    1    3    3    0    0 -0.47154710587E+01 -0.64401741905E+01  0.64830463782E+01  0.10283063819E+02  0.51100000000E-03 0. -1.
        -11    1    3    3    0    0  0.72450877342E+01 -0.18260243453E+02  0.10964515810E+02  0.22497741985E+02  0.51100000000E-03 0.  1.
        -12    1    3    3    0    0 -0.16326752109E+01 -0.52270068496E+01  0.13971653221E+02  0.15006476025E+02  0.00000000000E+00 0.  1.
</event>
<event>
 7    1  0.2294216E-010  0.4778728E+02  0.7816164E-02  0.1312668E+00
        -11   -1    0    0    0    0  0.00000000000E+00  0.00000000000E+00  0.45593999997E+02  0.45594000000E+02  0.51100000000E-03 0.  1.
         11   -1    0    0    0    0 -0.00000000000E+00 -0.00000000000E+00 -0.45593999997E+02  0.45594000000E+02  0.51100000000E-03 0. -1.
    9900012    2    1    2    0    0  0.11781005261E+02 -0.32223890102E+02 -0.26579144678E+02  0.47787284452E+02  0.20000061131E+02 0.  0.
        -12    1    1    2    0    0 -0.11781005261E+02  0.32223890102E+02  0.26579144678E+02  0.43400715548E+02  0.00000000000E+00 0.  1.
         11    1    3    3    0    0  0.14301016047E+01 -0.26434831183E+01 -0.15515983893E+01  0.33824032017E+01  0.51100000000E-03 0. -1.
        -11    1    3    3    0    0  0.13532459975E+02 -0.19323312044E+02 -0.92935447216E+01  0.25355232893E+02  0.51100000000E-03 0.  1.
         12    1    3    3    0    0 -0.31815563192E+01 -0.10257094940E+02 -0.15734001567E+02  0.19049648357E+02  0.00000000000E+00 0. -1.
</event>
<event>
 7    1  0.2294216E-010  0.4778726E+02  0.7816164E-02  0.1312668E+00
        -11   -1    0    0    0    0  0.00000000000E+00  0.00000000000E+00  0.45593999997E+02  0.45594000000E+02  0.51100000000E-03 0.  1.
         11   -1    0    0    0    0 -0.00000000000E+00 -0.00000000000E+00 -0.45593999997E+02  0.45594000000E+02  0.51100000000E-03 0. -1.
    9900012    2    1    2    0    0  0.23731662473E+02  0.40610439835E+01 -0.36110115551E+02  0.47787258911E+02  0.19999944679E+02 0.  0.
        -12    1    1    2    0    0 -0.23731662473E+02 -0.40610439835E+01  0.36110115551E+02  0.43400741089E+02  0.00000000000E+00 0.  1.
         11    1    3    3    0    0  0.68852154049E+01 -0.99519693468E+00 -0.10385701461E+02  0.12500376123E+02  0.51100000000E-03 0. -1.
        -11    1    3    3    0    0 -0.13047930514E+01 -0.78033938931E+00 -0.11240485534E+02  0.11342836055E+02  0.51100000000E-03 0.  1.
         12    1    3    3    0    0  0.18151240120E+02  0.58365803075E+01 -0.14483928556E+02  0.23944046733E+02  0.00000000000E+00 0. -1.
</event>
<event>
 7    1  0.2294216E-010  0.4778727E+02  0.7816164E-02  0.1312668E+00
        -11   -1    0    0    0    0  0.00000000000E+00  0.00000000000E+00  0.45593999997E+02  0.45594000000E+02  0.51100000000E-03 0. -1.
         11   -1    0    0    0    0 -0.00000000000E+00 -0.00000000000E+00 -0.45593999997E+02  0.45594000000E+02  0.51100000000E-03 0.  1.
    9900012    2    1    2    0    0  0.33810381754E+01  0.33504098445E+02  0.27380048888E+02  0.47787272945E+02  0.20000008667E+02 0.  0.
        -12    1    1    2    0    0 -0.33810381754E+01 -0.33504098445E+02 -0.27380048888E+02  0.43400727055E+02  0.00000000000E+00 0.  1.
         11    1    3    3    0    0  0.20235746483E+01  0.25950665447E+02  0.18745970940E+02  0.32077146354E+02  0.51100000000E-03 0. -1.
        -11    1    3    3    0    0 -0.26208072763E+01  0.84359846793E+01  0.45335151856E+01  0.99291101559E+01  0.51100000000E-03 0.  1.
        -12    1    3    3    0    0  0.39782708034E+01 -0.88255168086E+00  0.41005627625E+01  0.57810164352E+01  0.00000000000E+00 0.  1.
</event>
<event>
 7    1  0.2294216E-010  0.4778727E+02  0.7816164E-02  0.1312668E+00
        -11   -1    0    0    0    0  0.00000000000E+00  0.00000000000E+00  0.45593999997E+02  0.45594000000E+02  0.51100000000E-03 0.  1.
         11   -1    0    0    0    0 -0.00000000000E+00 -0.00000000000E+00 -0.45593999997E+02  0.45594000000E+02  0.51100000000E-03 0. -1.
    9900012    2    1    2    0    0 -0.27473950961E+02 -0.87042028857E+01 -0.32450609505E+02  0.47787272051E+02  0.20000004589E+02 0.  0.
        -12    1    1    2    0    0  0.27473950961E+02  0.87042028857E+01  0.32450609505E+02  0.43400727949E+02  0.00000000000E+00 0.  1.
         11    1    3    3    0    0 -0.33522900441E+01 -0.31429238135E+01  0.99670826075E+00  0.47020470282E+01  0.51100000000E-03 0.  1.
        -11    1    3    3    0    0 -0.33812221472E+01 -0.41032622793E+01 -0.12439599309E+02  0.13528231805E+02  0.51100000000E-03 0. -1.
         12    1    3    3    0    0 -0.20740438770E+02 -0.14580167930E+01 -0.21007718456E+02  0.29556993217E+02  0.00000000000E+00 0. -1.
</event>
<event>
 7    1  0.2294216E-010  0.4778727E+02  0.7816164E-02  0.1312668E+00
        -11   -1    0    0    0    0  0.00000000000E+00  0.00000000000E+00  0.45593999997E+02  0.45594000000E+02  0.51100000000E-03 0. -1.
         11   -1    0    0    0    0 -0.00000000000E+00 -0.00000000000E+00 -0.45593999997E+02  0.45594000000E+02  0.51100000000E-03 0.  1.
    9900012    2    1    2    0    0  0.39521952827E+02  0.12502906079E+02 -0.12857516537E+02  0.47787272504E+02  0.20000006656E+02 0.  0.
        -12    1    1    2    0    0 -0.39521952827E+02 -0.12502906079E+02  0.12857516537E+02  0.43400727496E+02  0.00000000000E+00 0.  1.
         11    1    3    3    0    0  0.20228109013E+02  0.80490573134E+01 -0.82890696030E+01  0.23295329854E+02  0.51100000000E-03 0. -1.
        -11    1    3    3    0    0  0.78228352530E+01 -0.86127139242E+00 -0.81723482466E+01  0.11345739990E+02  0.51100000000E-03 0.  1.
        -12    1    3    3    0    0  0.11471008561E+02  0.53151201585E+01  0.36039013122E+01  0.13146202660E+02  0.00000000000E+00 0.  1.
</event>
<event>
 7    1  0.2294216E-010  0.4778727E+02  0.7816164E-02  0.1312668E+00
        -11   -1    0    0    0    0  0.00000000000E+00  0.00000000000E+00  0.45593999997E+02  0.45594000000E+02  0.51100000000E-03 0. -1.
         11   -1    0    0    0    0 -0.00000000000E+00 -0.00000000000E+00 -0.45593999997E+02  0.45594000000E+02  0.51100000000E-03 0.  1.
    9900012    2    1    2    0    0 -0.24294371105E+02 -0.17915331978E+01  0.35919318395E+02  0.47787268526E+02  0.19999988516E+02 0.  0.
        -12    1    1    2    0    0  0.24294371105E+02  0.17915331978E+01 -0.35919318395E+02  0.43400731474E+02  0.00000000000E+00 0.  1.
         11    1    3    3    0    0 -0.11384221855E+02 -0.39500586088E+01  0.16448975433E+02  0.20390494436E+02  0.51100000000E-03 0. -1.
        -11    1    3    3    0    0 -0.56957970832E+01  0.33682329561E+01  0.18939809212E+02  0.20062489150E+02  0.51100000000E-03 0.  1.
        -12    1    3    3    0    0 -0.72143521661E+01 -0.12097075450E+01  0.53053374971E+00  0.73342849399E+01  0.00000000000E+00 0.  1.
</event>
<event>
 7    1  0.2294216E-010  0.4778727E+02  0.7816164E-02  0.1312668E+00
        -11   -1    0    0    0    0  0.00000000000E+00  0.00000000000E+00  0.45593999997E+02  0.45594000000E+02  0.51100000000E-03 0.  1.
         11   -1    0    0    0    0 -0.00000000000E+00 -0.00000000000E+00 -0.45593999997E+02  0.45594000000E+02  0.51100000000E-03 0. -1.
    9900012    2    1    2    0    0  0.39946860569E+02 -0.87209587069E+01 -0.14553907520E+02  0.47787274036E+02  0.20000013641E+02 0.  0.
        -12    1    1    2    0    0 -0.39946860569E+02  0.87209587069E+01  0.14553907520E+02  0.43400725964E+02  0.00000000000E+00 0.  1.
         11    1    3    3    0    0  0.18112134174E+02  0.80199582277E+00 -0.98393173379E+01  0.20627766907E+02  0.51100000000E-03 0. -1.
        -11    1    3    3    0    0  0.21044451946E+02 -0.43185538611E+01 -0.37533759182E+01  0.21808408842E+02  0.51100000000E-03 0.  1.
        -12    1    3    3    0    0  0.79027444912E+00 -0.52044006686E+01 -0.96121426362E+00  0.53510982877E+01  0.00000000000E+00 0.  1.
</event>
<event>
 7    1  0.2294216E-010  0.4778727E+02  0.7816164E-02  0.1312668E+00
        -11   -1    0    0    0    0  0.00000000000E+00  0.00000000000E+00  0.45593999997E+02  0.45594000000E+02  0.51100000000E-03 0.  1.
         11   -1    0    0    0    0 -0.00000000000E+00 -0.00000000000E+00 -0.45593999997E+02  0.45594000000E+02  0.51100000000E-03 0. -1.
    9900012    2    1    2    0    0  0.42612700143E+02 -0.68685674901E+01 -0.45391615650E+01  0.47787269354E+02  0.19999992294E+02 0.  0.
        -12    1    1    2    0    0 -0.42612700143E+02  0.68685674901E+01  0.45391615650E+01  0.43400730646E+02  0.00000000000E+00 0.  1.
         11    1    3    3    0    0  0.20659688383E+02 -0.35961492597E+01 -0.74726822023E+01  0.22261985381E+02  0.51100000000E-03 0. -1.
        -11    1    3    3    0    0  0.28885018874E+01  0.23806435987E+01 -0.29746428806E+01  0.47811512867E+01  0.51100000000E-03 0.  1.
        -12    1    3    3    0    0  0.19064509873E+02 -0.56530618291E+01  0.59081635180E+01  0.20744132686E+02  0.00000000000E+00 0.  1.
</event>
<event>
 7    1  0.2294216E-010  0.4778727E+02  0.7816164E-02  0.1312668E+00
        -11   -1    0    0    0    0  0.00000000000E+00  0.00000000000E+00  0.45593999997E+02  0.45594000000E+02  0.51100000000E-03 0. -1.
         11   -1    0    0    0    0 -0.00000000000E+00 -0.00000000000E+00 -0.45593999997E+02  0.45594000000E+02  0.51100000000E-03 0.  1.
    9900012    2    1    2    0    0  0.21123406141E+02  0.19130057093E+01  0.37865094597E+02  0.47787271128E+02  0.20000000381E+02 0.  0.
        -12    1    1    2    0    0 -0.21123406141E+02 -0.19130057093E+01 -0.37865094597E+02  0.43400728872E+02  0.00000000000E+00 0.  1.
         11    1    3    3    0    0 -0.29951335575E+01 -0.41580629324E+00  0.35161267691E+01  0.46375497430E+01  0.51100000000E-03 0. -1.
        -11    1    3    3    0    0  0.84201810062E+01 -0.37733757128E+01  0.13404167133E+02  0.16272968667E+02  0.51100000000E-03 0.  1.
        -12    1    3    3    0    0  0.15698358692E+02  0.61021877153E+01  0.20944800695E+02  0.26876752718E+02  0.00000000000E+00 0.  1.
</event>
<event>
 7    1  0.2294216E-010  0.4778727E+02  0.7816164E-02  0.1312668E+00
        -11   -1    0    0    0    0  0.00000000000E+00  0.00000000000E+00  0.45593999997E+02  0.45594000000E+02  0.51100000000E-03 0. -1.
         11   -1    0    0    0    0 -0.00000000000E+00 -0.00000000000E+00 -0.45593999997E+02  0.45594000000E+02  0.51100000000E-03 0.  1.
    9900012    2    1    2    0    0 -0.11233409825E+02  0.34332196974E+02 -0.24056892960E+02  0.47787270234E+02  0.19999996305E+02 0.  0.
        -12    1    1    2    0    0  0.11233409825E+02 -0.34332196974E+02  0.24056892960E+02  0.43400729766E+02  0.00000000000E+00 0.  1.
         11    1    3    3    0    0 -0.23023792898E+01  0.76975655795E+01  0.20776677044E+01  0.82988053114E+01  0.51100000000E-03 0. -1.
        -11    1    3    3    0    0 -0.60398417793E+01  0.67389333153E+01 -0.11437835002E+02  0.14584820217E+02  0.51100000000E-03 0.  1.
        -12    1    3    3    0    0 -0.28911887554E+01  0.19895698079E+02 -0.14696725662E+02  0.24903644706E+02  0.00000000000E+00 0.  1.
</event>
<event>
 7    1  0.2294216E-010  0.4778728E+02  0.7816164E-02  0.1312668E+00
        -11   -1    0    0    0    0  0.00000000000E+00  0.00000000000E+00  0.45593999997E+02  0.45594000000E+02  0.51100000000E-03 0. -1.
         11   -1    0    0    0    0 -0.00000000000E+00 -0.00000000000E+00 -0.45593999997E+02  0.45594000000E+02  0.51100000000E-03 0.  1.
    9900012    2    1    2    0    0 -0.34196040425E+02  0.23960244436E+02  0.11838935812E+02  0.47787275405E+02  0.20000019883E+02 0.  0.
        -12    1    1    2    0    0  0.34196040425E+02 -0.23960244436E+02 -0.11838935812E+02  0.43400724595E+02  0.00000000000E+00 0.  1.
         11    1    3    3    0    0 -0.17741745109E+02  0.13117807809E+02  0.15080202403E+02  0.26725622649E+02  0.51100000000E-03 0.  1.
        -11    1    3    3    0    0 -0.91718844815E+01  0.79975531532E+01  0.92207079198E+00  0.12203873819E+02  0.51100000000E-03 0. -1.
        -12    1    3    3    0    0 -0.72824108347E+01  0.28448834745E+01 -0.41633373825E+01  0.88577789377E+01  0.00000000000E+00 0.  1.
</event>
<event>
 7    1  0.2294216E-010  0.4778727E+02  0.7816164E-02  0.1312668E+00
        -11   -1    0    0    0    0  0.00000000000E+00  0.00000000000E+00  0.45593999997E+02  0.45594000000E+02  0.51100000000E-03 0.  1.
         11   -1    0    0    0    0 -0.00000000000E+00 -0.00000000000E+00 -0.45593999997E+02  0.45594000000E+02  0.51100000000E-03 0. -1.
    9900012    2    1    2    0    0  0.34818288524E+02  0.25784070677E+02  0.25478855915E+01  0.47787271465E+02  0.20000001916E+02 0.  0.
        -12    1    1    2    0    0 -0.34818288524E+02 -0.25784070677E+02 -0.25478855915E+01  0.43400728535E+02  0.00000000000E+00 0.  1.
         11    1    3    3    0    0  0.18168950371E+02  0.21014994076E+02  0.38363710377E+01  0.28043867005E+02  0.51100000000E-03 0. -1.
        -11    1    3    3    0    0  0.59211747884E+01  0.29797239582E+01 -0.49438000101E+01  0.82692336128E+01  0.51100000000E-03 0.  1.
        -12    1    3    3    0    0  0.10728163364E+02  0.17893526424E+01  0.36553145639E+01  0.11474170847E+02  0.00000000000E+00 0.  1.
</event>
<event>
 7    1  0.2294216E-010  0.4778728E+02  0.7816164E-02  0.1312668E+00
        -11   -1    0    0    0    0  0.00000000000E+00  0.00000000000E+00  0.45593999997E+02  0.45594000000E+02  0.51100000000E-03 0. -1.
         11   -1    0    0    0    0 -0.00000000000E+00 -0.00000000000E+00 -0.45593999997E+02  0.45594000000E+02  0.51100000000E-03 0.  1.
    9900012    2    1    2    0    0 -0.11822936733E+02  0.28899150425E+02  0.30144322387E+02  0.47787275346E+02  0.20000019614E+02 0.  0.
        -12    1    1    2    0    0  0.11822936733E+02 -0.28899150425E+02 -0.30144322387E+02  0.43400724654E+02  0.00000000000E+00 0.  1.
         11    1    3    3    0    0 -0.16061957940E+01  0.19984681461E+02  0.82506396998E+01  0.21680415442E+02  0.51100000000E-03 0. -1.
        -11    1    3    3    0    0 -0.22808986727E+01  0.44349303112E+01  0.61719174023E+01  0.79349650473E+01  0.51100000000E-03 0.  1.
        -12    1    3    3    0    0 -0.79358422660E+01  0.44795386534E+01  0.15721765285E+02  0.18171894857E+02  0.00000000000E+00 0.  1.
</event>
<event>
 7    1  0.2294216E-010  0.4778727E+02  0.7816164E-02  0.1312668E+00
        -11   -1    0    0    0    0  0.00000000000E+00  0.00000000000E+00  0.45593999997E+02  0.45594000000E+02  0.51100000000E-03 0.  1.
         11   -1    0    0    0    0 -0.00000000000E+00 -0.00000000000E+00 -0.45593999997E+02  0.45594000000E+02  0.51100000000E-03 0. -1.
    9900012    2    1    2    0    0 -0.38000081310E+02 -0.51332597081E+01 -0.20328958941E+02  0.47787272973E+02  0.20000008795E+02 0.  0.
        -12    1    1    2    0    0  0.38000081310E+02  0.51332597081E+01  0.20328958941E+02  0.43400727027E+02  0.00000000000E+00 0.  1.
         11    1    3    3    0    0 -0.44513098305E+00 -0.21270851117E+00  0.18980421390E+01  0.19611095649E+01  0.51100000000E-03 0. -1.
        -11    1    3    3    0    0 -0.78724969886E+00  0.14498635582E+01 -0.39383044747E+01  0.42699073552E+01  0.51100000000E-03 0.  1.
         12    1    3    3    0    0 -0.36767700628E+02 -0.63704147551E+01 -0.18288696605E+02  0.41556256053E+02  0.00000000000E+00 0. -1.
</event>
<event>
 7    1  0.2294216E-010  0.4778727E+02  0.7816164E-02  0.1312668E+00
        -11   -1    0    0    0    0  0.00000000000E+00  0.00000000000E+00  0.45593999997E+02  0.45594000000E+02  0.51100000000E-03 0.  1.
         11   -1    0    0    0    0 -0.00000000000E+00 -0.00000000000E+00 -0.45593999997E+02  0.45594000000E+02  0.51100000000E-03 0. -1.
    9900012    2    1    2    0    0  0.32058781132E+02  0.29251170951E+02 -0.47625915961E+00  0.47787271061E+02  0.20000000076E+02 0.  0.
        -12    1    1    2    0    0 -0.32058781132E+02 -0.29251170951E+02  0.47625915961E+00  0.43400728939E+02  0.00000000000E+00 0.  1.
         11    1    3    3    0    0  0.31378388541E+01  0.11021265432E+01  0.44575119166E+01  0.55614861629E+01  0.51100000000E-03 0. -1.
        -11    1    3    3    0    0  0.64447617661E+01  0.12160479338E+01 -0.26451008376E+01  0.70717950692E+01  0.51100000000E-03 0.  1.
         12    1    3    3    0    0  0.22476180512E+02  0.26932996474E+02 -0.22886702387E+01  0.35153989829E+02  0.00000000000E+00 0. -1.
</event>
<event>
 7    1  0.2294216E-010  0.4778727E+02  0.7816164E-02  0.1312668E+00
        -11   -1    0    0    0    0  0.00000000000E+00  0.00000000000E+00  0.45593999997E+02  0.45594000000E+02  0.51100000000E-03 0.  1.
         11   -1    0    0    0    0 -0.00000000000E+00 -0.00000000000E+00 -0.45593999997E+02  0.45594000000E+02  0.51100000000E-03 0. -1.
    9900012    2    1    2    0    0 -0.18485778396E+02  0.62572173695E+01 -0.38765270207E+02  0.47787274818E+02  0.20000017205E+02 0.  0.
        -12    1    1    2    0    0  0.18485778396E+02 -0.62572173695E+01  0.38765270207E+02  0.43400725182E+02  0.00000000000E+00 0.  1.
         11    1    3    3    0    0 -0.16078690461E+02  0.39850672677E+01 -0.17472899068E+02  0.24077110503E+02  0.51100000000E-03 0. -1.
        -11    1    3    3    0    0 -0.53392118535E+01  0.12080900933E+01 -0.19172692035E+02  0.19938876222E+02  0.51100000000E-03 0.  1.
        -12    1    3    3    0    0  0.29321239183E+01  0.10640600084E+01 -0.21196791041E+01  0.37712880927E+01  0.00000000000E+00 0.  1.
</event>
<event>
 7    1  0.2294216E-010  0.4778727E+02  0.7816164E-02  0.1312668E+00
        -11   -1    0    0    0    0  0.00000000000E+00  0.00000000000E+00  0.45593999997E+02  0.45594000000E+02  0.51100000000E-03 0.  1.
         11   -1    0    0    0    0 -0.00000000000E+00 -0.00000000000E+00 -0.45593999997E+02  0.45594000000E+02  0.51100000000E-03 0. -1.
    9900012    2    1    2    0    0  0.37908825804E+02  0.16017897414E+02 -0.13783008054E+02  0.47787269333E+02  0.19999992196E+02 0.  0.
        -12    1    1    2    0    0 -0.37908825804E+02 -0.16017897414E+02  0.13783008054E+02  0.43400730667E+02  0.00000000000E+00 0.  1.
         11    1    3    3    0    0  0.23556072826E+02  0.13028045468E+02 -0.29497580058E+01  0.27079874598E+02  0.51100000000E-03 0. -1.
        -11    1    3    3    0    0  0.10693521106E+02  0.15395050275E+01 -0.19326473154E+01  0.10975271992E+02  0.51100000000E-03 0.  1.
        -12    1    3    3    0    0  0.36592318717E+01  0.14503469182E+01 -0.89006027330E+01  0.97321227430E+01  0.00000000000E+00 0.  1.
</event>
<event>
 7    1  0.2294216E-010  0.4778728E+02  0.7816164E-02  0.1312668E+00
        -11   -1    0    0    0    0  0.00000000000E+00  0.00000000000E+00  0.45593999997E+02  0.45594000000E+02  0.51100000000E-03 0.  1.
         11   -1    0    0    0    0 -0.00000000000E+00 -0.00000000000E+00 -0.45593999997E+02  0.45594000000E+02  0.51100000000E-03 0. -1.
    9900012    2    1    2    0    0 -0.29792403640E+02  0.65397650211E+01 -0.30875021339E+02  0.47787276690E+02  0.20000025740E+02 0.  0.
        -12    1    1    2    0    0  0.29792403640E+02 -0.65397650211E+01  0.30875021339E+02  0.43400723310E+02  0.00000000000E+00 0.  1.
         11    1    3    3    0    0 -0.24705954382E+01 -0.35431327441E+01 -0.50140882485E+01  0.66180595862E+01  0.51100000000E-03 0. -1.
        -11    1    3    3    0    0 -0.12361196031E+02  0.18614513232E+01 -0.33949034434E+01  0.12953360104E+02  0.51100000000E-03 0.  1.
        -12    1    3    3    0    0 -0.14960612170E+02  0.82214464419E+01 -0.22466029647E+02  0.28215856999E+02  0.00000000000E+00 0.  1.
</event>
<event>
 7    1  0.2294216E-010  0.4778726E+02  0.7816164E-02  0.1312668E+00
        -11   -1    0    0    0    0  0.00000000000E+00  0.00000000000E+00  0.45593999997E+02  0.45594000000E+02  0.51100000000E-03 0.  1.
         11   -1    0    0    0    0 -0.00000000000E+00 -0.00000000000E+00 -0.45593999997E+02  0.45594000000E+02  0.51100000000E-03 0. -1.
    9900012    2    1    2    0    0  0.90722209657E+01 -0.38450198978E+02 -0.17969453750E+02  0.47787259652E+02  0.19999948057E+02 0.  0.
        -12    1    1    2    0    0 -0.90722209657E+01  0.38450198978E+02  0.17969453750E+02  0.43400740348E+02  0.00000000000E+00 0.  1.
         11    1    3    3    0    0  0.11768465142E+02 -0.32858598723E+02 -0.78878336900E+01  0.35782708148E+02  0.51100000000E-03 0. -1.
        -11    1    3    3    0    0 -0.14911768787E+01 -0.43460587591E+01 -0.59005380797E+01  0.74785149002E+01  0.51100000000E-03 0.  1.
        -12    1    3    3    0    0 -0.12050672975E+01 -0.12455414957E+01 -0.41810819804E+01  0.45260366034E+01  0.00000000000E+00 0.  1.
</event>
<event>
 7    1  0.2294216E-010  0.4778727E+02  0.7816164E-02  0.1312668E+00
        -11   -1    0    0    0    0  0.00000000000E+00  0.00000000000E+00  0.45593999997E+02  0.45594000000E+02  0.51100000000E-03 0.  1.
         11   -1    0    0    0    0 -0.00000000000E+00 -0.00000000000E+00 -0.45593999997E+02  0.45594000000E+02  0.51100000000E-03 0. -1.
    9900012    2    1    2    0    0  0.32069652311E+02 -0.19270195932E+02 -0.21995910963E+02  0.47787272475E+02  0.20000006522E+02 0.  0.
        -12    1    1    2    0    0 -0.32069652311E+02  0.19270195932E+02  0.21995910963E+02  0.43400727525E+02  0.00000000000E+00 0.  1.
         11    1    3    3    0    0 -0.10526670017E+00 -0.15376787094E+01 -0.12386971771E+01  0.19773486918E+01  0.51100000000E-03 0. -1.
        -11    1    3    3    0    0  0.24886506371E+02 -0.48145822305E+01 -0.16962766574E+02  0.30500063139E+02  0.51100000000E-03 0.  1.
        -12    1    3    3    0    0  0.72884126404E+01 -0.12917934993E+02 -0.37944472116E+01  0.15309860644E+02  0.00000000000E+00 0.  1.
</event>
<event>
 7    1  0.2294216E-010  0.4778727E+02  0.7816164E-02  0.1312668E+00
        -11   -1    0    0    0    0  0.00000000000E+00  0.00000000000E+00  0.45593999997E+02  0.45594000000E+02  0.51100000000E-03 0.  1.
         11   -1    0    0    0    0 -0.00000000000E+00 -0.00000000000E+00 -0.45593999997E+02  0.45594000000E+02  0.51100000000E-03 0. -1.
    9900012    2    1    2    0    0 -0.10473603500E+02 -0.15436355183E+02 -0.39187322590E+02  0.47787266326E+02  0.19999978489E+02 0.  0.
        -12    1    1    2    0    0  0.10473603500E+02  0.15436355183E+02  0.39187322590E+02  0.43400733674E+02  0.00000000000E+00 0.  1.
         11    1    3    3    0    0 -0.90873362230E+01 -0.73691846668E+01 -0.12553632242E+02  0.17160368440E+02  0.51100000000E-03 0. -1.
        -11    1    3    3    0    0 -0.62627806416E+01 -0.67856944300E+01 -0.21652229589E+02  0.23539055136E+02  0.51100000000E-03 0.  1.
        -12    1    3    3    0    0  0.48765133645E+01 -0.12814760860E+01 -0.49814607599E+01  0.70878427505E+01  0.00000000000E+00 0.  1.
</event>
<event>
 7    1  0.2294216E-010  0.4778726E+02  0.7816164E-02  0.1312668E+00
        -11   -1    0    0    0    0  0.00000000000E+00  0.00000000000E+00  0.45593999997E+02  0.45594000000E+02  0.51100000000E-03 0. -1.
         11   -1    0    0    0    0 -0.00000000000E+00 -0.00000000000E+00 -0.45593999997E+02  0.45594000000E+02  0.51100000000E-03 0.  1.
    9900012    2    1    2    0    0 -0.44748449364E+01 -0.42477335609E+02 -0.76990988920E+01  0.47787258055E+02  0.19999940775E+02 0.  0.
        -12    1    1    2    0    0  0.44748449364E+01  0.42477335609E+02  0.76990988920E+01  0.43400741945E+02  0.00000000000E+00 0.  1.
         11    1    3    3    0    0 -0.44687778272E+01 -0.29607921662E+02 -0.59678840168E+01  0.30532190231E+02  0.51100000000E-03 0. -1.
        -11    1    3    3    0    0  0.14391436703E+01 -0.94298125978E+01 -0.62431454615E+01  0.11400410767E+02  0.51100000000E-03 0.  1.
        -12    1    3    3    0    0 -0.14452107795E+01 -0.34396013495E+01  0.45119305864E+01  0.58546570571E+01  0.00000000000E+00 0.  1.
</event>
<event>
 7    1  0.2294216E-010  0.4778727E+02  0.7816164E-02  0.1312668E+00
        -11   -1    0    0    0    0  0.00000000000E+00  0.00000000000E+00  0.45593999997E+02  0.45594000000E+02  0.51100000000E-03 0. -1.
         11   -1    0    0    0    0 -0.00000000000E+00 -0.00000000000E+00 -0.45593999997E+02  0.45594000000E+02  0.51100000000E-03 0.  1.
    9900012    2    1    2    0    0 -0.37951446065E+02 -0.14446596111E+02 -0.15316872836E+02  0.47787274302E+02  0.20000014852E+02 0.  0.
        -12    1    1    2    0    0  0.37951446065E+02  0.14446596111E+02  0.15316872836E+02  0.43400725698E+02  0.00000000000E+00 0.  1.
         11    1    3    3    0    0 -0.48159247563E+01 -0.14600449050E+01 -0.50243550067E+01  0.71111887809E+01  0.51100000000E-03 0. -1.
        -11    1    3    3    0    0 -0.33015858180E+02 -0.15659329157E+02 -0.87003412349E+01  0.37562713146E+02  0.51100000000E-03 0.  1.
        -12    1    3    3    0    0 -0.11966312896E+00  0.26727779507E+01 -0.15921765947E+01  0.31133723752E+01  0.00000000000E+00 0.  1.
</event>
<event>
 7    1  0.2294216E-010  0.4778727E+02  0.7816164E-02  0.1312668E+00
        -11   -1    0    0    0    0  0.00000000000E+00  0.00000000000E+00  0.45593999997E+02  0.45594000000E+02  0.51100000000E-03 0. -1.
         11   -1    0    0    0    0 -0.00000000000E+00 -0.00000000000E+00 -0.45593999997E+02  0.45594000000E+02  0.51100000000E-03 0.  1.
    9900012    2    1    2    0    0 -0.36221076907E+02  0.12514161321E+02  0.20372837655E+02  0.47787272357E+02  0.20000005982E+02 0.  0.
        -12    1    1    2    0    0  0.36221076907E+02 -0.12514161321E+02 -0.20372837655E+02  0.43400727643E+02  0.00000000000E+00 0.  1.
         11    1    3    3    0    0 -0.13025561012E+02  0.18591788645E+01  0.45631447391E+01  0.13926380574E+02  0.51100000000E-03 0.  1.
        -11    1    3    3    0    0 -0.11170312732E+02 -0.28068806376E+01  0.88093387285E+01  0.14500307395E+02  0.51100000000E-03 0. -1.
        -12    1    3    3    0    0 -0.12025203163E+02  0.13461863094E+02  0.70003541874E+01  0.19360584387E+02  0.00000000000E+00 0.  1.
</event>
<event>
 7    1  0.2294216E-010  0.4778727E+02  0.7816164E-02  0.1312668E+00
        -11   -1    0    0    0    0  0.00000000000E+00  0.00000000000E+00  0.45593999997E+02  0.45594000000E+02  0.51100000000E-03 0.  1.
         11   -1    0    0    0    0 -0.00000000000E+00 -0.00000000000E+00 -0.45593999997E+02  0.45594000000E+02  0.51100000000E-03 0. -1.
    9900012    2    1    2    0    0 -0.37078027828E+02 -0.16248714885E+02 -0.15646802545E+02  0.47787270595E+02  0.19999997951E+02 0.  0.
        -12    1    1    2    0    0  0.37078027828E+02  0.16248714885E+02  0.15646802545E+02  0.43400729405E+02  0.00000000000E+00 0.  1.
         11    1    3    3    0    0 -0.28892783139E+01 -0.76191599557E+01 -0.48858489789E+01  0.95011077308E+01  0.51100000000E-03 0. -1.
        -11    1    3    3    0    0 -0.10258982317E+01 -0.25467098654E+01 -0.21516436976E+01  0.34882329600E+01  0.51100000000E-03 0.  1.
         12    1    3    3    0    0 -0.33162851282E+02 -0.60828450638E+01 -0.86093098685E+01  0.34797929904E+02  0.00000000000E+00 0. -1.
</event>
<event>
 7    1  0.2294216E-010  0.4778727E+02  0.7816164E-02  0.1312668E+00
        -11   -1    0    0    0    0  0.00000000000E+00  0.00000000000E+00  0.45593999997E+02  0.45594000000E+02  0.51100000000E-03 0.  1.
         11   -1    0    0    0    0 -0.00000000000E+00 -0.00000000000E+00 -0.45593999997E+02  0.45594000000E+02  0.51100000000E-03 0. -1.
    9900012    2    1    2    0    0  0.23235357894E+02 -0.13118294286E+01 -0.36633600456E+02  0.47787269185E+02  0.19999991521E+02 0.  0.
        -12    1    1    2    0    0 -0.23235357894E+02  0.13118294286E+01  0.36633600456E+02  0.43400730815E+02  0.00000000000E+00 0.  1.
         11    1    3    3    0    0  0.82272464217E+01 -0.17627289851E+01 -0.22056291983E+02  0.23606668834E+02  0.51100000000E-03 0. -1.
        -11    1    3    3    0    0  0.29951243768E+01 -0.51132431191E+01 -0.32590189682E+01  0.67629305869E+01  0.51100000000E-03 0.  1.
         12    1    3    3    0    0  0.12012987095E+02  0.55641426756E+01 -0.11318289506E+02  0.17417669764E+02  0.00000000000E+00 0. -1.
</event>
<event>
 7    1  0.2294216E-010  0.4778727E+02  0.7816164E-02  0.1312668E+00
        -11   -1    0    0    0    0  0.00000000000E+00  0.00000000000E+00  0.45593999997E+02  0.45594000000E+02  0.51100000000E-03 0.  1.
         11   -1    0    0    0    0 -0.00000000000E+00 -0.00000000000E+00 -0.45593999997E+02  0.45594000000E+02  0.51100000000E-03 0. -1.
    9900012    2    1    2    0    0 -0.36090383953E+02 -0.55835425749E+01 -0.23450618572E+02  0.47787271055E+02  0.20000000050E+02 0.  0.
        -12    1    1    2    0    0  0.36090383953E+02  0.55835425749E+01  0.23450618572E+02  0.43400728945E+02  0.00000000000E+00 0.  1.
         11    1    3    3    0    0 -0.24057127915E+01  0.20818459719E+01 -0.27545927527E+01  0.42082440733E+01  0.51100000000E-03 0. -1.
        -11    1    3    3    0    0 -0.47825184128E+01  0.43723414247E+01 -0.91345672764E+00  0.65440244007E+01  0.51100000000E-03 0.  1.
         12    1    3    3    0    0 -0.28902152748E+02 -0.12037729971E+02 -0.19782569091E+02  0.37035002581E+02  0.00000000000E+00 0. -1.
</event>
<event>
 7    1  0.2294216E-010  0.4778727E+02  0.7816164E-02  0.1312668E+00
        -11   -1    0    0    0    0  0.00000000000E+00  0.00000000000E+00  0.45593999997E+02  0.45594000000E+02  0.51100000000E-03 0.  1.
         11   -1    0    0    0    0 -0.00000000000E+00 -0.00000000000E+00 -0.45593999997E+02  0.45594000000E+02  0.51100000000E-03 0. -1.
    9900012    2    1    2    0    0 -0.34158886648E+02  0.21058702984E+02 -0.16532542396E+02  0.47787268826E+02  0.19999989883E+02 0.  0.
        -12    1    1    2    0    0  0.34158886648E+02 -0.21058702984E+02  0.16532542396E+02  0.43400731174E+02  0.00000000000E+00 0.  1.
         11    1    3    3    0    0 -0.63132458809E+01  0.28560320190E-01 -0.45359524454E+01  0.77738506606E+01  0.51100000000E-03 0. -1.
        -11    1    3    3    0    0 -0.17791968101E+02  0.53672126148E+01 -0.14968255205E+01  0.18644076460E+02  0.51100000000E-03 0.  1.
        -12    1    3    3    0    0 -0.10053672666E+02  0.15662930049E+02 -0.10499764430E+02  0.21369341704E+02  0.00000000000E+00 0.  1.
</event>
<event>
 7    1  0.2294216E-010  0.4778727E+02  0.7816164E-02  0.1312668E+00
        -11   -1    0    0    0    0  0.00000000000E+00  0.00000000000E+00  0.45593999997E+02  0.45594000000E+02  0.51100000000E-03 0.  1.
         11   -1    0    0    0    0 -0.00000000000E+00 -0.00000000000E+00 -0.45593999997E+02  0.45594000000E+02  0.51100000000E-03 0. -1.
    9900012    2    1    2    0    0 -0.36666829281E+02 -0.73411817063E+01 -0.22028936450E+02  0.47787270058E+02  0.19999995501E+02 0.  0.
        -12    1    1    2    0    0  0.36666829281E+02  0.73411817063E+01  0.22028936450E+02  0.43400729942E+02  0.00000000000E+00 0.  1.
         11    1    3    3    0    0 -0.59454594165E+01  0.78287388847E+00 -0.60071623901E+01  0.84880727755E+01  0.51100000000E-03 0. -1.
        -11    1    3    3    0    0 -0.18579810699E+01 -0.60937664959E+01 -0.32026027494E+00  0.63787656069E+01  0.51100000000E-03 0.  1.
        -12    1    3    3    0    0 -0.28863388795E+02 -0.20302890988E+01 -0.15701513785E+02  0.32920431675E+02  0.00000000000E+00 0.  1.
</event>
<event>
 7    1  0.2294216E-010  0.4778727E+02  0.7816164E-02  0.1312668E+00
        -11   -1    0    0    0    0  0.00000000000E+00  0.00000000000E+00  0.45593999997E+02  0.45594000000E+02  0.51100000000E-03 0.  1.
         11   -1    0    0    0    0 -0.00000000000E+00 -0.00000000000E+00 -0.45593999997E+02  0.45594000000E+02  0.51100000000E-03 0. -1.
    9900012    2    1    2    0    0 -0.10934079763E+02 -0.34230167342E+02 -0.24338548926E+02  0.47787269357E+02  0.19999992307E+02 0.  0.
        -12    1    1    2    0    0  0.10934079763E+02  0.34230167342E+02  0.24338548926E+02  0.43400730643E+02  0.00000000000E+00 0.  1.
         11    1    3    3    0    0 -0.69929946639E+01 -0.64602277722E+01 -0.15399476860E+01  0.96440632710E+01  0.51100000000E-03 0. -1.
        -11    1    3    3    0    0 -0.31983847439E+01 -0.17684051584E+02 -0.21382312861E+02  0.27931320215E+02  0.51100000000E-03 0.  1.
         12    1    3    3    0    0 -0.74270035498E+00 -0.10085887986E+02 -0.14162883787E+01  0.10211885871E+02  0.00000000000E+00 0. -1.
</event>
<event>
 7    1  0.2294216E-010  0.4778727E+02  0.7816164E-02  0.1312668E+00
        -11   -1    0    0    0    0  0.00000000000E+00  0.00000000000E+00  0.45593999997E+02  0.45594000000E+02  0.51100000000E-03 0.  1.
         11   -1    0    0    0    0 -0.00000000000E+00 -0.00000000000E+00 -0.45593999997E+02  0.45594000000E+02  0.51100000000E-03 0. -1.
    9900012    2    1    2    0    0  0.34608101545E+02 -0.26146109678E+02 -0.15111729395E+01  0.47787269736E+02  0.19999994032E+02 0.  0.
        -12    1    1    2    0    0 -0.34608101545E+02  0.26146109678E+02  0.15111729395E+01  0.43400730264E+02  0.00000000000E+00 0.  1.
         11    1    3    3    0    0  0.15241321945E+02 -0.11200746680E+02 -0.18181007304E+01  0.19001581812E+02  0.51100000000E-03 0. -1.
        -11    1    3    3    0    0  0.12617679336E+02 -0.33479043032E+01  0.58022727297E+01  0.14285680388E+02  0.51100000000E-03 0.  1.
        -12    1    3    3    0    0  0.67491002638E+01 -0.11597458695E+02 -0.54953449388E+01  0.14500007536E+02  0.00000000000E+00 0.  1.
</event>
<event>
 7    1  0.2294216E-010  0.4778727E+02  0.7816164E-02  0.1312668E+00
        -11   -1    0    0    0    0  0.00000000000E+00  0.00000000000E+00  0.45593999997E+02  0.45594000000E+02  0.51100000000E-03 0.  1.
         11   -1    0    0    0    0 -0.00000000000E+00 -0.00000000000E+00 -0.45593999997E+02  0.45594000000E+02  0.51100000000E-03 0. -1.
    9900012    2    1    2    0    0  0.24682027635E+02  0.30228023180E+02 -0.18991773992E+02  0.47787270134E+02  0.19999995848E+02 0.  0.
        -12    1    1    2    0    0 -0.24682027635E+02 -0.30228023180E+02  0.18991773992E+02  0.43400729866E+02  0.00000000000E+00 0.  1.
         11    1    3    3    0    0 -0.65940372423E+00 -0.10082946306E+01 -0.15989051350E+01  0.20019913151E+01  0.51100000000E-03 0. -1.
        -11    1    3    3    0    0  0.37029898593E+01  0.11896054790E+02 -0.96193173002E+01  0.15740378618E+02  0.51100000000E-03 0.  1.
         12    1    3    3    0    0  0.21638441500E+02  0.19340263022E+02 -0.77735515565E+01  0.30044900201E+02  0.00000000000E+00 0. -1.
</event>
<event>
 7    1  0.2294216E-010  0.4778727E+02  0.7816164E-02  0.1312668E+00
        -11   -1    0    0    0    0  0.00000000000E+00  0.00000000000E+00  0.45593999997E+02  0.45594000000E+02  0.51100000000E-03 0.  1.
         11   -1    0    0    0    0 -0.00000000000E+00 -0.00000000000E+00 -0.45593999997E+02  0.45594000000E+02  0.51100000000E-03 0. -1.
    9900012    2    1    2    0    0  0.13238192089E+02  0.35289881698E+02 -0.21517382318E+02  0.47787271643E+02  0.20000002731E+02 0.  0.
        -12    1    1    2    0    0 -0.13238192089E+02 -0.35289881698E+02  0.21517382318E+02  0.43400728357E+02  0.00000000000E+00 0.  1.
         11    1    3    3    0    0  0.10860751605E+02  0.14603110464E+02 -0.81516526940E+01  0.19941318977E+02  0.51100000000E-03 0. -1.
        -11    1    3    3    0    0  0.33592317508E+01  0.20760591447E+02 -0.81765358397E+01  0.22564182542E+02  0.51100000000E-03 0.  1.
        -12    1    3    3    0    0 -0.98179126630E+00 -0.73820213091E-01 -0.51891937843E+01  0.52817701242E+01  0.00000000000E+00 0.  1.
</event>
<event>
 7    1  0.2294216E-010  0.4778727E+02  0.7816164E-02  0.1312668E+00
        -11   -1    0    0    0    0  0.00000000000E+00  0.00000000000E+00  0.45593999997E+02  0.45594000000E+02  0.51100000000E-03 0.  1.
         11   -1    0    0    0    0 -0.00000000000E+00 -0.00000000000E+00 -0.45593999997E+02  0.45594000000E+02  0.51100000000E-03 0. -1.
    9900012    2    1    2    0    0  0.14745545272E+02 -0.60775825660E+01 -0.40364029346E+02  0.47787274427E+02  0.20000015423E+02 0.  0.
        -12    1    1    2    0    0 -0.14745545272E+02  0.60775825660E+01  0.40364029346E+02  0.43400725573E+02  0.00000000000E+00 0.  1.
         11    1    3    3    0    0  0.40740407063E+01 -0.68489729434E+01 -0.71053580362E+01  0.10676720055E+02  0.51100000000E-03 0. -1.
        -11    1    3    3    0    0  0.77122275607E+01  0.49315357919E+00 -0.62505483262E+01  0.99393666318E+01  0.51100000000E-03 0.  1.
         12    1    3    3    0    0  0.29592770052E+01  0.27823679813E+00 -0.27008122983E+02  0.27171187740E+02  0.00000000000E+00 0. -1.
</event>
<event>
 7    1  0.2294216E-010  0.4778727E+02  0.7816164E-02  0.1312668E+00
        -11   -1    0    0    0    0  0.00000000000E+00  0.00000000000E+00  0.45593999997E+02  0.45594000000E+02  0.51100000000E-03 0. -1.
         11   -1    0    0    0    0 -0.00000000000E+00 -0.00000000000E+00 -0.45593999997E+02  0.45594000000E+02  0.51100000000E-03 0.  1.
    9900012    2    1    2    0    0  0.15476864301E+02 -0.37586846412E+02  0.15209174065E+02  0.47787270426E+02  0.19999997180E+02 0.  0.
        -12    1    1    2    0    0 -0.15476864301E+02  0.37586846412E+02 -0.15209174065E+02  0.43400729574E+02  0.00000000000E+00 0.  1.
         11    1    3    3    0    0  0.62908741803E+01 -0.30137077537E+01  0.57828313026E+01  0.90608316678E+01  0.51100000000E-03 0. -1.
        -11    1    3    3    0    0 -0.17276231317E+01 -0.71961917870E+01  0.49815070774E+01  0.89210577256E+01  0.51100000000E-03 0.  1.
         12    1    3    3    0    0  0.10913613252E+02 -0.27376946872E+02  0.44448356853E+01  0.29805381033E+02  0.00000000000E+00 0. -1.
</event>
<event>
 7    1  0.2294216E-010  0.4778727E+02  0.7816164E-02  0.1312668E+00
        -11   -1    0    0    0    0  0.00000000000E+00  0.00000000000E+00  0.45593999997E+02  0.45594000000E+02  0.51100000000E-03 0.  1.
         11   -1    0    0    0    0 -0.00000000000E+00 -0.00000000000E+00 -0.45593999997E+02  0.45594000000E+02  0.51100000000E-03 0. -1.
    9900012    2    1    2    0    0  0.16643295940E+02  0.26494555408E+02 -0.30077605248E+02  0.47787273008E+02  0.20000008953E+02 0.  0.
        -12    1    1    2    0    0 -0.16643295940E+02 -0.26494555408E+02  0.30077605248E+02  0.43400726992E+02  0.00000000000E+00 0.  1.
         11    1    3    3    0    0  0.24277463509E+01  0.13511450474E+02 -0.18650497509E+02  0.23158028928E+02  0.51100000000E-03 0. -1.
        -11    1    3    3    0    0  0.17845211543E+00  0.16252118488E+01 -0.53235118363E+01  0.55689260403E+01  0.51100000000E-03 0.  1.
         12    1    3    3    0    0  0.14037097473E+02  0.11357893085E+02 -0.61035959022E+01  0.19060318039E+02  0.00000000000E+00 0. -1.
</event>
<event>
 7    1  0.2294216E-010  0.4778727E+02  0.7816164E-02  0.1312668E+00
        -11   -1    0    0    0    0  0.00000000000E+00  0.00000000000E+00  0.45593999997E+02  0.45594000000E+02  0.51100000000E-03 0.  1.
         11   -1    0    0    0    0 -0.00000000000E+00 -0.00000000000E+00 -0.45593999997E+02  0.45594000000E+02  0.51100000000E-03 0. -1.
    9900012    2    1    2    0    0 -0.21386429805E+02  0.31852202947E+02 -0.20289929263E+02  0.47787269109E+02  0.19999991175E+02 0.  0.
        -12    1    1    2    0    0  0.21386429805E+02 -0.31852202947E+02  0.20289929263E+02  0.43400730891E+02  0.00000000000E+00 0.  1.
         11    1    3    3    0    0  0.46777799498E-01 -0.32052331533E+00  0.53203349699E+00  0.62288302372E+00  0.51100000000E-03 0.  1.
        -11    1    3    3    0    0 -0.16330360669E+02  0.14537250105E+02 -0.39244153357E+01  0.22212909674E+02  0.51100000000E-03 0. -1.
         12    1    3    3    0    0 -0.51028469352E+01  0.17635476158E+02 -0.16897547424E+02  0.24951476411E+02  0.00000000000E+00 0. -1.
</event>
<event>
 7    1  0.2294216E-010  0.4778727E+02  0.7816164E-02  0.1312668E+00
        -11   -1    0    0    0    0  0.00000000000E+00  0.00000000000E+00  0.45593999997E+02  0.45594000000E+02  0.51100000000E-03 0.  1.
         11   -1    0    0    0    0 -0.00000000000E+00 -0.00000000000E+00 -0.45593999997E+02  0.45594000000E+02  0.51100000000E-03 0. -1.
    9900012    2    1    2    0    0  0.19361260403E+02 -0.26969456453E+02 -0.27953767347E+02  0.47787273109E+02  0.20000009414E+02 0.  0.
        -12    1    1    2    0    0 -0.19361260403E+02  0.26969456453E+02  0.27953767347E+02  0.43400726891E+02  0.00000000000E+00 0.  1.
         11    1    3    3    0    0  0.62028739975E+01 -0.44156018381E+01 -0.24702554214E+01  0.80047078354E+01  0.51100000000E-03 0. -1.
        -11    1    3    3    0    0 -0.34848339728E+01 -0.42095085355E+01 -0.25647095280E+01  0.60367015127E+01  0.51100000000E-03 0.  1.
         12    1    3    3    0    0  0.16643220378E+02 -0.18344346080E+02 -0.22918802398E+02  0.33745863761E+02  0.00000000000E+00 0. -1.
</event>
<event>
 7    1  0.2294216E-010  0.4778727E+02  0.7816164E-02  0.1312668E+00
        -11   -1    0    0    0    0  0.00000000000E+00  0.00000000000E+00  0.45593999997E+02  0.45594000000E+02  0.51100000000E-03 0.  1.
         11   -1    0    0    0    0 -0.00000000000E+00 -0.00000000000E+00 -0.45593999997E+02  0.45594000000E+02  0.51100000000E-03 0. -1.
    9900012    2    1    2    0    0 -0.12697237783E+02  0.27502740653E+01 -0.41410621508E+02  0.47787269264E+02  0.19999991883E+02 0.  0.
        -12    1    1    2    0    0  0.12697237783E+02 -0.27502740653E+01  0.41410621508E+02  0.43400730736E+02  0.00000000000E+00 0.  1.
         11    1    3    3    0    0 -0.81742339680E+01  0.33077708511E+01 -0.10229412442E+02  0.13505566561E+02  0.51100000000E-03 0. -1.
        -11    1    3    3    0    0 -0.54097356670E-01  0.72066214997E+00  0.12904631657E+01  0.14790456050E+01  0.51100000000E-03 0.  1.
        -12    1    3    3    0    0 -0.44689064586E+01 -0.12781589357E+01 -0.32471672231E+02  0.32802657098E+02  0.00000000000E+00 0.  1.
</event>
<event>
 7    1  0.2294216E-010  0.4778727E+02  0.7816164E-02  0.1312668E+00
        -11   -1    0    0    0    0  0.00000000000E+00  0.00000000000E+00  0.45593999997E+02  0.45594000000E+02  0.51100000000E-03 0. -1.
         11   -1    0    0    0    0 -0.00000000000E+00 -0.00000000000E+00 -0.45593999997E+02  0.45594000000E+02  0.51100000000E-03 0.  1.
    9900012    2    1    2    0    0  0.30590164500E+02 -0.29620471606E+02  0.83959904353E+01  0.47787272383E+02  0.20000006103E+02 0.  0.
        -12    1    1    2    0    0 -0.30590164500E+02  0.29620471606E+02 -0.83959904353E+01  0.43400727617E+02  0.00000000000E+00 0.  1.
         11    1    3    3    0    0  0.23130408751E+02 -0.12145093177E+02  0.57651382000E+01  0.26753615008E+02  0.51100000000E-03 0. -1.
        -11    1    3    3    0    0  0.76936574072E+01 -0.91560414954E+01  0.39761917884E+01  0.12602998118E+02  0.51100000000E-03 0.  1.
        -12    1    3    3    0    0 -0.23390165783E+00 -0.83193369337E+01 -0.13453395530E+01  0.84306592574E+01  0.00000000000E+00 0.  1.
</event>
<event>
 7    1  0.2294216E-010  0.4778727E+02  0.7816164E-02  0.1312668E+00
        -11   -1    0    0    0    0  0.00000000000E+00  0.00000000000E+00  0.45593999997E+02  0.45594000000E+02  0.51100000000E-03 0.  1.
         11   -1    0    0    0    0 -0.00000000000E+00 -0.00000000000E+00 -0.45593999997E+02  0.45594000000E+02  0.51100000000E-03 0. -1.
    9900012    2    1    2    0    0 -0.46121984591E+01 -0.43150173129E+02  0.64302279608E+00  0.47787270813E+02  0.19999998944E+02 0.  0.
        -12    1    1    2    0    0  0.46121984591E+01  0.43150173129E+02 -0.64302279608E+00  0.43400729187E+02  0.00000000000E+00 0.  1.
         11    1    3    3    0    0 -0.97820434876E+00 -0.11666383304E+02  0.57773965089E+01  0.13055255410E+02  0.51100000000E-03 0. -1.
        -11    1    3    3    0    0  0.48018395335E+01 -0.12901350120E+02 -0.34681750674E+00  0.13770358763E+02  0.51100000000E-03 0.  1.
        -12    1    3    3    0    0 -0.84358336438E+01 -0.18582439704E+02 -0.47875562061E+01  0.20961656639E+02  0.00000000000E+00 0.  1.
</event>
<event>
 7    1  0.2294216E-010  0.4778727E+02  0.7816164E-02  0.1312668E+00
        -11   -1    0    0    0    0  0.00000000000E+00  0.00000000000E+00  0.45593999997E+02  0.45594000000E+02  0.51100000000E-03 0. -1.
         11   -1    0    0    0    0 -0.00000000000E+00 -0.00000000000E+00 -0.45593999997E+02  0.45594000000E+02  0.51100000000E-03 0.  1.
    9900012    2    1    2    0    0 -0.28676657068E+01  0.26343406257E+02  0.34371855517E+02  0.47787274067E+02  0.20000013779E+02 0.  0.
        -12    1    1    2    0    0  0.28676657068E+01 -0.26343406257E+02 -0.34371855517E+02  0.43400725933E+02  0.00000000000E+00 0.  1.
         11    1    3    3    0    0  0.13163819198E+01  0.11274565113E+02  0.20976850410E+02  0.23851141130E+02  0.51100000000E-03 0. -1.
        -11    1    3    3    0    0  0.41127883941E+01  0.62338854732E+01  0.33098073063E+01  0.81689155421E+01  0.51100000000E-03 0.  1.
        -12    1    3    3    0    0 -0.82968360207E+01  0.88349556713E+01  0.10085197801E+02  0.15767217394E+02  0.00000000000E+00 0.  1.
</event>
<event>
 7    1  0.2294216E-010  0.4778727E+02  0.7816164E-02  0.1312668E+00
        -11   -1    0    0    0    0  0.00000000000E+00  0.00000000000E+00  0.45593999997E+02  0.45594000000E+02  0.51100000000E-03 0. -1.
         11   -1    0    0    0    0 -0.00000000000E+00 -0.00000000000E+00 -0.45593999997E+02  0.45594000000E+02  0.51100000000E-03 0.  1.
    9900012    2    1    2    0    0  0.20034239711E+02  0.79243410322E+01  0.37675690868E+02  0.47787267011E+02  0.19999981609E+02 0.  0.
        -12    1    1    2    0    0 -0.20034239711E+02 -0.79243410322E+01 -0.37675690868E+02  0.43400732989E+02  0.00000000000E+00 0.  1.
         11    1    3    3    0    0  0.88324693907E+01  0.78132325721E+01  0.21093012556E+02  0.24165560157E+02  0.51100000000E-03 0. -1.
        -11    1    3    3    0    0  0.90184592979E+01  0.50504857100E+01  0.65762499541E+01  0.12251003132E+02  0.51100000000E-03 0.  1.
        -12    1    3    3    0    0  0.21833110229E+01 -0.49393772500E+01  0.10006428359E+02  0.11370703722E+02  0.00000000000E+00 0.  1.
</event>
<event>
 7    1  0.2294216E-010  0.4778727E+02  0.7816164E-02  0.1312668E+00
        -11   -1    0    0    0    0  0.00000000000E+00  0.00000000000E+00  0.45593999997E+02  0.45594000000E+02  0.51100000000E-03 0.  1.
         11   -1    0    0    0    0 -0.00000000000E+00 -0.00000000000E+00 -0.45593999997E+02  0.45594000000E+02  0.51100000000E-03 0. -1.
    9900012    2    1    2    0    0 -0.35439278195E+02  0.17347594239E+02 -0.18076004890E+02  0.47787269388E+02  0.19999992446E+02 0.  0.
        -12    1    1    2    0    0  0.35439278195E+02 -0.17347594239E+02  0.18076004890E+02  0.43400730612E+02  0.00000000000E+00 0.  1.
         11    1    3    3    0    0 -0.10824353312E+02  0.62328112413E+01 -0.42197273098E+01  0.13184106319E+02  0.51100000000E-03 0. -1.
        -11    1    3    3    0    0 -0.11168174071E+02  0.41961664983E+01 -0.15311827394E+02  0.19411027375E+02  0.51100000000E-03 0.  1.
        -12    1    3    3    0    0 -0.13446750812E+02  0.69186164999E+01  0.14555498135E+01  0.15192135694E+02  0.00000000000E+00 0.  1.
</event>
<event>
 7    1  0.2294216E-010  0.4778727E+02  0.7816164E-02  0.1312668E+00
        -11   -1    0    0    0    0  0.00000000000E+00  0.00000000000E+00  0.45593999997E+02  0.45594000000E+02  0.51100000000E-03 0.  1.
         11   -1    0    0    0    0 -0.00000000000E+00 -0.00000000000E+00 -0.45593999997E+02  0.45594000000E+02  0.51100000000E-03 0. -1.
    9900012    2    1    2    0    0 -0.16934882038E+02  0.27216944690E+02 -0.29258689787E+02  0.47787271482E+02  0.20000001993E+02 0.  0.
        -12    1    1    2    0    0  0.16934882038E+02 -0.27216944690E+02  0.29258689787E+02  0.43400728518E+02  0.00000000000E+00 0.  1.
         11    1    3    3    0    0 -0.76423314925E+01  0.48300377690E+01 -0.57130208836E+01  0.10694536146E+02  0.51100000000E-03 0. -1.
        -11    1    3    3    0    0 -0.99604987529E+01  0.24324637841E+02 -0.20123386580E+02  0.33103628641E+02  0.51100000000E-03 0.  1.
        -12    1    3    3    0    0  0.66794820771E+00 -0.19377309196E+01 -0.34222823235E+01  0.39891066953E+01  0.00000000000E+00 0.  1.
</event>
<event>
 7    1  0.2294216E-010  0.4778727E+02  0.7816164E-02  0.1312668E+00
        -11   -1    0    0    0    0  0.00000000000E+00  0.00000000000E+00  0.45593999997E+02  0.45594000000E+02  0.51100000000E-03 0.  1.
         11   -1    0    0    0    0 -0.00000000000E+00 -0.00000000000E+00 -0.45593999997E+02  0.45594000000E+02  0.51100000000E-03 0. -1.
    9900012    2    1    2    0    0  0.41219484503E+02 -0.13507437858E+02  0.14581376076E+01  0.47787274828E+02  0.20000017252E+02 0.  0.
        -12    1    1    2    0    0 -0.41219484503E+02  0.13507437858E+02 -0.14581376076E+01  0.43400725172E+02  0.00000000000E+00 0.  1.
         11    1    3    3    0    0  0.77820915014E+01 -0.64227432658E+01 -0.12495133540E+01  0.10167293793E+02  0.51100000000E-03 0. -1.
        -11    1    3    3    0    0 -0.70414462632E+00 -0.22171092050E+01 -0.16599025469E+01  0.28577385479E+01  0.51100000000E-03 0.  1.
         12    1    3    3    0    0  0.34141537628E+02 -0.48675853869E+01  0.43675535085E+01  0.34762242487E+02  0.00000000000E+00 0. -1.
</event>
<event>
 7    1  0.2294216E-010  0.4778727E+02  0.7816164E-02  0.1312668E+00
        -11   -1    0    0    0    0  0.00000000000E+00  0.00000000000E+00  0.45593999997E+02  0.45594000000E+02  0.51100000000E-03 0. -1.
         11   -1    0    0    0    0 -0.00000000000E+00 -0.00000000000E+00 -0.45593999997E+02  0.45594000000E+02  0.51100000000E-03 0.  1.
    9900012    2    1    2    0    0  0.25597108731E+01  0.41738776332E+02 -0.11616612153E+02  0.47787271350E+02  0.20000001394E+02 0.  0.
        -12    1    1    2    0    0 -0.25597108731E+01 -0.41738776332E+02  0.11616612153E+02  0.43400728650E+02  0.00000000000E+00 0.  1.
         11    1    3    3    0    0 -0.55019752690E+01  0.17525023440E+02  0.92159958966E+00  0.18391506858E+02  0.51100000000E-03 0. -1.
        -11    1    3    3    0    0 -0.46513650781E+00  0.50757530463E+01 -0.24274584772E+00  0.51027979350E+01  0.51100000000E-03 0.  1.
        -12    1    3    3    0    0  0.85268226499E+01  0.19137999846E+02 -0.12295465895E+02  0.24292966557E+02  0.00000000000E+00 0.  1.
</event>
<event>
 7    1  0.2294216E-010  0.4778727E+02  0.7816164E-02  0.1312668E+00
        -11   -1    0    0    0    0  0.00000000000E+00  0.00000000000E+00  0.45593999997E+02  0.45594000000E+02  0.51100000000E-03 0.  1.
         11   -1    0    0    0    0 -0.00000000000E+00 -0.00000000000E+00 -0.45593999997E+02  0.45594000000E+02  0.51100000000E-03 0. -1.
    9900012    2    1    2    0    0  0.54997394004E+01  0.34631844692E+02  0.25573645558E+02  0.47787272502E+02  0.20000006645E+02 0.  0.
        -12    1    1    2    0    0 -0.54997394004E+01 -0.34631844692E+02 -0.25573645558E+02  0.43400727498E+02  0.00000000000E+00 0.  1.
         11    1    3    3    0    0 -0.19647358503E+01  0.14761053531E+02  0.45286946935E+01  0.15564638261E+02  0.51100000000E-03 0. -1.
        -11    1    3    3    0    0 -0.86082467711E+00  0.13546865475E+02  0.90675703495E+01  0.16324197243E+02  0.51100000000E-03 0.  1.
        -12    1    3    3    0    0  0.83252999278E+01  0.63239256858E+01  0.11977380515E+02  0.15898436998E+02  0.00000000000E+00 0.  1.
</event>
<event>
 7    1  0.2294216E-010  0.4778728E+02  0.7816164E-02  0.1312668E+00
        -11   -1    0    0    0    0  0.00000000000E+00  0.00000000000E+00  0.45593999997E+02  0.45594000000E+02  0.51100000000E-03 0.  1.
         11   -1    0    0    0    0 -0.00000000000E+00 -0.00000000000E+00 -0.45593999997E+02  0.45594000000E+02  0.51100000000E-03 0. -1.
    9900012    2    1    2    0    0 -0.11355722679E+02 -0.62807449768E+01 -0.41415243823E+02  0.47787278625E+02  0.20000034561E+02 0.  0.
        -12    1    1    2    0    0  0.11355722679E+02  0.62807449768E+01  0.41415243823E+02  0.43400721375E+02  0.00000000000E+00 0.  1.
         11    1    3    3    0    0 -0.68832926762E+01 -0.97524918024E+01 -0.13950898304E+02  0.18360783703E+02  0.51100000000E-03 0. -1.
        -11    1    3    3    0    0 -0.36223022494E+01 -0.25793420087E+01 -0.11002265415E+02  0.11866925605E+02  0.51100000000E-03 0.  1.
        -12    1    3    3    0    0 -0.85012775338E+00  0.60510888342E+01 -0.16462080103E+02  0.17559569317E+02  0.00000000000E+00 0.  1.
</event>
<event>
 7    1  0.2294216E-010  0.4778727E+02  0.7816164E-02  0.1312668E+00
        -11   -1    0    0    0    0  0.00000000000E+00  0.00000000000E+00  0.45593999997E+02  0.45594000000E+02  0.51100000000E-03 0.  1.
         11   -1    0    0    0    0 -0.00000000000E+00 -0.00000000000E+00 -0.45593999997E+02  0.45594000000E+02  0.51100000000E-03 0. -1.
    9900012    2    1    2    0    0 -0.24450796173E+02  0.42127554127E+01 -0.35609475171E+02  0.47787268859E+02  0.19999990034E+02 0.  0.
        -12    1    1    2    0    0  0.24450796173E+02 -0.42127554127E+01  0.35609475171E+02  0.43400731141E+02  0.00000000000E+00 0.  1.
         11    1    3    3    0    0 -0.11464230706E+02  0.92339163115E+00 -0.77568512671E+01  0.13872634199E+02  0.51100000000E-03 0. -1.
        -11    1    3    3    0    0 -0.43327421539E+01  0.18902064574E+01 -0.12643346188E-01  0.47271233472E+01  0.51100000000E-03 0.  1.
        -12    1    3    3    0    0 -0.86538233132E+01  0.13991573242E+01 -0.27839980557E+02  0.29187511312E+02  0.00000000000E+00 0.  1.
</event>
<event>
 7    1  0.2294216E-010  0.4778727E+02  0.7816164E-02  0.1312668E+00
        -11   -1    0    0    0    0  0.00000000000E+00  0.00000000000E+00  0.45593999997E+02  0.45594000000E+02  0.51100000000E-03 0.  1.
         11   -1    0    0    0    0 -0.00000000000E+00 -0.00000000000E+00 -0.45593999997E+02  0.45594000000E+02  0.51100000000E-03 0. -1.
    9900012    2    1    2    0    0  0.32449488911E+01  0.39374472299E+02 -0.17965093750E+02  0.47787270103E+02  0.19999995709E+02 0.  0.
        -12    1    1    2    0    0 -0.32449488911E+01 -0.39374472299E+02  0.17965093750E+02  0.43400729897E+02  0.00000000000E+00 0.  1.
         11    1    3    3    0    0 -0.15102370573E+00 -0.11634511331E+01 -0.33226792135E+00  0.12193559494E+01  0.51100000000E-03 0. -1.
        -11    1    3    3    0    0 -0.25362998701E+01  0.16509914430E+02 -0.96964224738E+00  0.16731715330E+02  0.51100000000E-03 0.  1.
         12    1    3    3    0    0  0.59322724670E+01  0.24028009002E+02 -0.16663183581E+02  0.29836198824E+02  0.00000000000E+00 0. -1.
</event>
<event>
 7    1  0.2294216E-010  0.4778724E+02  0.7816164E-02  0.1312668E+00
        -11   -1    0    0    0    0  0.00000000000E+00  0.00000000000E+00  0.45593999997E+02  0.45594000000E+02  0.51100000000E-03 0.  1.
         11   -1    0    0    0    0 -0.00000000000E+00 -0.00000000000E+00 -0.45593999997E+02  0.45594000000E+02  0.51100000000E-03 0. -1.
    9900012    2    1    2    0    0  0.14748338957E+02 -0.15997735918E+02 -0.37552426862E+02  0.47787241715E+02  0.19999866277E+02 0.  0.
        -12    1    1    2    0    0 -0.14748338957E+02  0.15997735918E+02  0.37552426862E+02  0.43400758285E+02  0.00000000000E+00 0.  1.
         11    1    3    3    0    0  0.92136399297E+01 -0.98370086167E+01 -0.16558981371E+02  0.21350825829E+02  0.51100000000E-03 0. -1.
        -11    1    3    3    0    0  0.79921151261E+01 -0.39810342932E+01 -0.52582864947E+01  0.10362051696E+02  0.51100000000E-03 0.  1.
        -12    1    3    3    0    0 -0.24574160988E+01 -0.21796930080E+01 -0.15735158996E+02  0.16074364190E+02  0.00000000000E+00 0.  1.
</event>
<event>
 7    1  0.2294216E-010  0.4778727E+02  0.7816164E-02  0.1312668E+00
        -11   -1    0    0    0    0  0.00000000000E+00  0.00000000000E+00  0.45593999997E+02  0.45594000000E+02  0.51100000000E-03 0. -1.
         11   -1    0    0    0    0 -0.00000000000E+00 -0.00000000000E+00 -0.45593999997E+02  0.45594000000E+02  0.51100000000E-03 0.  1.
    9900012    2    1    2    0    0 -0.40210924709E+02 -0.14171486331E+02 -0.81162794885E+01  0.47787268629E+02  0.19999988987E+02 0.  0.
        -12    1    1    2    0    0  0.40210924709E+02  0.14171486331E+02  0.81162794885E+01  0.43400731371E+02  0.00000000000E+00 0.  1.
         11    1    3    3    0    0 -0.13017128788E+02 -0.11675296691E+01 -0.36515982129E+01  0.13569927678E+02  0.51100000000E-03 0. -1.
        -11    1    3    3    0    0 -0.26956732083E+02 -0.11785435360E+02  0.16832110793E+00  0.29420914728E+02  0.51100000000E-03 0.  1.
         12    1    3    3    0    0 -0.23706383880E+00 -0.12185213019E+01 -0.46330023835E+01  0.47964262230E+01  0.00000000000E+00 0. -1.
</event>
<event>
 7    1  0.2294216E-010  0.4778727E+02  0.7816164E-02  0.1312668E+00
        -11   -1    0    0    0    0  0.00000000000E+00  0.00000000000E+00  0.45593999997E+02  0.45594000000E+02  0.51100000000E-03 0.  1.
         11   -1    0    0    0    0 -0.00000000000E+00 -0.00000000000E+00 -0.45593999997E+02  0.45594000000E+02  0.51100000000E-03 0. -1.
    9900012    2    1    2    0    0  0.39432406108E+02  0.28302760645E-01 -0.18130308458E+02  0.47787268009E+02  0.19999986162E+02 0.  0.
        -12    1    1    2    0    0 -0.39432406108E+02 -0.28302760645E-01  0.18130308458E+02  0.43400731991E+02  0.00000000000E+00 0.  1.
         11    1    3    3    0    0  0.70378964730E+01 -0.17615112803E+01 -0.91702298492E+01  0.11693075921E+02  0.51100000000E-03 0. -1.
        -11    1    3    3    0    0 -0.62390963693E+00 -0.14229667362E+01  0.43804237375E+00  0.16143044786E+01  0.51100000000E-03 0.  1.
         12    1    3    3    0    0  0.33018419272E+02  0.32127807772E+01 -0.93981209827E+01  0.34479887609E+02  0.00000000000E+00 0. -1.
</event>
<event>
 7    1  0.2294216E-010  0.4778727E+02  0.7816164E-02  0.1312668E+00
        -11   -1    0    0    0    0  0.00000000000E+00  0.00000000000E+00  0.45593999997E+02  0.45594000000E+02  0.51100000000E-03 0. -1.
         11   -1    0    0    0    0 -0.00000000000E+00 -0.00000000000E+00 -0.45593999997E+02  0.45594000000E+02  0.51100000000E-03 0.  1.
    9900012    2    1    2    0    0 -0.11580198585E+02  0.20835996276E+02  0.36268218661E+02  0.47787269304E+02  0.19999992064E+02 0.  0.
        -12    1    1    2    0    0  0.11580198585E+02 -0.20835996276E+02 -0.36268218661E+02  0.43400730696E+02  0.00000000000E+00 0.  1.
         11    1    3    3    0    0 -0.30307080843E+01  0.25392338145E+01  0.11874214242E+02  0.12515185336E+02  0.51100000000E-03 0. -1.
        -11    1    3    3    0    0 -0.83939867484E+01  0.12240843765E+02  0.25113440587E+02  0.29171598653E+02  0.51100000000E-03 0.  1.
        -12    1    3    3    0    0 -0.15550375214E+00  0.60559186966E+01 -0.71943616776E+00  0.61004853148E+01  0.00000000000E+00 0.  1.
</event>
<event>
 7    1  0.2294216E-010  0.4778728E+02  0.7816164E-02  0.1312668E+00
        -11   -1    0    0    0    0  0.00000000000E+00  0.00000000000E+00  0.45593999997E+02  0.45594000000E+02  0.51100000000E-03 0.  1.
         11   -1    0    0    0    0 -0.00000000000E+00 -0.00000000000E+00 -0.45593999997E+02  0.45594000000E+02  0.51100000000E-03 0. -1.
    9900012    2    1    2    0    0 -0.21572785051E+02  0.14917336938E+02 -0.34579052109E+02  0.47787276032E+02  0.20000022741E+02 0.  0.
        -12    1    1    2    0    0  0.21572785051E+02 -0.14917336938E+02  0.34579052109E+02  0.43400723968E+02  0.00000000000E+00 0.  1.
         11    1    3    3    0    0 -0.84433580087E+01  0.11186789513E+02 -0.14125525037E+02  0.19898869614E+02  0.51100000000E-03 0. -1.
        -11    1    3    3    0    0 -0.14643366933E+01  0.21228176959E+01  0.14948223733E+01  0.29807937048E+01  0.51100000000E-03 0.  1.
        -12    1    3    3    0    0 -0.11665090349E+02  0.16077297288E+01 -0.21948349445E+02  0.24907612714E+02  0.00000000000E+00 0.  1.
</event>
<event>
 7    1  0.2294216E-010  0.4778727E+02  0.7816164E-02  0.1312668E+00
        -11   -1    0    0    0    0  0.00000000000E+00  0.00000000000E+00  0.45593999997E+02  0.45594000000E+02  0.51100000000E-03 0. -1.
         11   -1    0    0    0    0 -0.00000000000E+00 -0.00000000000E+00 -0.45593999997E+02  0.45594000000E+02  0.51100000000E-03 0.  1.
    9900012    2    1    2    0    0 -0.35562637602E+02  0.19364654198E+02  0.15618346936E+02  0.47787265140E+02  0.19999973077E+02 0.  0.
        -12    1    1    2    0    0  0.35562637602E+02 -0.19364654198E+02 -0.15618346936E+02  0.43400734860E+02  0.00000000000E+00 0.  1.
         11    1    3    3    0    0 -0.10692709375E+02 -0.22694148704E+01  0.70554236918E+01  0.13010122265E+02  0.51100000000E-03 0. -1.
        -11    1    3    3    0    0 -0.61586888043E+01  0.38502388983E+01 -0.82267989975E+00  0.73096230984E+01  0.51100000000E-03 0.  1.
        -12    1    3    3    0    0 -0.18711239423E+02  0.17783830170E+02  0.93856031436E+01  0.27467519776E+02  0.00000000000E+00 0.  1.
</event>
<event>
 7    1  0.2294216E-010  0.4778727E+02  0.7816164E-02  0.1312668E+00
        -11   -1    0    0    0    0  0.00000000000E+00  0.00000000000E+00  0.45593999997E+02  0.45594000000E+02  0.51100000000E-03 0.  1.
         11   -1    0    0    0    0 -0.00000000000E+00 -0.00000000000E+00 -0.45593999997E+02  0.45594000000E+02  0.51100000000E-03 0. -1.
    9900012    2    1    2    0    0 -0.19223792125E+02 -0.20285742948E+02 -0.33204785891E+02  0.47787270091E+02  0.19999995652E+02 0.  0.
        -12    1    1    2    0    0  0.19223792125E+02  0.20285742948E+02  0.33204785891E+02  0.43400729909E+02  0.00000000000E+00 0.  1.
         11    1    3    3    0    0 -0.48859912760E+01 -0.20617589904E+01 -0.94858609588E+01  0.10867627123E+02  0.51100000000E-03 0. -1.
        -11    1    3    3    0    0 -0.70238853255E+01 -0.11072802060E+01 -0.45440416679E+00  0.71251328358E+01  0.51100000000E-03 0.  1.
        -12    1    3    3    0    0 -0.73139155232E+01 -0.17116703751E+02 -0.23264520765E+02  0.29794510132E+02  0.00000000000E+00 0.  1.
</event>
<event>
 7    1  0.2294216E-010  0.4778727E+02  0.7816164E-02  0.1312668E+00
        -11   -1    0    0    0    0  0.00000000000E+00  0.00000000000E+00  0.45593999997E+02  0.45594000000E+02  0.51100000000E-03 0.  1.
         11   -1    0    0    0    0 -0.00000000000E+00 -0.00000000000E+00 -0.45593999997E+02  0.45594000000E+02  0.51100000000E-03 0. -1.
    9900012    2    1    2    0    0  0.23187590056E+02 -0.12199929846E+02 -0.34599431539E+02  0.47787270932E+02  0.19999999488E+02 0.  0.
        -12    1    1    2    0    0 -0.23187590056E+02  0.12199929846E+02  0.34599431539E+02  0.43400729068E+02  0.00000000000E+00 0.  1.
         11    1    3    3    0    0  0.45488524569E+01 -0.16503209672E+01 -0.16991943375E+02  0.17667534007E+02  0.51100000000E-03 0. -1.
        -11    1    3    3    0    0  0.81222591726E+01  0.16121549196E+01 -0.48615305656E+01  0.96023235341E+01  0.51100000000E-03 0.  1.
        -12    1    3    3    0    0  0.10516478426E+02 -0.12161763798E+02 -0.12745957598E+02  0.20517413391E+02  0.00000000000E+00 0.  1.
</event>
<event>
 7    1  0.2294216E-010  0.4778727E+02  0.7816164E-02  0.1312668E+00
        -11   -1    0    0    0    0  0.00000000000E+00  0.00000000000E+00  0.45593999997E+02  0.45594000000E+02  0.51100000000E-03 0. -1.
         11   -1    0    0    0    0 -0.00000000000E+00 -0.00000000000E+00 -0.45593999997E+02  0.45594000000E+02  0.51100000000E-03 0.  1.
    9900012    2    1    2    0    0  0.36280886754E+02  0.18946599065E+01  0.23743013721E+02  0.47787272122E+02  0.20000004912E+02 0.  0.
        -12    1    1    2    0    0 -0.36280886754E+02 -0.18946599065E+01 -0.23743013721E+02  0.43400727878E+02  0.00000000000E+00 0.  1.
         11    1    3    3    0    0  0.99074123200E+01  0.12546307785E+01  0.58394701409E+01  0.11568505913E+02  0.51100000000E-03 0. -1.
        -11    1    3    3    0    0  0.28131713890E+02  0.22384303232E+01  0.13654485002E+02  0.31350420374E+02  0.51100000000E-03 0.  1.
        -12    1    3    3    0    0 -0.17582394564E+01 -0.15984011952E+01  0.42490585780E+01  0.48683458347E+01  0.00000000000E+00 0.  1.
</event>
<event>
 7    1  0.2294216E-010  0.4778726E+02  0.7816164E-02  0.1312668E+00
        -11   -1    0    0    0    0  0.00000000000E+00  0.00000000000E+00  0.45593999997E+02  0.45594000000E+02  0.51100000000E-03 0.  1.
         11   -1    0    0    0    0 -0.00000000000E+00 -0.00000000000E+00 -0.45593999997E+02  0.45594000000E+02  0.51100000000E-03 0. -1.
    9900012    2    1    2    0    0  0.19129621998E+02 -0.37355963912E+02  0.11055026852E+02  0.47787261570E+02  0.19999956803E+02 0.  0.
        -12    1    1    2    0    0 -0.19129621998E+02  0.37355963912E+02 -0.11055026852E+02  0.43400738430E+02  0.00000000000E+00 0.  1.
         11    1    3    3    0    0  0.86709116777E+01 -0.66122010871E+01 -0.35472644689E+01  0.11466865222E+02  0.51100000000E-03 0. -1.
        -11    1    3    3    0    0  0.11470570557E+01 -0.96485384944E+01  0.72311012113E+01  0.12111930480E+02  0.51100000000E-03 0.  1.
        -12    1    3    3    0    0  0.93116532647E+01 -0.21095224330E+02  0.73711901099E+01  0.24208465868E+02  0.00000000000E+00 0.  1.
</event>
<event>
 7    1  0.2294216E-010  0.4778728E+02  0.7816164E-02  0.1312668E+00
        -11   -1    0    0    0    0  0.00000000000E+00  0.00000000000E+00  0.45593999997E+02  0.45594000000E+02  0.51100000000E-03 0.  1.
         11   -1    0    0    0    0 -0.00000000000E+00 -0.00000000000E+00 -0.45593999997E+02  0.45594000000E+02  0.51100000000E-03 0. -1.
    9900012    2    1    2    0    0  0.18446291344E+02 -0.21017882814E+02 -0.33190446910E+02  0.47787276176E+02  0.20000023399E+02 0.  0.
        -12    1    1    2    0    0 -0.18446291344E+02  0.21017882814E+02  0.33190446910E+02  0.43400723824E+02  0.00000000000E+00 0.  1.
         11    1    3    3    0    0  0.29465629950E+01 -0.47674322514E+01 -0.17798094066E+01  0.58803371961E+01  0.51100000000E-03 0. -1.
        -11    1    3    3    0    0  0.84507141885E+01 -0.81333743724E+01 -0.38836717386E+01  0.12355130732E+02  0.51100000000E-03 0.  1.
         12    1    3    3    0    0  0.70490141606E+01 -0.81170761898E+01 -0.27526965765E+02  0.29551808248E+02  0.00000000000E+00 0. -1.
</event>
<event>
 7    1  0.2294216E-010  0.4778727E+02  0.7816164E-02  0.1312668E+00
        -11   -1    0    0    0    0  0.00000000000E+00  0.00000000000E+00  0.45593999997E+02  0.45594000000E+02  0.51100000000E-03 0.  1.
         11   -1    0    0    0    0 -0.00000000000E+00 -0.00000000000E+00 -0.45593999997E+02  0.45594000000E+02  0.51100000000E-03 0. -1.
    9900012    2    1    2    0    0 -0.27829367705E+02 -0.71885732718E+01 -0.32518826487E+02  0.47787269953E+02  0.19999995024E+02 0.  0.
        -12    1    1    2    0    0  0.27829367705E+02  0.71885732718E+01  0.32518826487E+02  0.43400730047E+02  0.00000000000E+00 0.  1.
         11    1    3    3    0    0 -0.48090232857E+01  0.24874490617E+01  0.99341909492E-01  0.54151617587E+01  0.51100000000E-03 0. -1.
        -11    1    3    3    0    0 -0.10848691709E+02 -0.94626493900E+01 -0.13681018491E+02  0.19859660432E+02  0.51100000000E-03 0.  1.
         12    1    3    3    0    0 -0.12171652711E+02 -0.21337294342E+00 -0.18937149905E+02  0.22512447762E+02  0.00000000000E+00 0. -1.
</event>
<event>
 7    1  0.2294216E-010  0.4778727E+02  0.7816164E-02  0.1312668E+00
        -11   -1    0    0    0    0  0.00000000000E+00  0.00000000000E+00  0.45593999997E+02  0.45594000000E+02  0.51100000000E-03 0.  1.
         11   -1    0    0    0    0 -0.00000000000E+00 -0.00000000000E+00 -0.45593999997E+02  0.45594000000E+02  0.51100000000E-03 0. -1.
    9900012    2    1    2    0    0  0.25254018839E+02  0.21343404933E+02 -0.28112583108E+02  0.47787265782E+02  0.19999976007E+02 0.  0.
        -12    1    1    2    0    0 -0.25254018839E+02 -0.21343404933E+02  0.28112583108E+02  0.43400734218E+02  0.00000000000E+00 0.  1.
         11    1    3    3    0    0  0.15017566279E+01  0.39423033407E+01  0.10752917634E+01  0.43535366355E+01  0.51100000000E-03 0. -1.
        -11    1    3    3    0    0  0.13535112163E+02  0.13570142818E+02 -0.10659738293E+02  0.21931211961E+02  0.51100000000E-03 0.  1.
        -12    1    3    3    0    0  0.10217150049E+02  0.38309587743E+01 -0.18528136578E+02  0.21502517185E+02  0.00000000000E+00 0.  1.
</event>
<event>
 7    1  0.2294216E-010  0.4778727E+02  0.7816164E-02  0.1312668E+00
        -11   -1    0    0    0    0  0.00000000000E+00  0.00000000000E+00  0.45593999997E+02  0.45594000000E+02  0.51100000000E-03 0.  1.
         11   -1    0    0    0    0 -0.00000000000E+00 -0.00000000000E+00 -0.45593999997E+02  0.45594000000E+02  0.51100000000E-03 0. -1.
    9900012    2    1    2    0    0  0.15931386857E+02 -0.36561714607E+02 -0.17118870159E+02  0.47787265240E+02  0.19999973533E+02 0.  0.
        -12    1    1    2    0    0 -0.15931386857E+02  0.36561714607E+02  0.17118870159E+02  0.43400734760E+02  0.00000000000E+00 0.  1.
         11    1    3    3    0    0  0.10034033154E+02 -0.23680409635E+02 -0.14508822185E+02  0.29528791768E+02  0.51100000000E-03 0. -1.
        -11    1    3    3    0    0  0.72333826203E-01 -0.89214219140E+01 -0.56785214018E+01  0.10575566496E+02  0.51100000000E-03 0.  1.
         12    1    3    3    0    0  0.58250198773E+01 -0.39598830585E+01  0.30684734283E+01  0.76829069751E+01  0.00000000000E+00 0. -1.
</event>
<event>
 7    1  0.2294216E-010  0.4778727E+02  0.7816164E-02  0.1312668E+00
        -11   -1    0    0    0    0  0.00000000000E+00  0.00000000000E+00  0.45593999997E+02  0.45594000000E+02  0.51100000000E-03 0.  1.
         11   -1    0    0    0    0 -0.00000000000E+00 -0.00000000000E+00 -0.45593999997E+02  0.45594000000E+02  0.51100000000E-03 0. -1.
    9900012    2    1    2    0    0 -0.23962428462E+02 -0.28005420465E+02 -0.22915541628E+02  0.47787267273E+02  0.19999982803E+02 0.  0.
        -12    1    1    2    0    0  0.23962428462E+02  0.28005420465E+02  0.22915541628E+02  0.43400732727E+02  0.00000000000E+00 0.  1.
         11    1    3    3    0    0 -0.10137326120E+02 -0.13334737904E+02 -0.63610691657E+01  0.17917695640E+02  0.51100000000E-03 0. -1.
        -11    1    3    3    0    0 -0.53030842897E+01 -0.78461003540E+01  0.65090698196E+00  0.94925061974E+01  0.51100000000E-03 0.  1.
         12    1    3    3    0    0 -0.85220180517E+01 -0.68245822064E+01 -0.17205379444E+02  0.20377065436E+02  0.00000000000E+00 0. -1.
</event>
<event>
 7    1  0.2294216E-010  0.4778727E+02  0.7816164E-02  0.1312668E+00
        -11   -1    0    0    0    0  0.00000000000E+00  0.00000000000E+00  0.45593999997E+02  0.45594000000E+02  0.51100000000E-03 0.  1.
         11   -1    0    0    0    0 -0.00000000000E+00 -0.00000000000E+00 -0.45593999997E+02  0.45594000000E+02  0.51100000000E-03 0. -1.
    9900012    2    1    2    0    0  0.14847820517E+02 -0.66313619620E+01 -0.40239169087E+02  0.47787268850E+02  0.19999989994E+02 0.  0.
        -12    1    1    2    0    0 -0.14847820517E+02  0.66313619620E+01  0.40239169087E+02  0.43400731150E+02  0.00000000000E+00 0.  1.
         11    1    3    3    0    0  0.43504150852E-01  0.26764441284E+01 -0.97249062431E+01  0.10086577590E+02  0.51100000000E-03 0.  1.
        -11    1    3    3    0    0  0.87647437159E+01  0.22900897133E+01 -0.12911849247E+02  0.15772796028E+02  0.51100000000E-03 0. -1.
        -12    1    3    3    0    0  0.60395726500E+01 -0.11597895804E+02 -0.17602413597E+02  0.21927895232E+02  0.00000000000E+00 0.  1.
</event>
<event>
 7    1  0.2294216E-010  0.4778727E+02  0.7816164E-02  0.1312668E+00
        -11   -1    0    0    0    0  0.00000000000E+00  0.00000000000E+00  0.45593999997E+02  0.45594000000E+02  0.51100000000E-03 0.  1.
         11   -1    0    0    0    0 -0.00000000000E+00 -0.00000000000E+00 -0.45593999997E+02  0.45594000000E+02  0.51100000000E-03 0. -1.
    9900012    2    1    2    0    0  0.15483175667E+02 -0.32386027248E+02 -0.24393442757E+02  0.47787267987E+02  0.19999986062E+02 0.  0.
        -12    1    1    2    0    0 -0.15483175667E+02  0.32386027248E+02  0.24393442757E+02  0.43400732013E+02  0.00000000000E+00 0.  1.
         11    1    3    3    0    0 -0.46772691799E+01 -0.50341238691E+01 -0.46286621813E+01  0.82851532249E+01  0.51100000000E-03 0.  1.
        -11    1    3    3    0    0  0.30840333792E+01 -0.28886039906E+01 -0.13198797082E+01  0.44268925449E+01  0.51100000000E-03 0. -1.
        -12    1    3    3    0    0  0.17076411468E+02 -0.24463299389E+02 -0.18444900868E+02  0.35075222218E+02  0.00000000000E+00 0.  1.
</event>
<event>
 7    1  0.2294216E-010  0.4778727E+02  0.7816164E-02  0.1312668E+00
        -11   -1    0    0    0    0  0.00000000000E+00  0.00000000000E+00  0.45593999997E+02  0.45594000000E+02  0.51100000000E-03 0. -1.
         11   -1    0    0    0    0 -0.00000000000E+00 -0.00000000000E+00 -0.45593999997E+02  0.45594000000E+02  0.51100000000E-03 0.  1.
    9900012    2    1    2    0    0 -0.13649828372E+02  0.39574225669E+02  0.11453646822E+02  0.47787272156E+02  0.20000005068E+02 0.  0.
        -12    1    1    2    0    0  0.13649828372E+02 -0.39574225669E+02 -0.11453646822E+02  0.43400727844E+02  0.00000000000E+00 0.  1.
         11    1    3    3    0    0 -0.67634992170E+01  0.22254182119E+02  0.31901597630E+01  0.23477024151E+02  0.51100000000E-03 0. -1.
        -11    1    3    3    0    0 -0.86724242264E+01  0.67107369467E+01  0.37956615916E+00  0.10972192263E+02  0.51100000000E-03 0.  1.
        -12    1    3    3    0    0  0.17860950716E+01  0.10609306604E+02  0.78839208994E+01  0.13338055741E+02  0.00000000000E+00 0.  1.
</event>
<event>
 7    1  0.2294216E-010  0.4778727E+02  0.7816164E-02  0.1312668E+00
        -11   -1    0    0    0    0  0.00000000000E+00  0.00000000000E+00  0.45593999997E+02  0.45594000000E+02  0.51100000000E-03 0. -1.
         11   -1    0    0    0    0 -0.00000000000E+00 -0.00000000000E+00 -0.45593999997E+02  0.45594000000E+02  0.51100000000E-03 0.  1.
    9900012    2    1    2    0    0 -0.31275872251E+02  0.11143067882E+02  0.27951301685E+02  0.47787269444E+02  0.19999992705E+02 0.  0.
        -12    1    1    2    0    0  0.31275872251E+02 -0.11143067882E+02 -0.27951301685E+02  0.43400730556E+02  0.00000000000E+00 0.  1.
         11    1    3    3    0    0 -0.91614388236E+01  0.30758690574E+01  0.19859052119E+02  0.22085626165E+02  0.51100000000E-03 0. -1.
        -11    1    3    3    0    0 -0.50074641418E+01 -0.30887858227E+00  0.27194512754E-01  0.50170552032E+01  0.51100000000E-03 0.  1.
        -12    1    3    3    0    0 -0.17106969285E+02  0.83760774073E+01  0.80650550531E+01  0.20684588076E+02  0.00000000000E+00 0.  1.
</event>
<event>
 7    1  0.2294216E-010  0.4778727E+02  0.7816164E-02  0.1312668E+00
        -11   -1    0    0    0    0  0.00000000000E+00  0.00000000000E+00  0.45593999997E+02  0.45594000000E+02  0.51100000000E-03 0.  1.
         11   -1    0    0    0    0 -0.00000000000E+00 -0.00000000000E+00 -0.45593999997E+02  0.45594000000E+02  0.51100000000E-03 0. -1.
    9900012    2    1    2    0    0 -0.24064162445E+02 -0.33141325979E+02 -0.14359396337E+02  0.47787266539E+02  0.19999979458E+02 0.  0.
        -12    1    1    2    0    0  0.24064162445E+02  0.33141325979E+02  0.14359396337E+02  0.43400733461E+02  0.00000000000E+00 0.  1.
         11    1    3    3    0    0 -0.80691525453E+01 -0.49303983694E+01 -0.51835998878E+00  0.94704143636E+01  0.51100000000E-03 0. -1.
        -11    1    3    3    0    0  0.18925362179E+01 -0.13261124051E+01  0.13001724214E+01  0.26515497419E+01  0.51100000000E-03 0.  1.
         12    1    3    3    0    0 -0.17887546117E+02 -0.26884815204E+02 -0.15141208770E+02  0.35665302433E+02  0.00000000000E+00 0. -1.
</event>
<event>
 7    1  0.2294216E-010  0.4778728E+02  0.7816164E-02  0.1312668E+00
        -11   -1    0    0    0    0  0.00000000000E+00  0.00000000000E+00  0.45593999997E+02  0.45594000000E+02  0.51100000000E-03 0. -1.
         11   -1    0    0    0    0 -0.00000000000E+00 -0.00000000000E+00 -0.45593999997E+02  0.45594000000E+02  0.51100000000E-03 0.  1.
    9900012    2    1    2    0    0 -0.30355865600E+01 -0.16338561150E+02  0.40093134580E+02  0.47787276427E+02  0.20000024540E+02 0.  0.
        -12    1    1    2    0    0  0.30355865600E+01  0.16338561150E+02 -0.40093134580E+02  0.43400723573E+02  0.00000000000E+00 0.  1.
         11    1    3    3    0    0 -0.14123709349E+01  0.26838720656E+01  0.69896063215E+01  0.76192229075E+01  0.51100000000E-03 0. -1.
        -11    1    3    3    0    0 -0.53143806017E+00  0.11976750971E+01 -0.59355041654E-01  0.13116307911E+01  0.51100000000E-03 0.  1.
         12    1    3    3    0    0 -0.10917775649E+01 -0.20220108313E+02  0.33162883300E+02  0.38856422728E+02  0.00000000000E+00 0. -1.
</event>
<event>
 7    1  0.2294216E-010  0.4778727E+02  0.7816164E-02  0.1312668E+00
        -11   -1    0    0    0    0  0.00000000000E+00  0.00000000000E+00  0.45593999997E+02  0.45594000000E+02  0.51100000000E-03 0.  1.
         11   -1    0    0    0    0 -0.00000000000E+00 -0.00000000000E+00 -0.45593999997E+02  0.45594000000E+02  0.51100000000E-03 0. -1.
    9900012    2    1    2    0    0 -0.51166401466E+01  0.23842798285E+02 -0.35902147495E+02  0.47787271537E+02  0.20000002244E+02 0.  0.
        -12    1    1    2    0    0  0.51166401466E+01 -0.23842798285E+02  0.35902147495E+02  0.43400728463E+02  0.00000000000E+00 0.  1.
         11    1    3    3    0    0 -0.45284804459E+01  0.15225529545E+02 -0.28034975770E+02  0.32222410706E+02  0.51100000000E-03 0. -1.
        -11    1    3    3    0    0 -0.41820286690E+00  0.10912805572E+02 -0.53735051234E+01  0.12171227410E+02  0.51100000000E-03 0.  1.
        -12    1    3    3    0    0 -0.16995683380E+00 -0.22955368318E+01 -0.24936666013E+01  0.33936334201E+01  0.00000000000E+00 0.  1.
</event>
<event>
 7    1  0.2294216E-010  0.4778727E+02  0.7816164E-02  0.1312668E+00
        -11   -1    0    0    0    0  0.00000000000E+00  0.00000000000E+00  0.45593999997E+02  0.45594000000E+02  0.51100000000E-03 0. -1.
         11   -1    0    0    0    0 -0.00000000000E+00 -0.00000000000E+00 -0.45593999997E+02  0.45594000000E+02  0.51100000000E-03 0.  1.
    9900012    2    1    2    0    0 -0.93831281419E+01 -0.33157867458E+02  0.26384390217E+02  0.47787270568E+02  0.19999997829E+02 0.  0.
        -12    1    1    2    0    0  0.93831281419E+01  0.33157867458E+02 -0.26384390217E+02  0.43400729432E+02  0.00000000000E+00 0.  1.
         11    1    3    3    0    0 -0.26275183458E+01 -0.12330904304E+02  0.84657008834E+01  0.15186281485E+02  0.51100000000E-03 0. -1.
        -11    1    3    3    0    0 -0.10980907001E+02 -0.76331303344E+01  0.84110210630E+01  0.15798426277E+02  0.51100000000E-03 0.  1.
        -12    1    3    3    0    0  0.42252972044E+01 -0.13193832819E+02  0.95076682701E+01  0.16802562806E+02  0.00000000000E+00 0.  1.
</event>
<event>
 7    1  0.2294216E-010  0.4778727E+02  0.7816164E-02  0.1312668E+00
        -11   -1    0    0    0    0  0.00000000000E+00  0.00000000000E+00  0.45593999997E+02  0.45594000000E+02  0.51100000000E-03 0.  1.
         11   -1    0    0    0    0 -0.00000000000E+00 -0.00000000000E+00 -0.45593999997E+02  0.45594000000E+02  0.51100000000E-03 0. -1.
    9900012    2    1    2    0    0  0.31162066574E+02 -0.12200790649E+02 -0.27634939713E+02  0.47787267534E+02  0.19999983995E+02 0.  0.
        -12    1    1    2    0    0 -0.31162066574E+02  0.12200790649E+02  0.27634939713E+02  0.43400732466E+02  0.00000000000E+00 0.  1.
         11    1    3    3    0    0  0.73267730297E+01 -0.44402578119E+00 -0.20948046658E+01  0.76332803415E+01  0.51100000000E-03 0. -1.
        -11    1    3    3    0    0 -0.15897288159E+01  0.12420829251E+01 -0.29391791720E+00  0.20387240382E+01  0.51100000000E-03 0.  1.
         12    1    3    3    0    0  0.25425022360E+02 -0.12998847793E+02 -0.25246217130E+02  0.38115263155E+02  0.00000000000E+00 0. -1.
</event>
<event>
 7    1  0.2294216E-010  0.4778727E+02  0.7816164E-02  0.1312668E+00
        -11   -1    0    0    0    0  0.00000000000E+00  0.00000000000E+00  0.45593999997E+02  0.45594000000E+02  0.51100000000E-03 0.  1.
         11   -1    0    0    0    0 -0.00000000000E+00 -0.00000000000E+00 -0.45593999997E+02  0.45594000000E+02  0.51100000000E-03 0. -1.
    9900012    2    1    2    0    0  0.72784433313E+01  0.32955766672E+02 -0.27286722216E+02  0.47787268398E+02  0.19999987936E+02 0.  0.
        -12    1    1    2    0    0 -0.72784433313E+01 -0.32955766672E+02  0.27286722216E+02  0.43400731602E+02  0.00000000000E+00 0.  1.
         11    1    3    3    0    0  0.19804664024E+01  0.13503003386E+02 -0.63666317883E+01  0.15059460422E+02  0.51100000000E-03 0. -1.
        -11    1    3    3    0    0 -0.20906095857E+01  0.14008286904E+02 -0.18381668145E+02  0.23205354435E+02  0.51100000000E-03 0.  1.
        -12    1    3    3    0    0  0.73885865146E+01  0.54444763822E+01 -0.25384222833E+01  0.95224535414E+01  0.00000000000E+00 0.  1.
</event>
<event>
 7    1  0.2294216E-010  0.4778727E+02  0.7816164E-02  0.1312668E+00
        -11   -1    0    0    0    0  0.00000000000E+00  0.00000000000E+00  0.45593999997E+02  0.45594000000E+02  0.51100000000E-03 0.  1.
         11   -1    0    0    0    0 -0.00000000000E+00 -0.00000000000E+00 -0.45593999997E+02  0.45594000000E+02  0.51100000000E-03 0. -1.
    9900012    2    1    2    0    0  0.42772451145E+02  0.53885172842E+01  0.50104987226E+01  0.47787265064E+02  0.19999972734E+02 0.  0.
        -12    1    1    2    0    0 -0.42772451145E+02 -0.53885172842E+01 -0.50104987226E+01  0.43400734936E+02  0.00000000000E+00 0.  1.
         11    1    3    3    0    0  0.27092903411E+02 -0.38991026028E+01 -0.75544466989E+00  0.27382459957E+02  0.51100000000E-03 0. -1.
        -11    1    3    3    0    0  0.10604102424E+02  0.46482364550E+01  0.68361714574E+01  0.13445680749E+02  0.51100000000E-03 0.  1.
        -12    1    3    3    0    0  0.50754453102E+01  0.46393834319E+01 -0.10702280650E+01  0.69591243584E+01  0.00000000000E+00 0.  1.
</event>
<event>
 7    1  0.2294216E-010  0.4778729E+02  0.7816164E-02  0.1312668E+00
        -11   -1    0    0    0    0  0.00000000000E+00  0.00000000000E+00  0.45593999997E+02  0.45594000000E+02  0.51100000000E-03 0.  1.
         11   -1    0    0    0    0 -0.00000000000E+00 -0.00000000000E+00 -0.45593999997E+02  0.45594000000E+02  0.51100000000E-03 0. -1.
    9900012    2    1    2    0    0 -0.30568497753E+02  0.30183751845E+02 -0.61749454066E+01  0.47787287090E+02  0.20000073160E+02 0.  0.
        -12    1    1    2    0    0  0.30568497753E+02 -0.30183751845E+02  0.61749454066E+01  0.43400712910E+02  0.00000000000E+00 0.  1.
         11    1    3    3    0    0 -0.96673634177E+01  0.86276953321E+01  0.94654324590E+00  0.12991958535E+02  0.51100000000E-03 0. -1.
        -11    1    3    3    0    0 -0.12215001994E+02  0.15036805907E+02 -0.12107307218E+02  0.22845102187E+02  0.51100000000E-03 0.  1.
        -12    1    3    3    0    0 -0.86861323410E+01  0.65192506057E+01  0.49858185652E+01  0.11950226369E+02  0.00000000000E+00 0.  1.
</event>
<event>
 7    1  0.2294216E-010  0.4778727E+02  0.7816164E-02  0.1312668E+00
        -11   -1    0    0    0    0  0.00000000000E+00  0.00000000000E+00  0.45593999997E+02  0.45594000000E+02  0.51100000000E-03 0. -1.
         11   -1    0    0    0    0 -0.00000000000E+00 -0.00000000000E+00 -0.45593999997E+02  0.45594000000E+02  0.51100000000E-03 0.  1.
    9900012    2    1    2    0    0 -0.39685040334E+01  0.12715808863E+02  0.41305960997E+02  0.47787271513E+02  0.20000002136E+02 0.  0.
        -12    1    1    2    0    0  0.39685040334E+01 -0.12715808863E+02 -0.41305960997E+02  0.43400728487E+02  0.00000000000E+00 0.  1.
         11    1    3    3    0    0  0.11004336467E+01  0.14964996303E+02  0.28286324594E+02  0.32019966081E+02  0.51100000000E-03 0. -1.
        -11    1    3    3    0    0 -0.18287187461E+01  0.12712707556E+01  0.96787916704E+01  0.99317344934E+01  0.51100000000E-03 0.  1.
        -12    1    3    3    0    0 -0.32402189339E+01 -0.35204581952E+01  0.33408447328E+01  0.58355709380E+01  0.00000000000E+00 0.  1.
</event>
<event>
 7    1  0.2294216E-010  0.4778727E+02  0.7816164E-02  0.1312668E+00
        -11   -1    0    0    0    0  0.00000000000E+00  0.00000000000E+00  0.45593999997E+02  0.45594000000E+02  0.51100000000E-03 0.  1.
         11   -1    0    0    0    0 -0.00000000000E+00 -0.00000000000E+00 -0.45593999997E+02  0.45594000000E+02  0.51100000000E-03 0. -1.
    9900012    2    1    2    0    0 -0.15139144847E+02  0.78700170602E+01 -0.39906046847E+02  0.47787269014E+02  0.19999990742E+02 0.  0.
        -12    1    1    2    0    0  0.15139144847E+02 -0.78700170602E+01  0.39906046847E+02  0.43400730986E+02  0.00000000000E+00 0.  1.
         11    1    3    3    0    0  0.16385109467E+01  0.31864648488E+01 -0.26935718832E+01  0.44825892190E+01  0.51100000000E-03 0. -1.
        -11    1    3    3    0    0 -0.14661646690E+01 -0.58353190881E+00  0.95505515079E+00  0.18445267489E+01  0.51100000000E-03 0.  1.
         12    1    3    3    0    0 -0.15311491124E+02  0.52670841202E+01 -0.38167530114E+02  0.41460153046E+02  0.00000000000E+00 0. -1.
</event>
<event>
 7    1  0.2294216E-010  0.4778727E+02  0.7816164E-02  0.1312668E+00
        -11   -1    0    0    0    0  0.00000000000E+00  0.00000000000E+00  0.45593999997E+02  0.45594000000E+02  0.51100000000E-03 0. -1.
         11   -1    0    0    0    0 -0.00000000000E+00 -0.00000000000E+00 -0.45593999997E+02  0.45594000000E+02  0.51100000000E-03 0.  1.
    9900012    2    1    2    0    0 -0.65785323963E+01  0.22209246669E+02  0.36702801540E+02  0.47787269972E+02  0.19999995110E+02 0.  0.
        -12    1    1    2    0    0  0.65785323963E+01 -0.22209246669E+02 -0.36702801540E+02  0.43400730028E+02  0.00000000000E+00 0.  1.
         11    1    3    3    0    0 -0.14269088761E+01  0.93910264252E+01  0.29532007325E+02  0.31022038991E+02  0.51100000000E-03 0. -1.
        -11    1    3    3    0    0 -0.42264881071E+01  0.57805664566E+01  0.64377731827E+01  0.96292821172E+01  0.51100000000E-03 0.  1.
         12    1    3    3    0    0 -0.92513541312E+00  0.70376537867E+01  0.73302103272E+00  0.71359488639E+01  0.00000000000E+00 0. -1.
</event>
<event>
 7    1  0.2294216E-010  0.4778724E+02  0.7816164E-02  0.1312668E+00
        -11   -1    0    0    0    0  0.00000000000E+00  0.00000000000E+00  0.45593999997E+02  0.45594000000E+02  0.51100000000E-03 0.  1.
         11   -1    0    0    0    0 -0.00000000000E+00 -0.00000000000E+00 -0.45593999997E+02  0.45594000000E+02  0.51100000000E-03 0. -1.
    9900012    2    1    2    0    0 -0.12863706609E+02  0.39352057686E+02 -0.13021765915E+02  0.47787242179E+02  0.19999868392E+02 0.  0.
        -12    1    1    2    0    0  0.12863706609E+02 -0.39352057686E+02  0.13021765915E+02  0.43400757821E+02  0.00000000000E+00 0.  1.
         11    1    3    3    0    0 -0.31457166171E+01  0.67649285473E+01 -0.65607213299E+01  0.99349310977E+01  0.51100000000E-03 0. -1.
        -11    1    3    3    0    0 -0.34834339638E+01  0.35387992678E+01 -0.64530807035E+01  0.81424605167E+01  0.51100000000E-03 0.  1.
        -12    1    3    3    0    0 -0.62345560280E+01  0.29048329871E+02 -0.79638812410E-02  0.29709850565E+02  0.00000000000E+00 0.  1.
</event>
<event>
 7    1  0.2294216E-010  0.4778727E+02  0.7816164E-02  0.1312668E+00
        -11   -1    0    0    0    0  0.00000000000E+00  0.00000000000E+00  0.45593999997E+02  0.45594000000E+02  0.51100000000E-03 0.  1.
         11   -1    0    0    0    0 -0.00000000000E+00 -0.00000000000E+00 -0.45593999997E+02  0.45594000000E+02  0.51100000000E-03 0. -1.
    9900012    2    1    2    0    0  0.12598772070E+02 -0.40495998491E+02 -0.92178279990E+01  0.47787270692E+02  0.19999998392E+02 0.  0.
        -12    1    1    2    0    0 -0.12598772070E+02  0.40495998491E+02  0.92178279990E+01  0.43400729308E+02  0.00000000000E+00 0.  1.
         11    1    3    3    0    0  0.11291419586E+01  0.29505472056E-01 -0.60954197988E+00  0.12835006124E+01  0.51100000000E-03 0. -1.
        -11    1    3    3    0    0  0.14010171524E+02 -0.29928279547E+02 -0.72389545472E+00  0.33053151857E+02  0.51100000000E-03 0.  1.
        -12    1    3    3    0    0 -0.25405414130E+01 -0.10597224416E+02 -0.78843905644E+01  0.13450618222E+02  0.00000000000E+00 0.  1.
</event>
<event>
 7    1  0.2294216E-010  0.4778727E+02  0.7816164E-02  0.1312668E+00
        -11   -1    0    0    0    0  0.00000000000E+00  0.00000000000E+00  0.45593999997E+02  0.45594000000E+02  0.51100000000E-03 0.  1.
         11   -1    0    0    0    0 -0.00000000000E+00 -0.00000000000E+00 -0.45593999997E+02  0.45594000000E+02  0.51100000000E-03 0. -1.
    9900012    2    1    2    0    0 -0.16215119707E+02 -0.29785928550E+02 -0.27083052282E+02  0.47787269965E+02  0.19999995076E+02 0.  0.
        -12    1    1    2    0    0  0.16215119707E+02  0.29785928550E+02  0.27083052282E+02  0.43400730035E+02  0.00000000000E+00 0.  1.
         11    1    3    3    0    0  0.59150035988E+00 -0.73811138840E+01 -0.53512317413E+01  0.91359945411E+01  0.51100000000E-03 0. -1.
        -11    1    3    3    0    0 -0.12309654121E+02 -0.24168133147E+02 -0.18796506445E+02  0.32999013609E+02  0.51100000000E-03 0.  1.
        -12    1    3    3    0    0 -0.44969659455E+01  0.17633184804E+01 -0.29353140955E+01  0.56522618143E+01  0.00000000000E+00 0.  1.
</event>
<event>
 7    1  0.2294216E-010  0.4778727E+02  0.7816164E-02  0.1312668E+00
        -11   -1    0    0    0    0  0.00000000000E+00  0.00000000000E+00  0.45593999997E+02  0.45594000000E+02  0.51100000000E-03 0. -1.
         11   -1    0    0    0    0 -0.00000000000E+00 -0.00000000000E+00 -0.45593999997E+02  0.45594000000E+02  0.51100000000E-03 0.  1.
    9900012    2    1    2    0    0 -0.10446016010E+02 -0.39676856834E+02  0.14151008506E+02  0.47787271199E+02  0.20000000705E+02 0.  0.
        -12    1    1    2    0    0  0.10446016010E+02  0.39676856834E+02 -0.14151008506E+02  0.43400728801E+02  0.00000000000E+00 0.  1.
         11    1    3    3    0    0 -0.98892610766E+01 -0.19227764132E+02  0.14798316536E+02  0.26201041405E+02  0.51100000000E-03 0. -1.
        -11    1    3    3    0    0  0.15454985887E+01 -0.17993937395E+01  0.13217597566E+01  0.27154065686E+01  0.51100000000E-03 0.  1.
         12    1    3    3    0    0 -0.21022535222E+01 -0.18649698962E+02 -0.19690677866E+01  0.18870823225E+02  0.00000000000E+00 0. -1.
</event>
<event>
 7    1  0.2294216E-010  0.4778727E+02  0.7816164E-02  0.1312668E+00
        -11   -1    0    0    0    0  0.00000000000E+00  0.00000000000E+00  0.45593999997E+02  0.45594000000E+02  0.51100000000E-03 0.  1.
         11   -1    0    0    0    0 -0.00000000000E+00 -0.00000000000E+00 -0.45593999997E+02  0.45594000000E+02  0.51100000000E-03 0. -1.
    9900012    2    1    2    0    0 -0.39274390089E+02 -0.91068484534E+00 -0.18447660591E+02  0.47787271377E+02  0.20000001517E+02 0.  0.
        -12    1    1    2    0    0  0.39274390089E+02  0.91068484534E+00  0.18447660591E+02  0.43400728623E+02  0.00000000000E+00 0.  1.
         11    1    3    3    0    0 -0.17231884897E+01 -0.21366360049E+01 -0.28728079281E+01  0.39733635173E+01  0.51100000000E-03 0. -1.
        -11    1    3    3    0    0 -0.78481484479E+01 -0.47344173284E+01  0.11025008503E+01  0.92316656074E+01  0.51100000000E-03 0.  1.
         12    1    3    3    0    0 -0.29703053151E+02  0.59603684879E+01 -0.16677353513E+02  0.34582242252E+02  0.00000000000E+00 0. -1.
</event>
<event>
 7    1  0.2294216E-010  0.4778727E+02  0.7816164E-02  0.1312668E+00
        -11   -1    0    0    0    0  0.00000000000E+00  0.00000000000E+00  0.45593999997E+02  0.45594000000E+02  0.51100000000E-03 0.  1.
         11   -1    0    0    0    0 -0.00000000000E+00 -0.00000000000E+00 -0.45593999997E+02  0.45594000000E+02  0.51100000000E-03 0. -1.
    9900012    2    1    2    0    0  0.22980821092E+02 -0.93614746149E+00 -0.36805282927E+02  0.47787270036E+02  0.19999995400E+02 0.  0.
        -12    1    1    2    0    0 -0.22980821092E+02  0.93614746149E+00  0.36805282927E+02  0.43400729964E+02  0.00000000000E+00 0.  1.
         11    1    3    3    0    0 -0.25424031747E+00  0.23570899278E+00 -0.93432140381E+01  0.93496441479E+01  0.51100000000E-03 0. -1.
        -11    1    3    3    0    0  0.42857416080E+01 -0.39255324767E+01 -0.11974000279E+01  0.59338986715E+01  0.51100000000E-03 0.  1.
         12    1    3    3    0    0  0.18949319802E+02  0.27536760224E+01 -0.26264668861E+02  0.32503727216E+02  0.00000000000E+00 0. -1.
</event>
<event>
 7    1  0.2294216E-010  0.4778727E+02  0.7816164E-02  0.1312668E+00
        -11   -1    0    0    0    0  0.00000000000E+00  0.00000000000E+00  0.45593999997E+02  0.45594000000E+02  0.51100000000E-03 0.  1.
         11   -1    0    0    0    0 -0.00000000000E+00 -0.00000000000E+00 -0.45593999997E+02  0.45594000000E+02  0.51100000000E-03 0. -1.
    9900012    2    1    2    0    0 -0.29714192689E+02 -0.31633644013E+02  0.51100520080E-01  0.47787270836E+02  0.19999999049E+02 0.  0.
        -12    1    1    2    0    0  0.29714192689E+02  0.31633644013E+02 -0.51100520080E-01  0.43400729164E+02  0.00000000000E+00 0.  1.
         11    1    3    3    0    0 -0.33395346886E+01 -0.36046390716E+01  0.17925062221E+01  0.52305825288E+01  0.51100000000E-03 0. -1.
        -11    1    3    3    0    0 -0.47988899831E+01 -0.16706544982E+02  0.32530049302E+01  0.17683891869E+02  0.51100000000E-03 0.  1.
         12    1    3    3    0    0 -0.21575768018E+02 -0.11322459960E+02 -0.49944106322E+01  0.24872796438E+02  0.00000000000E+00 0. -1.
</event>
<event>
 7    1  0.2294216E-010  0.4778728E+02  0.7816164E-02  0.1312668E+00
        -11   -1    0    0    0    0  0.00000000000E+00  0.00000000000E+00  0.45593999997E+02  0.45594000000E+02  0.51100000000E-03 0.  1.
         11   -1    0    0    0    0 -0.00000000000E+00 -0.00000000000E+00 -0.45593999997E+02  0.45594000000E+02  0.51100000000E-03 0. -1.
    9900012    2    1    2    0    0 -0.18059352822E+02  0.35431127761E+02 -0.17381535632E+02  0.47787276277E+02  0.20000023857E+02 0.  0.
        -12    1    1    2    0    0  0.18059352822E+02 -0.35431127761E+02  0.17381535632E+02  0.43400723723E+02  0.00000000000E+00 0.  1.
         11    1    3    3    0    0 -0.38611161237E+01  0.84941424882E+00 -0.12030499794E+01  0.41324389651E+01  0.51100000000E-03 0. -1.
        -11    1    3    3    0    0 -0.11248320887E+02  0.13224218267E+02 -0.12004140029E+01  0.17402461481E+02  0.51100000000E-03 0.  1.
         12    1    3    3    0    0 -0.29499158117E+01  0.21357495244E+02 -0.14978071650E+02  0.26252375831E+02  0.00000000000E+00 0. -1.
</event>
<event>
 7    1  0.2294216E-010  0.4778727E+02  0.7816164E-02  0.1312668E+00
        -11   -1    0    0    0    0  0.00000000000E+00  0.00000000000E+00  0.45593999997E+02  0.45594000000E+02  0.51100000000E-03 0.  1.
         11   -1    0    0    0    0 -0.00000000000E+00 -0.00000000000E+00 -0.45593999997E+02  0.45594000000E+02  0.51100000000E-03 0. -1.
    9900012    2    1    2    0    0 -0.39674149492E+02 -0.16512206625E+02  0.60771935263E+01  0.47787269744E+02  0.19999994073E+02 0.  0.
        -12    1    1    2    0    0  0.39674149492E+02  0.16512206625E+02 -0.60771935263E+01  0.43400730256E+02  0.00000000000E+00 0.  1.
         11    1    3    3    0    0 -0.10326928639E+02 -0.89004212169E+01 -0.22064919542E+01  0.13810559726E+02  0.51100000000E-03 0. -1.
        -11    1    3    3    0    0 -0.82017152375E+01 -0.74214717548E+01  0.63202650485E+01  0.12739392701E+02  0.51100000000E-03 0.  1.
        -12    1    3    3    0    0 -0.21145505616E+02 -0.19031365343E+00  0.19634204320E+01  0.21237317317E+02  0.00000000000E+00 0.  1.
</event>
<event>
 7    1  0.2294216E-010  0.4778727E+02  0.7816164E-02  0.1312668E+00
        -11   -1    0    0    0    0  0.00000000000E+00  0.00000000000E+00  0.45593999997E+02  0.45594000000E+02  0.51100000000E-03 0.  1.
         11   -1    0    0    0    0 -0.00000000000E+00 -0.00000000000E+00 -0.45593999997E+02  0.45594000000E+02  0.51100000000E-03 0. -1.
    9900012    2    1    2    0    0 -0.33158785376E+01 -0.43121253171E+02 -0.36312061323E+01  0.47787272086E+02  0.20000004747E+02 0.  0.
        -12    1    1    2    0    0  0.33158785376E+01  0.43121253171E+02  0.36312061323E+01  0.43400727914E+02  0.00000000000E+00 0.  1.
         11    1    3    3    0    0 -0.72644673604E+01 -0.33538498193E+02 -0.21661958151E+01  0.34384527795E+02  0.51100000000E-03 0. -1.
        -11    1    3    3    0    0 -0.97721965022E+00 -0.55139775617E+01  0.22238687011E+01  0.60253214899E+01  0.51100000000E-03 0.  1.
         12    1    3    3    0    0  0.49258084731E+01 -0.40687774162E+01 -0.36888790183E+01  0.73774228012E+01  0.00000000000E+00 0. -1.
</event>
<event>
 7    1  0.2294216E-010  0.4778727E+02  0.7816164E-02  0.1312668E+00
        -11   -1    0    0    0    0  0.00000000000E+00  0.00000000000E+00  0.45593999997E+02  0.45594000000E+02  0.51100000000E-03 0.  1.
         11   -1    0    0    0    0 -0.00000000000E+00 -0.00000000000E+00 -0.45593999997E+02  0.45594000000E+02  0.51100000000E-03 0. -1.
    9900012    2    1    2    0    0 -0.17161642462E+02  0.18380422140E+00 -0.39863108895E+02  0.47787271818E+02  0.20000003527E+02 0.  0.
        -12    1    1    2    0    0  0.17161642462E+02 -0.18380422140E+00  0.39863108895E+02  0.43400728182E+02  0.00000000000E+00 0.  1.
         11    1    3    3    0    0 -0.75231513814E+01  0.20831746173E+01 -0.23834195066E+01  0.81619919137E+01  0.51100000000E-03 0. -1.
        -11    1    3    3    0    0 -0.46418804953E+01 -0.31543878312E+01 -0.84629068950E+01  0.10154703861E+02  0.51100000000E-03 0.  1.
        -12    1    3    3    0    0 -0.49966105849E+01  0.12550174353E+01 -0.29016782493E+02  0.29470576044E+02  0.00000000000E+00 0.  1.
</event>
<event>
 7    1  0.2294216E-010  0.4778726E+02  0.7816164E-02  0.1312668E+00
        -11   -1    0    0    0    0  0.00000000000E+00  0.00000000000E+00  0.45593999997E+02  0.45594000000E+02  0.51100000000E-03 0.  1.
         11   -1    0    0    0    0 -0.00000000000E+00 -0.00000000000E+00 -0.45593999997E+02  0.45594000000E+02  0.51100000000E-03 0. -1.
    9900012    2    1    2    0    0 -0.32644249282E+02 -0.31267154974E+01 -0.28428870244E+02  0.47787262398E+02  0.19999960577E+02 0.  0.
        -12    1    1    2    0    0  0.32644249282E+02  0.31267154974E+01  0.28428870244E+02  0.43400737602E+02  0.00000000000E+00 0.  1.
         11    1    3    3    0    0 -0.66140495773E+01  0.19690560557E+01 -0.11847473802E+02  0.13710779311E+02  0.51100000000E-03 0. -1.
        -11    1    3    3    0    0 -0.13526932814E+01 -0.46943673514E+01 -0.43030526741E+01  0.65102324475E+01  0.51100000000E-03 0.  1.
         12    1    3    3    0    0 -0.24677506424E+02 -0.40140420170E+00 -0.12278343768E+02  0.27566250640E+02  0.00000000000E+00 0. -1.
</event>
<event>
 7    1  0.2294216E-010  0.4778727E+02  0.7816164E-02  0.1312668E+00
        -11   -1    0    0    0    0  0.00000000000E+00  0.00000000000E+00  0.45593999997E+02  0.45594000000E+02  0.51100000000E-03 0.  1.
         11   -1    0    0    0    0 -0.00000000000E+00 -0.00000000000E+00 -0.45593999997E+02  0.45594000000E+02  0.51100000000E-03 0. -1.
    9900012    2    1    2    0    0 -0.19893131624E+01 -0.12099609359E+02 -0.41632503960E+02  0.47787270749E+02  0.19999998654E+02 0.  0.
        -12    1    1    2    0    0  0.19893131624E+01  0.12099609359E+02  0.41632503960E+02  0.43400729251E+02  0.00000000000E+00 0.  1.
         11    1    3    3    0    0  0.35726782621E+01  0.33594059995E+01 -0.11062762060E+02  0.12101005879E+02  0.51100000000E-03 0. -1.
        -11    1    3    3    0    0 -0.10371981809E+01 -0.97770142492E+01 -0.10703354604E+02  0.14533670828E+02  0.51100000000E-03 0.  1.
        -12    1    3    3    0    0 -0.45247932435E+01 -0.56820011094E+01 -0.19866387296E+02  0.21152594042E+02  0.00000000000E+00 0.  1.
</event>
<event>
 7    1  0.2294216E-010  0.4778728E+02  0.7816164E-02  0.1312668E+00
        -11   -1    0    0    0    0  0.00000000000E+00  0.00000000000E+00  0.45593999997E+02  0.45594000000E+02  0.51100000000E-03 0.  1.
         11   -1    0    0    0    0 -0.00000000000E+00 -0.00000000000E+00 -0.45593999997E+02  0.45594000000E+02  0.51100000000E-03 0. -1.
    9900012    2    1    2    0    0  0.43097996907E+02 -0.14908943065E+01 -0.48950960040E+01  0.47787284935E+02  0.20000063333E+02 0.  0.
        -12    1    1    2    0    0 -0.43097996907E+02  0.14908943065E+01  0.48950960040E+01  0.43400715065E+02  0.00000000000E+00 0.  1.
         11    1    3    3    0    0 -0.29645785786E+00  0.71761761129E+00 -0.17381838901E+01  0.19037189379E+01  0.51100000000E-03 0. -1.
        -11    1    3    3    0    0  0.91821921028E+01  0.30400733169E+01  0.41218205677E+01  0.10513995560E+02  0.51100000000E-03 0.  1.
         12    1    3    3    0    0  0.34212262662E+02 -0.52485852347E+01 -0.72787326816E+01  0.35369570437E+02  0.00000000000E+00 0. -1.
</event>
<event>
 7    1  0.2294216E-010  0.4778727E+02  0.7816164E-02  0.1312668E+00
        -11   -1    0    0    0    0  0.00000000000E+00  0.00000000000E+00  0.45593999997E+02  0.45594000000E+02  0.51100000000E-03 0.  1.
         11   -1    0    0    0    0 -0.00000000000E+00 -0.00000000000E+00 -0.45593999997E+02  0.45594000000E+02  0.51100000000E-03 0. -1.
    9900012    2    1    2    0    0 -0.50119352277E+01  0.25689185580E+02 -0.34620361648E+02  0.47787271998E+02  0.20000004349E+02 0.  0.
        -12    1    1    2    0    0  0.50119352277E+01 -0.25689185580E+02  0.34620361648E+02  0.43400728002E+02  0.00000000000E+00 0.  1.
         11    1    3    3    0    0  0.92656994855E+00 -0.47290810557E+00 -0.20744522843E+01  0.23206737140E+01  0.51100000000E-03 0. -1.
        -11    1    3    3    0    0  0.17381828394E+01 -0.15757431340E+01 -0.50922923730E+00  0.24007416948E+01  0.51100000000E-03 0.  1.
         12    1    3    3    0    0 -0.76766880156E+01  0.27737836819E+02 -0.32036680126E+02  0.43065856590E+02  0.00000000000E+00 0. -1.
</event>
<event>
 7    1  0.2294216E-010  0.4778728E+02  0.7816164E-02  0.1312668E+00
        -11   -1    0    0    0    0  0.00000000000E+00  0.00000000000E+00  0.45593999997E+02  0.45594000000E+02  0.51100000000E-03 0. -1.
         11   -1    0    0    0    0 -0.00000000000E+00 -0.00000000000E+00 -0.45593999997E+02  0.45594000000E+02  0.51100000000E-03 0.  1.
    9900012    2    1    2    0    0  0.93982413619E+01 -0.40686379782E+02  0.11828534004E+02  0.47787278150E+02  0.20000032395E+02 0.  0.
        -12    1    1    2    0    0 -0.93982413619E+01  0.40686379782E+02 -0.11828534004E+02  0.43400721850E+02  0.00000000000E+00 0.  1.
         11    1    3    3    0    0  0.59627611867E+01 -0.93342144084E+01  0.66378848313E+01  0.12912923561E+02  0.51100000000E-03 0. -1.
        -11    1    3    3    0    0  0.31998574987E-01 -0.39913955271E+01  0.60975247395E+01  0.72878028494E+01  0.51100000000E-03 0.  1.
        -12    1    3    3    0    0  0.34034816003E+01 -0.27360769846E+02 -0.90687556628E+00  0.27586551739E+02  0.00000000000E+00 0.  1.
</event>
<event>
 7    1  0.2294216E-010  0.4778726E+02  0.7816164E-02  0.1312668E+00
        -11   -1    0    0    0    0  0.00000000000E+00  0.00000000000E+00  0.45593999997E+02  0.45594000000E+02  0.51100000000E-03 0.  1.
         11   -1    0    0    0    0 -0.00000000000E+00 -0.00000000000E+00 -0.45593999997E+02  0.45594000000E+02  0.51100000000E-03 0. -1.
    9900012    2    1    2    0    0  0.23853688158E+02  0.38979550735E+01 -0.36047636558E+02  0.47787255837E+02  0.19999930665E+02 0.  0.
        -12    1    1    2    0    0 -0.23853688158E+02 -0.38979550735E+01  0.36047636558E+02  0.43400744163E+02  0.00000000000E+00 0.  1.
         11    1    3    3    0    0  0.16177069037E+02 -0.49879140561E+01 -0.17938616568E+02  0.24665174110E+02  0.51100000000E-03 0. -1.
        -11    1    3    3    0    0  0.39957617142E+01  0.89473068438E+00 -0.11232140167E+02  0.11955234321E+02  0.51100000000E-03 0.  1.
        -12    1    3    3    0    0  0.36808574064E+01  0.79911384452E+01 -0.68768798225E+01  0.11166847406E+02  0.00000000000E+00 0.  1.
</event>
<event>
 7    1  0.2294216E-010  0.4778728E+02  0.7816164E-02  0.1312668E+00
        -11   -1    0    0    0    0  0.00000000000E+00  0.00000000000E+00  0.45593999997E+02  0.45594000000E+02  0.51100000000E-03 0. -1.
         11   -1    0    0    0    0 -0.00000000000E+00 -0.00000000000E+00 -0.45593999997E+02  0.45594000000E+02  0.51100000000E-03 0.  1.
    9900012    2    1    2    0    0 -0.14855326166E+02 -0.33336544108E+02  0.23486524430E+02  0.47787277444E+02  0.20000029178E+02 0.  0.
        -12    1    1    2    0    0  0.14855326166E+02  0.33336544108E+02 -0.23486524430E+02  0.43400722556E+02  0.00000000000E+00 0.  1.
         11    1    3    3    0    0 -0.23669007074E+01 -0.12108299208E+01 -0.14887181486E+00  0.26627976142E+01  0.51100000000E-03 0. -1.
        -11    1    3    3    0    0 -0.22550048506E+01 -0.96873021516E+00 -0.22618219162E+01  0.33375625459E+01  0.51100000000E-03 0.  1.
         12    1    3    3    0    0 -0.10233420608E+02 -0.31156983972E+02  0.25897218161E+02  0.41786917284E+02  0.00000000000E+00 0. -1.
</event>
<event>
 7    1  0.2294216E-010  0.4778727E+02  0.7816164E-02  0.1312668E+00
        -11   -1    0    0    0    0  0.00000000000E+00  0.00000000000E+00  0.45593999997E+02  0.45594000000E+02  0.51100000000E-03 0.  1.
         11   -1    0    0    0    0 -0.00000000000E+00 -0.00000000000E+00 -0.45593999997E+02  0.45594000000E+02  0.51100000000E-03 0. -1.
    9900012    2    1    2    0    0 -0.41202898188E+02  0.83727203218E+01 -0.10762993423E+02  0.47787270834E+02  0.19999999041E+02 0.  0.
        -12    1    1    2    0    0  0.41202898188E+02 -0.83727203218E+01  0.10762993423E+02  0.43400729166E+02  0.00000000000E+00 0.  1.
         11    1    3    3    0    0 -0.21527631075E+02  0.77344190784E+01 -0.12200657446E+02  0.25925203578E+02  0.51100000000E-03 0. -1.
        -11    1    3    3    0    0 -0.15556601338E+02  0.44024642116E+01  0.31503287558E+00  0.16170614778E+02  0.51100000000E-03 0.  1.
        -12    1    3    3    0    0 -0.41186657751E+01 -0.37641629682E+01  0.11226311470E+01  0.56914524781E+01  0.00000000000E+00 0.  1.
</event>
<event>
 7    1  0.2294216E-010  0.4778727E+02  0.7816164E-02  0.1312668E+00
        -11   -1    0    0    0    0  0.00000000000E+00  0.00000000000E+00  0.45593999997E+02  0.45594000000E+02  0.51100000000E-03 0.  1.
         11   -1    0    0    0    0 -0.00000000000E+00 -0.00000000000E+00 -0.45593999997E+02  0.45594000000E+02  0.51100000000E-03 0. -1.
    9900012    2    1    2    0    0 -0.40942335819E+02  0.48057427448E+01 -0.13573997698E+02  0.47787269140E+02  0.19999991318E+02 0.  0.
        -12    1    1    2    0    0  0.40942335819E+02 -0.48057427448E+01  0.13573997698E+02  0.43400730860E+02  0.00000000000E+00 0.  1.
         11    1    3    3    0    0 -0.23721931137E+02  0.11769522933E+01 -0.15179090134E+01  0.23799564736E+02  0.51100000000E-03 0. -1.
        -11    1    3    3    0    0  0.58661081644E+00  0.34208674041E+00  0.13137880179E+01  0.14789100058E+01  0.51100000000E-03 0.  1.
        -12    1    3    3    0    0 -0.17807015498E+02  0.32867037111E+01 -0.13369876702E+02  0.22508794399E+02  0.00000000000E+00 0.  1.
</event>
<event>
 7    1  0.2294216E-010  0.4778727E+02  0.7816164E-02  0.1312668E+00
        -11   -1    0    0    0    0  0.00000000000E+00  0.00000000000E+00  0.45593999997E+02  0.45594000000E+02  0.51100000000E-03 0. -1.
         11   -1    0    0    0    0 -0.00000000000E+00 -0.00000000000E+00 -0.45593999997E+02  0.45594000000E+02  0.51100000000E-03 0.  1.
    9900012    2    1    2    0    0 -0.35521589431E+02 -0.12445054737E+02  0.21609269910E+02  0.47787271330E+02  0.20000001300E+02 0.  0.
        -12    1    1    2    0    0  0.35521589431E+02  0.12445054737E+02 -0.21609269910E+02  0.43400728670E+02  0.00000000000E+00 0.  1.
         11    1    3    3    0    0 -0.32505389969E+01  0.14382594207E+01  0.36352713430E+01  0.50842690654E+01  0.51100000000E-03 0. -1.
        -11    1    3    3    0    0 -0.14547527380E+02 -0.60134704822E+01  0.17170476751E+02  0.23294154895E+02  0.51100000000E-03 0.  1.
        -12    1    3    3    0    0 -0.17723523054E+02 -0.78698436754E+01  0.80352181519E+00  0.19408847370E+02  0.00000000000E+00 0.  1.
</event>
<event>
 7    1  0.2294216E-010  0.4778727E+02  0.7816164E-02  0.1312668E+00
        -11   -1    0    0    0    0  0.00000000000E+00  0.00000000000E+00  0.45593999997E+02  0.45594000000E+02  0.51100000000E-03 0.  1.
         11   -1    0    0    0    0 -0.00000000000E+00 -0.00000000000E+00 -0.45593999997E+02  0.45594000000E+02  0.51100000000E-03 0. -1.
    9900012    2    1    2    0    0  0.33367215442E+01  0.43125922549E+02  0.35558788668E+01  0.47787272115E+02  0.20000004883E+02 0.  0.
        -12    1    1    2    0    0 -0.33367215442E+01 -0.43125922549E+02 -0.35558788668E+01  0.43400727885E+02  0.00000000000E+00 0.  1.
         11    1    3    3    0    0 -0.29616067546E+01  0.22712817578E+01 -0.20675705922E+01  0.42666947169E+01  0.51100000000E-03 0. -1.
        -11    1    3    3    0    0 -0.86397888920E+00 -0.44200310347E+00 -0.61025886941E+00  0.11464041230E+01  0.51100000000E-03 0.  1.
         12    1    3    3    0    0  0.71623071881E+01  0.41296643895E+02  0.62337083283E+01  0.42374173275E+02  0.00000000000E+00 0. -1.
</event>
<event>
 7    1  0.2294216E-010  0.4778727E+02  0.7816164E-02  0.1312668E+00
        -11   -1    0    0    0    0  0.00000000000E+00  0.00000000000E+00  0.45593999997E+02  0.45594000000E+02  0.51100000000E-03 0.  1.
         11   -1    0    0    0    0 -0.00000000000E+00 -0.00000000000E+00 -0.45593999997E+02  0.45594000000E+02  0.51100000000E-03 0. -1.
    9900012    2    1    2    0    0 -0.10301011979E+02 -0.14613233625E+02 -0.39547010337E+02  0.47787268769E+02  0.19999989625E+02 0.  0.
        -12    1    1    2    0    0  0.10301011979E+02  0.14613233625E+02  0.39547010337E+02  0.43400731231E+02  0.00000000000E+00 0.  1.
         11    1    3    3    0    0 -0.26430367922E+01 -0.87484557688E+01 -0.83329168202E+01  0.12367644271E+02  0.51100000000E-03 0. -1.
        -11    1    3    3    0    0  0.30135039135E+01 -0.24696973620E+01 -0.25784554175E+01  0.46721561937E+01  0.51100000000E-03 0.  1.
         12    1    3    3    0    0 -0.10671479100E+02 -0.33950804941E+01 -0.28635638100E+02  0.30747468304E+02  0.00000000000E+00 0. -1.
</event>
<event>
 7    1  0.2294216E-010  0.4778728E+02  0.7816164E-02  0.1312668E+00
        -11   -1    0    0    0    0  0.00000000000E+00  0.00000000000E+00  0.45593999997E+02  0.45594000000E+02  0.51100000000E-03 0. -1.
         11   -1    0    0    0    0 -0.00000000000E+00 -0.00000000000E+00 -0.45593999997E+02  0.45594000000E+02  0.51100000000E-03 0.  1.
    9900012    2    1    2    0    0  0.13605625159E+02  0.30583314897E+02 -0.27625532872E+02  0.47787282811E+02  0.20000053647E+02 0.  0.
        -12    1    1    2    0    0 -0.13605625159E+02 -0.30583314897E+02  0.27625532872E+02  0.43400717189E+02  0.00000000000E+00 0.  1.
         11    1    3    3    0    0  0.61239405466E+01  0.12195882318E+02 -0.93057756423E+01  0.16517858636E+02  0.51100000000E-03 0. -1.
        -11    1    3    3    0    0  0.15600471322E+01  0.14661783067E+02 -0.19210676911E+02  0.24216765626E+02  0.51100000000E-03 0.  1.
        -12    1    3    3    0    0  0.59216374800E+01  0.37256495120E+01  0.89091968062E+00  0.70526585490E+01  0.00000000000E+00 0.  1.
</event>
<event>
 7    1  0.2294216E-010  0.4778727E+02  0.7816164E-02  0.1312668E+00
        -11   -1    0    0    0    0  0.00000000000E+00  0.00000000000E+00  0.45593999997E+02  0.45594000000E+02  0.51100000000E-03 0.  1.
         11   -1    0    0    0    0 -0.00000000000E+00 -0.00000000000E+00 -0.45593999997E+02  0.45594000000E+02  0.51100000000E-03 0. -1.
    9900012    2    1    2    0    0  0.49429639179E+01 -0.17529464297E+02 -0.39394266118E+02  0.47787271737E+02  0.20000003157E+02 0.  0.
        -12    1    1    2    0    0 -0.49429639179E+01  0.17529464297E+02  0.39394266118E+02  0.43400728263E+02  0.00000000000E+00 0.  1.
         11    1    3    3    0    0 -0.44191045683E+01 -0.36828936937E+00 -0.16392936285E+02  0.16982122439E+02  0.51100000000E-03 0. -1.
        -11    1    3    3    0    0  0.29783945150E+01 -0.11740624271E+02 -0.13289232915E+02  0.17981012316E+02  0.51100000000E-03 0.  1.
        -12    1    3    3    0    0  0.63836739712E+01 -0.54205506559E+01 -0.97120969183E+01  0.12824136982E+02  0.00000000000E+00 0.  1.
</event>
<event>
 7    1  0.2294216E-010  0.4778727E+02  0.7816164E-02  0.1312668E+00
        -11   -1    0    0    0    0  0.00000000000E+00  0.00000000000E+00  0.45593999997E+02  0.45594000000E+02  0.51100000000E-03 0. -1.
         11   -1    0    0    0    0 -0.00000000000E+00 -0.00000000000E+00 -0.45593999997E+02  0.45594000000E+02  0.51100000000E-03 0.  1.
    9900012    2    1    2    0    0 -0.29857968497E+02  0.27037913449E+02  0.16157848972E+02  0.47787272703E+02  0.20000007563E+02 0.  0.
        -12    1    1    2    0    0  0.29857968497E+02 -0.27037913449E+02 -0.16157848972E+02  0.43400727297E+02  0.00000000000E+00 0.  1.
         11    1    3    3    0    0  0.22392834129E+01  0.54650934108E+01  0.19980131455E+01  0.62348771425E+01  0.51100000000E-03 0.  1.
        -11    1    3    3    0    0 -0.56682482552E+01  0.36615658124E+01  0.48034933501E+01  0.82830942954E+01  0.51100000000E-03 0. -1.
        -12    1    3    3    0    0 -0.26429003655E+02  0.17911254226E+02  0.93563424767E+01  0.33269301265E+02  0.00000000000E+00 0.  1.
</event>
<event>
 7    1  0.2294216E-010  0.4778727E+02  0.7816164E-02  0.1312668E+00
        -11   -1    0    0    0    0  0.00000000000E+00  0.00000000000E+00  0.45593999997E+02  0.45594000000E+02  0.51100000000E-03 0.  1.
         11   -1    0    0    0    0 -0.00000000000E+00 -0.00000000000E+00 -0.45593999997E+02  0.45594000000E+02  0.51100000000E-03 0. -1.
    9900012    2    1    2    0    0 -0.23518542181E+02  0.93641288282E+01 -0.35253579687E+02  0.47787267105E+02  0.19999982040E+02 0.  0.
        -12    1    1    2    0    0  0.23518542181E+02 -0.93641288282E+01  0.35253579687E+02  0.43400732895E+02  0.00000000000E+00 0.  1.
         11    1    3    3    0    0 -0.86827758263E+01 -0.35119184880E+01 -0.77652173193E+01  0.12166460775E+02  0.51100000000E-03 0.  1.
        -11    1    3    3    0    0 -0.78314926937E+01  0.18054734777E+00 -0.12615190043E+02  0.14849508249E+02  0.51100000000E-03 0. -1.
        -12    1    3    3    0    0 -0.70042736610E+01  0.12695499969E+02 -0.14873172325E+02  0.20771298081E+02  0.00000000000E+00 0.  1.
</event>
<event>
 7    1  0.2294216E-010  0.4778727E+02  0.7816164E-02  0.1312668E+00
        -11   -1    0    0    0    0  0.00000000000E+00  0.00000000000E+00  0.45593999997E+02  0.45594000000E+02  0.51100000000E-03 0. -1.
         11   -1    0    0    0    0 -0.00000000000E+00 -0.00000000000E+00 -0.45593999997E+02  0.45594000000E+02  0.51100000000E-03 0.  1.
    9900012    2    1    2    0    0 -0.33883249307E+02 -0.26515401082E+02 -0.56993108583E+01  0.47787271638E+02  0.20000002706E+02 0.  0.
        -12    1    1    2    0    0  0.33883249307E+02  0.26515401082E+02  0.56993108583E+01  0.43400728362E+02  0.00000000000E+00 0.  1.
         11    1    3    3    0    0 -0.25186571510E+01 -0.22159129899E+01 -0.57834139752E+01  0.66859391033E+01  0.51100000000E-03 0. -1.
        -11    1    3    3    0    0 -0.12018015001E+02 -0.95513415261E+01 -0.51983423418E+01  0.16207515938E+02  0.51100000000E-03 0.  1.
         12    1    3    3    0    0 -0.19346577155E+02 -0.14748146566E+02  0.52824454587E+01  0.24893816597E+02  0.00000000000E+00 0. -1.
</event>
<event>
 7    1  0.2294216E-010  0.4778727E+02  0.7816164E-02  0.1312668E+00
        -11   -1    0    0    0    0  0.00000000000E+00  0.00000000000E+00  0.45593999997E+02  0.45594000000E+02  0.51100000000E-03 0.  1.
         11   -1    0    0    0    0 -0.00000000000E+00 -0.00000000000E+00 -0.45593999997E+02  0.45594000000E+02  0.51100000000E-03 0. -1.
    9900012    2    1    2    0    0  0.10447448683E+02  0.29006654681E+02 -0.30546498553E+02  0.47787265288E+02  0.19999973752E+02 0.  0.
        -12    1    1    2    0    0 -0.10447448683E+02 -0.29006654681E+02  0.30546498553E+02  0.43400734712E+02  0.00000000000E+00 0.  1.
         11    1    3    3    0    0  0.74654061254E+01  0.92479852789E+01 -0.14287437713E+02  0.18584627976E+02  0.51100000000E-03 0. -1.
        -11    1    3    3    0    0  0.37529220263E+01  0.16245476115E+01 -0.85601306728E+01  0.94868022049E+01  0.51100000000E-03 0.  1.
         12    1    3    3    0    0 -0.77087946832E+00  0.18134121790E+02 -0.76989301670E+01  0.19715835107E+02  0.00000000000E+00 0. -1.
</event>
<event>
 7    1  0.2294216E-010  0.4778727E+02  0.7816164E-02  0.1312668E+00
        -11   -1    0    0    0    0  0.00000000000E+00  0.00000000000E+00  0.45593999997E+02  0.45594000000E+02  0.51100000000E-03 0. -1.
         11   -1    0    0    0    0 -0.00000000000E+00 -0.00000000000E+00 -0.45593999997E+02  0.45594000000E+02  0.51100000000E-03 0.  1.
    9900012    2    1    2    0    0  0.35807998550E+02  0.11908827889E+01  0.24494738463E+02  0.47787272191E+02  0.20000005228E+02 0.  0.
        -12    1    1    2    0    0 -0.35807998550E+02 -0.11908827889E+01 -0.24494738463E+02  0.43400727809E+02  0.00000000000E+00 0.  1.
         11    1    3    3    0    0  0.24092128646E+01 -0.30593604951E+01  0.69129313700E+01  0.79342683124E+01  0.51100000000E-03 0. -1.
        -11    1    3    3    0    0  0.19380043938E+02  0.26210092541E+01  0.16692739819E+02  0.25711930217E+02  0.51100000000E-03 0.  1.
        -12    1    3    3    0    0  0.14018741747E+02  0.16292340299E+01  0.88906727471E+00  0.14141073662E+02  0.00000000000E+00 0.  1.
</event>
<event>
 7    1  0.2294216E-010  0.4778727E+02  0.7816164E-02  0.1312668E+00
        -11   -1    0    0    0    0  0.00000000000E+00  0.00000000000E+00  0.45593999997E+02  0.45594000000E+02  0.51100000000E-03 0. -1.
         11   -1    0    0    0    0 -0.00000000000E+00 -0.00000000000E+00 -0.45593999997E+02  0.45594000000E+02  0.51100000000E-03 0.  1.
    9900012    2    1    2    0    0  0.32005228885E+02  0.28934004742E+02  0.47023902706E+01  0.47787265206E+02  0.19999973381E+02 0.  0.
        -12    1    1    2    0    0 -0.32005228885E+02 -0.28934004742E+02 -0.47023902706E+01  0.43400734794E+02  0.00000000000E+00 0.  1.
         11    1    3    3    0    0  0.15716991232E+02  0.70438693700E+01 -0.24011951773E+01  0.17389814479E+02  0.51100000000E-03 0. -1.
        -11    1    3    3    0    0  0.11422508894E+01 -0.13388249779E+01  0.91978242859E+00  0.19857465581E+01  0.51100000000E-03 0.  1.
        -12    1    3    3    0    0  0.15145986764E+02  0.23228960350E+02  0.61838030193E+01  0.28411704169E+02  0.00000000000E+00 0.  1.
</event>
<event>
 7    1  0.2294216E-010  0.4778729E+02  0.7816164E-02  0.1312668E+00
        -11   -1    0    0    0    0  0.00000000000E+00  0.00000000000E+00  0.45593999997E+02  0.45594000000E+02  0.51100000000E-03 0. -1.
         11   -1    0    0    0    0 -0.00000000000E+00 -0.00000000000E+00 -0.45593999997E+02  0.45594000000E+02  0.51100000000E-03 0.  1.
    9900012    2    1    2    0    0 -0.21818522478E+02  0.17983054084E+02  0.32926944929E+02  0.47787287337E+02  0.20000074283E+02 0.  0.
        -12    1    1    2    0    0  0.21818522478E+02 -0.17983054084E+02 -0.32926944929E+02  0.43400712663E+02  0.00000000000E+00 0.  1.
         11    1    3    3    0    0 -0.67648949797E+01  0.25450439574E+01  0.20668952684E+01  0.75175201458E+01  0.51100000000E-03 0. -1.
        -11    1    3    3    0    0 -0.17407102901E+02  0.15123591000E+02  0.25343991093E+02  0.34264385606E+02  0.51100000000E-03 0.  1.
        -12    1    3    3    0    0  0.23534754036E+01  0.31441912732E+00  0.55160585676E+01  0.60053815852E+01  0.00000000000E+00 0.  1.
</event>
<event>
 7    1  0.2294216E-010  0.4778727E+02  0.7816164E-02  0.1312668E+00
        -11   -1    0    0    0    0  0.00000000000E+00  0.00000000000E+00  0.45593999997E+02  0.45594000000E+02  0.51100000000E-03 0.  1.
         11   -1    0    0    0    0 -0.00000000000E+00 -0.00000000000E+00 -0.45593999997E+02  0.45594000000E+02  0.51100000000E-03 0. -1.
    9900012    2    1    2    0    0 -0.28255196719E+01 -0.28104513746E+01 -0.43217371619E+02  0.47787269499E+02  0.19999992956E+02 0.  0.
        -12    1    1    2    0    0  0.28255196719E+01  0.28104513746E+01  0.43217371619E+02  0.43400730501E+02  0.00000000000E+00 0.  1.
         11    1    3    3    0    0  0.13594389847E+01  0.58979264730E-01 -0.83394014358E+01  0.84496845784E+01  0.51100000000E-03 0. -1.
        -11    1    3    3    0    0 -0.58040957477E+01 -0.84598676201E+01 -0.12277933399E+02  0.16000141762E+02  0.51100000000E-03 0.  1.
        -12    1    3    3    0    0  0.16191370912E+01  0.55904369807E+01 -0.22600036784E+02  0.23337443159E+02  0.00000000000E+00 0.  1.
</event>
<event>
 7    1  0.2294216E-010  0.4778727E+02  0.7816164E-02  0.1312668E+00
        -11   -1    0    0    0    0  0.00000000000E+00  0.00000000000E+00  0.45593999997E+02  0.45594000000E+02  0.51100000000E-03 0.  1.
         11   -1    0    0    0    0 -0.00000000000E+00 -0.00000000000E+00 -0.45593999997E+02  0.45594000000E+02  0.51100000000E-03 0. -1.
    9900012    2    1    2    0    0 -0.30309236942E+02  0.66656168920E+01 -0.30340452159E+02  0.47787270400E+02  0.19999997064E+02 0.  0.
        -12    1    1    2    0    0  0.30309236942E+02 -0.66656168920E+01  0.30340452159E+02  0.43400729600E+02  0.00000000000E+00 0.  1.
         11    1    3    3    0    0 -0.12918138500E+02  0.43565998161E+01 -0.11226373249E+02  0.17660399793E+02  0.51100000000E-03 0. -1.
        -11    1    3    3    0    0 -0.17941465197E+02  0.46744438087E+01 -0.10780913190E+02  0.21447020488E+02  0.51100000000E-03 0.  1.
         12    1    3    3    0    0  0.55036675437E+00 -0.23654267328E+01 -0.83331657195E+01  0.86798501198E+01  0.00000000000E+00 0. -1.
</event>
<event>
 7    1  0.2294216E-010  0.4778727E+02  0.7816164E-02  0.1312668E+00
        -11   -1    0    0    0    0  0.00000000000E+00  0.00000000000E+00  0.45593999997E+02  0.45594000000E+02  0.51100000000E-03 0. -1.
         11   -1    0    0    0    0 -0.00000000000E+00 -0.00000000000E+00 -0.45593999997E+02  0.45594000000E+02  0.51100000000E-03 0.  1.
    9900012    2    1    2    0    0 -0.37750091704E+02 -0.91519701610E+01  0.19359638895E+02  0.47787267291E+02  0.19999982888E+02 0.  0.
        -12    1    1    2    0    0  0.37750091704E+02  0.91519701610E+01 -0.19359638895E+02  0.43400732709E+02  0.00000000000E+00 0.  1.
         11    1    3    3    0    0 -0.22120949131E+02 -0.93639990789E+01  0.61611609495E+01  0.24798805893E+02  0.51100000000E-03 0.  1.
        -11    1    3    3    0    0 -0.16617230150E+02 -0.32666535485E+00  0.95465137522E+01  0.19167028283E+02  0.51100000000E-03 0. -1.
        -12    1    3    3    0    0  0.98808757760E+00  0.53869427275E+00  0.36519641937E+01  0.38214331151E+01  0.00000000000E+00 0.  1.
</event>
<event>
 7    1  0.2294216E-010  0.4778727E+02  0.7816164E-02  0.1312668E+00
        -11   -1    0    0    0    0  0.00000000000E+00  0.00000000000E+00  0.45593999997E+02  0.45594000000E+02  0.51100000000E-03 0.  1.
         11   -1    0    0    0    0 -0.00000000000E+00 -0.00000000000E+00 -0.45593999997E+02  0.45594000000E+02  0.51100000000E-03 0. -1.
    9900012    2    1    2    0    0 -0.24733863537E+02 -0.28744454971E+02 -0.21109610215E+02  0.47787270277E+02  0.19999996502E+02 0.  0.
        -12    1    1    2    0    0  0.24733863537E+02  0.28744454971E+02  0.21109610215E+02  0.43400729723E+02  0.00000000000E+00 0.  1.
         11    1    3    3    0    0 -0.96563954852E+01 -0.60618998013E+01 -0.10423453297E+02  0.15448008993E+02  0.51100000000E-03 0. -1.
        -11    1    3    3    0    0 -0.11071820615E+02 -0.18173919785E+02 -0.13985186813E+02  0.25464917485E+02  0.51100000000E-03 0.  1.
        -12    1    3    3    0    0 -0.40056474371E+01 -0.45086353847E+01  0.32990298944E+01  0.68743437990E+01  0.00000000000E+00 0.  1.
</event>
<event>
 7    1  0.2294216E-010  0.4778727E+02  0.7816164E-02  0.1312668E+00
        -11   -1    0    0    0    0  0.00000000000E+00  0.00000000000E+00  0.45593999997E+02  0.45594000000E+02  0.51100000000E-03 0.  1.
         11   -1    0    0    0    0 -0.00000000000E+00 -0.00000000000E+00 -0.45593999997E+02  0.45594000000E+02  0.51100000000E-03 0. -1.
    9900012    2    1    2    0    0  0.12064962717E+02 -0.27452184445E+02 -0.31375748982E+02  0.47787269818E+02  0.19999994409E+02 0.  0.
        -12    1    1    2    0    0 -0.12064962717E+02  0.27452184445E+02  0.31375748982E+02  0.43400730182E+02  0.00000000000E+00 0.  1.
         11    1    3    3    0    0 -0.40135334390E+01 -0.73863818655E+01 -0.12988084069E+02  0.15471180167E+02  0.51100000000E-03 0. -1.
        -11    1    3    3    0    0  0.79171398601E+01 -0.13696864617E+02 -0.83166300878E+01  0.17873207327E+02  0.51100000000E-03 0.  1.
        -12    1    3    3    0    0  0.81613562955E+01 -0.63689379628E+01 -0.10071034825E+02  0.14442882323E+02  0.00000000000E+00 0.  1.
</event>
<event>
 7    1  0.2294216E-010  0.4778727E+02  0.7816164E-02  0.1312668E+00
        -11   -1    0    0    0    0  0.00000000000E+00  0.00000000000E+00  0.45593999997E+02  0.45594000000E+02  0.51100000000E-03 0.  1.
         11   -1    0    0    0    0 -0.00000000000E+00 -0.00000000000E+00 -0.45593999997E+02  0.45594000000E+02  0.51100000000E-03 0. -1.
    9900012    2    1    2    0    0  0.35194359349E+02 -0.25395154848E+02 -0.25765018387E+00  0.47787271857E+02  0.20000003704E+02 0.  0.
        -12    1    1    2    0    0 -0.35194359349E+02  0.25395154848E+02  0.25765018387E+00  0.43400728143E+02  0.00000000000E+00 0.  1.
         11    1    3    3    0    0  0.15774122367E+02 -0.11105983897E+02 -0.95562539535E+00  0.19315253944E+02  0.51100000000E-03 0. -1.
        -11    1    3    3    0    0  0.12710959946E+02 -0.16010508392E+02  0.39486662870E+01  0.20820587105E+02  0.51100000000E-03 0.  1.
         12    1    3    3    0    0  0.67092770357E+01  0.17213374408E+01 -0.32506910755E+01  0.76514308070E+01  0.00000000000E+00 0. -1.
</event>
<event>
 7    1  0.2294216E-010  0.4778727E+02  0.7816164E-02  0.1312668E+00
        -11   -1    0    0    0    0  0.00000000000E+00  0.00000000000E+00  0.45593999997E+02  0.45594000000E+02  0.51100000000E-03 0.  1.
         11   -1    0    0    0    0 -0.00000000000E+00 -0.00000000000E+00 -0.45593999997E+02  0.45594000000E+02  0.51100000000E-03 0. -1.
    9900012    2    1    2    0    0  0.29836339032E+02 -0.75391580200E+01 -0.30603551053E+02  0.47787269965E+02  0.19999995080E+02 0.  0.
        -12    1    1    2    0    0 -0.29836339032E+02  0.75391580200E+01  0.30603551053E+02  0.43400730035E+02  0.00000000000E+00 0.  1.
         11    1    3    3    0    0  0.45530197044E+01 -0.21894345419E+01  0.13111468297E+01  0.52194557486E+01  0.51100000000E-03 0.  1.
        -11    1    3    3    0    0  0.65363679864E+01 -0.67010149472E+01 -0.11201720485E+02  0.14598159126E+02  0.51100000000E-03 0. -1.
         12    1    3    3    0    0  0.18746951341E+02  0.13512914690E+01 -0.20712977398E+02  0.27969655091E+02  0.00000000000E+00 0. -1.
</event>
<event>
 7    1  0.2294216E-010  0.4778727E+02  0.7816164E-02  0.1312668E+00
        -11   -1    0    0    0    0  0.00000000000E+00  0.00000000000E+00  0.45593999997E+02  0.45594000000E+02  0.51100000000E-03 0. -1.
         11   -1    0    0    0    0 -0.00000000000E+00 -0.00000000000E+00 -0.45593999997E+02  0.45594000000E+02  0.51100000000E-03 0.  1.
    9900012    2    1    2    0    0 -0.58378306316E+01  0.39633005767E+02 -0.16696333854E+02  0.47787274467E+02  0.20000015606E+02 0.  0.
        -12    1    1    2    0    0  0.58378306316E+01 -0.39633005767E+02  0.16696333854E+02  0.43400725533E+02  0.00000000000E+00 0.  1.
         11    1    3    3    0    0  0.39257849980E+01  0.20433840199E+02 -0.82199495471E+01  0.22372330767E+02  0.51100000000E-03 0. -1.
        -11    1    3    3    0    0 -0.32321599173E+01  0.15768248291E+02 -0.81207860041E+01  0.18028634931E+02  0.51100000000E-03 0.  1.
        -12    1    3    3    0    0 -0.65314557124E+01  0.34309172771E+01 -0.35559830285E+00  0.73863087695E+01  0.00000000000E+00 0.  1.
</event>
<event>
 7    1  0.2294216E-010  0.4778728E+02  0.7816164E-02  0.1312668E+00
        -11   -1    0    0    0    0  0.00000000000E+00  0.00000000000E+00  0.45593999997E+02  0.45594000000E+02  0.51100000000E-03 0.  1.
         11   -1    0    0    0    0 -0.00000000000E+00 -0.00000000000E+00 -0.45593999997E+02  0.45594000000E+02  0.51100000000E-03 0. -1.
    9900012    2    1    2    0    0 -0.37611626776E+02 -0.18267202178E+02 -0.11631757552E+02  0.47787275030E+02  0.20000018173E+02 0.  0.
        -12    1    1    2    0    0  0.37611626776E+02  0.18267202178E+02  0.11631757552E+02  0.43400724970E+02  0.00000000000E+00 0.  1.
         11    1    3    3    0    0 -0.50113707352E+01 -0.18577778596E+01 -0.35224182706E+01  0.64009847645E+01  0.51100000000E-03 0. -1.
        -11    1    3    3    0    0 -0.24483616084E+02 -0.13036227728E+02  0.22161401724E+01  0.27826281956E+02  0.51100000000E-03 0.  1.
        -12    1    3    3    0    0 -0.81166399565E+01 -0.33731965904E+01 -0.10325479454E+02  0.13560008310E+02  0.00000000000E+00 0.  1.
</event>
<event>
 7    1  0.2294216E-010  0.4778727E+02  0.7816164E-02  0.1312668E+00
        -11   -1    0    0    0    0  0.00000000000E+00  0.00000000000E+00  0.45593999997E+02  0.45594000000E+02  0.51100000000E-03 0. -1.
         11   -1    0    0    0    0 -0.00000000000E+00 -0.00000000000E+00 -0.45593999997E+02  0.45594000000E+02  0.51100000000E-03 0.  1.
    9900012    2    1    2    0    0  0.14427912891E+02 -0.12341408129E+02  0.39027532078E+02  0.47787270915E+02  0.19999999411E+02 0.  0.
        -12    1    1    2    0    0 -0.14427912891E+02  0.12341408129E+02 -0.39027532078E+02  0.43400729085E+02  0.00000000000E+00 0.  1.
         11    1    3    3    0    0 -0.31130495728E+01 -0.74055621458E+00  0.61285876729E+01  0.69136884711E+01  0.51100000000E-03 0. -1.
        -11    1    3    3    0    0  0.46681020820E+01 -0.31970524866E+01  0.14079276145E+01  0.58304872935E+01  0.51100000000E-03 0.  1.
         12    1    3    3    0    0  0.12872860382E+02 -0.84037994275E+01  0.31491016791E+02  0.35043095151E+02  0.00000000000E+00 0. -1.
</event>
<event>
 7    1  0.2294216E-010  0.4778727E+02  0.7816164E-02  0.1312668E+00
        -11   -1    0    0    0    0  0.00000000000E+00  0.00000000000E+00  0.45593999997E+02  0.45594000000E+02  0.51100000000E-03 0.  1.
         11   -1    0    0    0    0 -0.00000000000E+00 -0.00000000000E+00 -0.45593999997E+02  0.45594000000E+02  0.51100000000E-03 0. -1.
    9900012    2    1    2    0    0  0.58157437086E+01 -0.41623245726E+02 -0.10830785620E+02  0.47787269858E+02  0.19999994592E+02 0.  0.
        -12    1    1    2    0    0 -0.58157437086E+01  0.41623245726E+02  0.10830785620E+02  0.43400730142E+02  0.00000000000E+00 0.  1.
         11    1    3    3    0    0  0.31866044618E+01 -0.73594800689E+01 -0.69277621649E+01  0.10597654635E+02  0.51100000000E-03 0. -1.
        -11    1    3    3    0    0  0.68519305502E+01 -0.15383946283E+02 -0.56530013610E+01  0.17764323239E+02  0.51100000000E-03 0.  1.
         12    1    3    3    0    0 -0.42227913034E+01 -0.18879819375E+02  0.17499779062E+01  0.19425291985E+02  0.00000000000E+00 0. -1.
</event>
<event>
 7    1  0.2294216E-010  0.4778727E+02  0.7816164E-02  0.1312668E+00
        -11   -1    0    0    0    0  0.00000000000E+00  0.00000000000E+00  0.45593999997E+02  0.45594000000E+02  0.51100000000E-03 0.  1.
         11   -1    0    0    0    0 -0.00000000000E+00 -0.00000000000E+00 -0.45593999997E+02  0.45594000000E+02  0.51100000000E-03 0. -1.
    9900012    2    1    2    0    0  0.39902917584E+02  0.13513770629E+02  0.10428727816E+02  0.47787271985E+02  0.20000004288E+02 0.  0.
        -12    1    1    2    0    0 -0.39902917584E+02 -0.13513770629E+02 -0.10428727816E+02  0.43400728015E+02  0.00000000000E+00 0.  1.
         11    1    3    3    0    0  0.46858267583E+01 -0.13214118160E+01 -0.42865658889E+01  0.64867363887E+01  0.51100000000E-03 0. -1.
        -11    1    3    3    0    0  0.14798517590E+02  0.85144095768E+01  0.47789750562E+01  0.17729351261E+02  0.51100000000E-03 0.  1.
         12    1    3    3    0    0  0.20418573237E+02  0.63207728682E+01  0.99363186489E+01  0.23571184335E+02  0.00000000000E+00 0. -1.
</event>
<event>
 7    1  0.2294216E-010  0.4778728E+02  0.7816164E-02  0.1312668E+00
        -11   -1    0    0    0    0  0.00000000000E+00  0.00000000000E+00  0.45593999997E+02  0.45594000000E+02  0.51100000000E-03 0.  1.
         11   -1    0    0    0    0 -0.00000000000E+00 -0.00000000000E+00 -0.45593999997E+02  0.45594000000E+02  0.51100000000E-03 0. -1.
    9900012    2    1    2    0    0 -0.20467194082E+02  0.19310997558E+02 -0.33042429747E+02  0.47787276229E+02  0.20000023637E+02 0.  0.
        -12    1    1    2    0    0  0.20467194082E+02 -0.19310997558E+02  0.33042429747E+02  0.43400723771E+02  0.00000000000E+00 0.  1.
         11    1    3    3    0    0 -0.69595498511E+01  0.49280350918E+01 -0.34319411679E+01  0.91923383552E+01  0.51100000000E-03 0. -1.
        -11    1    3    3    0    0 -0.43982871517E+01  0.25274425339E+00  0.15662344596E+00  0.44083262913E+01  0.51100000000E-03 0.  1.
         12    1    3    3    0    0 -0.91093570788E+01  0.14130218213E+02 -0.29767112025E+02  0.34186611582E+02  0.00000000000E+00 0. -1.
</event>
<event>
 7    1  0.2294216E-010  0.4778727E+02  0.7816164E-02  0.1312668E+00
        -11   -1    0    0    0    0  0.00000000000E+00  0.00000000000E+00  0.45593999997E+02  0.45594000000E+02  0.51100000000E-03 0.  1.
         11   -1    0    0    0    0 -0.00000000000E+00 -0.00000000000E+00 -0.45593999997E+02  0.45594000000E+02  0.51100000000E-03 0. -1.
    9900012    2    1    2    0    0 -0.78763027483E+01  0.35943917819E+01 -0.42528433212E+02  0.47787269260E+02  0.19999991866E+02 0.  0.
        -12    1    1    2    0    0  0.78763027483E+01 -0.35943917819E+01  0.42528433212E+02  0.43400730740E+02  0.00000000000E+00 0.  1.
         11    1    3    3    0    0 -0.71520585775E+01 -0.17928753347E+01 -0.18859575519E+02  0.20249689698E+02  0.51100000000E-03 0. -1.
        -11    1    3    3    0    0  0.24877742232E+01 -0.34829802556E+01 -0.47296830840E+01  0.63788772040E+01  0.51100000000E-03 0.  1.
         12    1    3    3    0    0 -0.32120183940E+01  0.88702473722E+01 -0.18939174609E+02  0.21158702358E+02  0.00000000000E+00 0. -1.
</event>
<event>
 7    1  0.2294216E-010  0.4778728E+02  0.7816164E-02  0.1312668E+00
        -11   -1    0    0    0    0  0.00000000000E+00  0.00000000000E+00  0.45593999997E+02  0.45594000000E+02  0.51100000000E-03 0.  1.
         11   -1    0    0    0    0 -0.00000000000E+00 -0.00000000000E+00 -0.45593999997E+02  0.45594000000E+02  0.51100000000E-03 0. -1.
    9900012    2    1    2    0    0  0.12151764143E+02 -0.40878229615E+02 -0.80577495427E+01  0.47787281620E+02  0.20000048217E+02 0.  0.
        -12    1    1    2    0    0 -0.12151764143E+02  0.40878229615E+02  0.80577495427E+01  0.43400718380E+02  0.00000000000E+00 0.  1.
         11    1    3    3    0    0  0.91747139451E+01 -0.15865679339E+02  0.23414112318E+01  0.18476400182E+02  0.51100000000E-03 0. -1.
        -11    1    3    3    0    0 -0.22780014078E+01 -0.20060580964E+01  0.87231845872E+00  0.31582430646E+01  0.51100000000E-03 0.  1.
         12    1    3    3    0    0  0.52550516054E+01 -0.23006492179E+02 -0.11271479233E+02  0.26152638373E+02  0.00000000000E+00 0. -1.
</event>
<event>
 7    1  0.2294216E-010  0.4778727E+02  0.7816164E-02  0.1312668E+00
        -11   -1    0    0    0    0  0.00000000000E+00  0.00000000000E+00  0.45593999997E+02  0.45594000000E+02  0.51100000000E-03 0.  1.
         11   -1    0    0    0    0 -0.00000000000E+00 -0.00000000000E+00 -0.45593999997E+02  0.45594000000E+02  0.51100000000E-03 0. -1.
    9900012    2    1    2    0    0  0.15700502793E+02 -0.98688670714E+01 -0.39239306219E+02  0.47787268695E+02  0.19999989288E+02 0.  0.
        -12    1    1    2    0    0 -0.15700502793E+02  0.98688670714E+01  0.39239306219E+02  0.43400731305E+02  0.00000000000E+00 0.  1.
         11    1    3    3    0    0  0.15478462173E+01 -0.21908600433E+01 -0.24997582763E+02  0.25141098621E+02  0.51100000000E-03 0. -1.
        -11    1    3    3    0    0  0.88649214120E+01 -0.68072185531E+01 -0.13001861705E+02  0.17145654380E+02  0.51100000000E-03 0.  1.
        -12    1    3    3    0    0  0.52877351638E+01 -0.87078847499E+00 -0.12398617516E+01  0.55005156935E+01  0.00000000000E+00 0.  1.
</event>
<event>
 7    1  0.2294216E-010  0.4778727E+02  0.7816164E-02  0.1312668E+00
        -11   -1    0    0    0    0  0.00000000000E+00  0.00000000000E+00  0.45593999997E+02  0.45594000000E+02  0.51100000000E-03 0.  1.
         11   -1    0    0    0    0 -0.00000000000E+00 -0.00000000000E+00 -0.45593999997E+02  0.45594000000E+02  0.51100000000E-03 0. -1.
    9900012    2    1    2    0    0 -0.40581417099E+02 -0.63217910098E+01 -0.14028782646E+02  0.47787271920E+02  0.20000003993E+02 0.  0.
        -12    1    1    2    0    0  0.40581417099E+02  0.63217910098E+01  0.14028782646E+02  0.43400728080E+02  0.00000000000E+00 0.  1.
         11    1    3    3    0    0 -0.10325749465E+02 -0.61821957769E+01  0.71762042615E-01  0.12035189931E+02  0.51100000000E-03 0. -1.
        -11    1    3    3    0    0 -0.79604432694E+01 -0.69520342708E+00  0.20099508340E+01  0.82396521448E+01  0.51100000000E-03 0.  1.
         12    1    3    3    0    0 -0.22295224365E+02  0.55560819416E+00 -0.16110495522E+02  0.27512429844E+02  0.00000000000E+00 0. -1.
</event>
<event>
 7    1  0.2294216E-010  0.4778727E+02  0.7816164E-02  0.1312668E+00
        -11   -1    0    0    0    0  0.00000000000E+00  0.00000000000E+00  0.45593999997E+02  0.45594000000E+02  0.51100000000E-03 0. -1.
         11   -1    0    0    0    0 -0.00000000000E+00 -0.00000000000E+00 -0.45593999997E+02  0.45594000000E+02  0.51100000000E-03 0.  1.
    9900012    2    1    2    0    0 -0.60060031587E+01  0.42980773075E+02 -0.45183987785E+00  0.47787273194E+02  0.20000009800E+02 0.  0.
        -12    1    1    2    0    0  0.60060031587E+01 -0.42980773075E+02  0.45183987785E+00  0.43400726806E+02  0.00000000000E+00 0.  1.
         11    1    3    3    0    0 -0.78536023263E+01  0.37942656838E+02  0.56386972940E+01  0.39155065890E+02  0.51100000000E-03 0. -1.
        -11    1    3    3    0    0  0.12175176466E+00  0.41883896969E+01 -0.40399056385E+01  0.58205042371E+01  0.51100000000E-03 0.  1.
         12    1    3    3    0    0  0.17258474029E+01  0.84972654021E+00 -0.20506315334E+01  0.28117030670E+01  0.00000000000E+00 0. -1.
</event>
<event>
 7    1  0.2294216E-010  0.4778726E+02  0.7816164E-02  0.1312668E+00
        -11   -1    0    0    0    0  0.00000000000E+00  0.00000000000E+00  0.45593999997E+02  0.45594000000E+02  0.51100000000E-03 0. -1.
         11   -1    0    0    0    0 -0.00000000000E+00 -0.00000000000E+00 -0.45593999997E+02  0.45594000000E+02  0.51100000000E-03 0.  1.
    9900012    2    1    2    0    0 -0.37216370793E+02 -0.17418622221E+02 -0.13969887935E+02  0.47787257794E+02  0.19999939587E+02 0.  0.
        -12    1    1    2    0    0  0.37216370793E+02  0.17418622221E+02  0.13969887935E+02  0.43400742206E+02  0.00000000000E+00 0.  1.
         11    1    3    3    0    0 -0.15229862258E+02 -0.33184126236E+01 -0.86107959941E+01  0.17807480862E+02  0.51100000000E-03 0. -1.
        -11    1    3    3    0    0 -0.93008651824E+01 -0.83914694973E+01 -0.92069856797E+01  0.15546428498E+02  0.51100000000E-03 0.  1.
        -12    1    3    3    0    0 -0.12685643353E+02 -0.57087401000E+01  0.38478937387E+01  0.14433348434E+02  0.00000000000E+00 0.  1.
</event>
<event>
 7    1  0.2294216E-010  0.4778727E+02  0.7816164E-02  0.1312668E+00
        -11   -1    0    0    0    0  0.00000000000E+00  0.00000000000E+00  0.45593999997E+02  0.45594000000E+02  0.51100000000E-03 0.  1.
         11   -1    0    0    0    0 -0.00000000000E+00 -0.00000000000E+00 -0.45593999997E+02  0.45594000000E+02  0.51100000000E-03 0. -1.
    9900012    2    1    2    0    0 -0.35468711591E+02 -0.22639152973E+02 -0.10633090604E+02  0.47787269994E+02  0.19999995213E+02 0.  0.
        -12    1    1    2    0    0  0.35468711591E+02  0.22639152973E+02  0.10633090604E+02  0.43400730006E+02  0.00000000000E+00 0.  1.
         11    1    3    3    0    0 -0.25848989118E+02 -0.91200011402E+01 -0.38660542644E+01  0.27681962269E+02  0.51100000000E-03 0. -1.
        -11    1    3    3    0    0 -0.98687606887E+01 -0.11066175416E+02 -0.23024283345E+01  0.15005127536E+02  0.51100000000E-03 0.  1.
         12    1    3    3    0    0  0.24903821567E+00 -0.24529764162E+01 -0.44646080048E+01  0.51001801898E+01  0.00000000000E+00 0. -1.
</event>
<event>
 7    1  0.2294216E-010  0.4778727E+02  0.7816164E-02  0.1312668E+00
        -11   -1    0    0    0    0  0.00000000000E+00  0.00000000000E+00  0.45593999997E+02  0.45594000000E+02  0.51100000000E-03 0.  1.
         11   -1    0    0    0    0 -0.00000000000E+00 -0.00000000000E+00 -0.45593999997E+02  0.45594000000E+02  0.51100000000E-03 0. -1.
    9900012    2    1    2    0    0  0.26626625868E+02 -0.20526705866E+02 -0.27446319930E+02  0.47787270322E+02  0.19999996708E+02 0.  0.
        -12    1    1    2    0    0 -0.26626625868E+02  0.20526705866E+02  0.27446319930E+02  0.43400729678E+02  0.00000000000E+00 0.  1.
         11    1    3    3    0    0  0.43589388381E+01  0.79087814757E-01 -0.56159989180E+00  0.43956793988E+01  0.51100000000E-03 0. -1.
        -11    1    3    3    0    0 -0.14705213321E+01 -0.54592065461E+01 -0.65811449469E+01  0.86762225752E+01  0.51100000000E-03 0.  1.
         12    1    3    3    0    0  0.23738208362E+02 -0.15146587134E+02 -0.20303575092E+02  0.34715368348E+02  0.00000000000E+00 0. -1.
</event>
<event>
 7    1  0.2294216E-010  0.4778728E+02  0.7816164E-02  0.1312668E+00
        -11   -1    0    0    0    0  0.00000000000E+00  0.00000000000E+00  0.45593999997E+02  0.45594000000E+02  0.51100000000E-03 0.  1.
         11   -1    0    0    0    0 -0.00000000000E+00 -0.00000000000E+00 -0.45593999997E+02  0.45594000000E+02  0.51100000000E-03 0. -1.
    9900012    2    1    2    0    0  0.19015599431E+02 -0.16933060351E+02 -0.35146851286E+02  0.47787277542E+02  0.20000029624E+02 0.  0.
        -12    1    1    2    0    0 -0.19015599431E+02  0.16933060351E+02  0.35146851286E+02  0.43400722458E+02  0.00000000000E+00 0.  1.
         11    1    3    3    0    0  0.75121271308E+00 -0.71414589303E+01 -0.49383025515E+01  0.87150208574E+01  0.51100000000E-03 0. -1.
        -11    1    3    3    0    0 -0.42427052477E+00 -0.44430898146E+01 -0.10407640725E+02  0.11324311824E+02  0.51100000000E-03 0.  1.
         12    1    3    3    0    0  0.18688657243E+02 -0.53485116061E+01 -0.19800908010E+02  0.27747944860E+02  0.00000000000E+00 0. -1.
</event>
<event>
 7    1  0.2294216E-010  0.4778728E+02  0.7816164E-02  0.1312668E+00
        -11   -1    0    0    0    0  0.00000000000E+00  0.00000000000E+00  0.45593999997E+02  0.45594000000E+02  0.51100000000E-03 0.  1.
         11   -1    0    0    0    0 -0.00000000000E+00 -0.00000000000E+00 -0.45593999997E+02  0.45594000000E+02  0.51100000000E-03 0. -1.
    9900012    2    1    2    0    0  0.40820503291E+02 -0.14179397727E+02 -0.40316275492E+01  0.47787276163E+02  0.20000023339E+02 0.  0.
        -12    1    1    2    0    0 -0.40820503291E+02  0.14179397727E+02  0.40316275492E+01  0.43400723837E+02  0.00000000000E+00 0.  1.
         11    1    3    3    0    0  0.10921239959E+02 -0.90163639272E+01 -0.27096249048E+01  0.14419097340E+02  0.51100000000E-03 0. -1.
        -11    1    3    3    0    0  0.10209467884E+01  0.22663200624E+00  0.34510184684E+01  0.36059982170E+01  0.51100000000E-03 0.  1.
         12    1    3    3    0    0  0.28878316544E+02 -0.53896658057E+01 -0.47730211128E+01  0.29762180607E+02  0.00000000000E+00 0. -1.
</event>
<event>
 7    1  0.2294216E-010  0.4778727E+02  0.7816164E-02  0.1312668E+00
        -11   -1    0    0    0    0  0.00000000000E+00  0.00000000000E+00  0.45593999997E+02  0.45594000000E+02  0.51100000000E-03 0. -1.
         11   -1    0    0    0    0 -0.00000000000E+00 -0.00000000000E+00 -0.45593999997E+02  0.45594000000E+02  0.51100000000E-03 0.  1.
    9900012    2    1    2    0    0 -0.40442230296E+02  0.13250814444E+02 -0.85126452207E+01  0.47787271856E+02  0.20000003702E+02 0.  0.
        -12    1    1    2    0    0  0.40442230296E+02 -0.13250814444E+02  0.85126452207E+01  0.43400728144E+02  0.00000000000E+00 0.  1.
         11    1    3    3    0    0 -0.12049555578E+01  0.13571447863E+00  0.26515286524E+01  0.29156372840E+01  0.51100000000E-03 0. -1.
        -11    1    3    3    0    0 -0.13501072770E+02  0.31153492455E+01  0.24762850093E+01  0.14075381152E+02  0.51100000000E-03 0.  1.
        -12    1    3    3    0    0 -0.25736201968E+02  0.99997507195E+01 -0.13640458882E+02  0.30796253420E+02  0.00000000000E+00 0.  1.
</event>
<event>
 7    1  0.2294216E-010  0.4778727E+02  0.7816164E-02  0.1312668E+00
        -11   -1    0    0    0    0  0.00000000000E+00  0.00000000000E+00  0.45593999997E+02  0.45594000000E+02  0.51100000000E-03 0.  1.
         11   -1    0    0    0    0 -0.00000000000E+00 -0.00000000000E+00 -0.45593999997E+02  0.45594000000E+02  0.51100000000E-03 0. -1.
    9900012    2    1    2    0    0 -0.70389583746E+01 -0.17495407373E+02 -0.39089475491E+02  0.47787270648E+02  0.19999998193E+02 0.  0.
        -12    1    1    2    0    0  0.70389583746E+01  0.17495407373E+02  0.39089475491E+02  0.43400729352E+02  0.00000000000E+00 0.  1.
         11    1    3    3    0    0 -0.82515716290E+01 -0.31181036772E+01 -0.10003066457E+02  0.13336879084E+02  0.51100000000E-03 0.  1.
        -11    1    3    3    0    0 -0.11217059054E+01 -0.52734768034E+01 -0.19511464570E+01  0.57336510612E+01  0.51100000000E-03 0. -1.
         12    1    3    3    0    0  0.23343191599E+01 -0.91038268922E+01 -0.27135262576E+02  0.28716740503E+02  0.00000000000E+00 0. -1.
</event>
<event>
 7    1  0.2294216E-010  0.4778727E+02  0.7816164E-02  0.1312668E+00
        -11   -1    0    0    0    0  0.00000000000E+00  0.00000000000E+00  0.45593999997E+02  0.45594000000E+02  0.51100000000E-03 0.  1.
         11   -1    0    0    0    0 -0.00000000000E+00 -0.00000000000E+00 -0.45593999997E+02  0.45594000000E+02  0.51100000000E-03 0. -1.
    9900012    2    1    2    0    0 -0.13950502851E+02  0.20875264242E+02 -0.35400990574E+02  0.47787270506E+02  0.19999997547E+02 0.  0.
        -12    1    1    2    0    0  0.13950502851E+02 -0.20875264242E+02  0.35400990574E+02  0.43400729494E+02  0.00000000000E+00 0.  1.
         11    1    3    3    0    0 -0.31454973819E+01  0.21360227537E+01 -0.50063021132E+01  0.62864781948E+01  0.51100000000E-03 0. -1.
        -11    1    3    3    0    0  0.25049212891E+01 -0.12753619098E+01 -0.78279273602E-01  0.28119933448E+01  0.51100000000E-03 0.  1.
         12    1    3    3    0    0 -0.13309926758E+02  0.20014603398E+02 -0.30316409187E+02  0.38688798967E+02  0.00000000000E+00 0. -1.
</event>
<event>
 7    1  0.2294216E-010  0.4778727E+02  0.7816164E-02  0.1312668E+00
        -11   -1    0    0    0    0  0.00000000000E+00  0.00000000000E+00  0.45593999997E+02  0.45594000000E+02  0.51100000000E-03 0.  1.
         11   -1    0    0    0    0 -0.00000000000E+00 -0.00000000000E+00 -0.45593999997E+02  0.45594000000E+02  0.51100000000E-03 0. -1.
    9900012    2    1    2    0    0 -0.17617788502E+02 -0.34881507972E+02 -0.18881662658E+02  0.47787271264E+02  0.20000001000E+02 0.  0.
        -12    1    1    2    0    0  0.17617788502E+02  0.34881507972E+02  0.18881662658E+02  0.43400728736E+02  0.00000000000E+00 0.  1.
         11    1    3    3    0    0 -0.18149883359E+01 -0.48870611678E+01 -0.23135092426E+01  0.57034967164E+01  0.51100000000E-03 0. -1.
        -11    1    3    3    0    0 -0.94912753044E+01 -0.17494373196E+02  0.62083510587E+00  0.19912881181E+02  0.51100000000E-03 0.  1.
        -12    1    3    3    0    0 -0.63115248615E+01 -0.12500073608E+02 -0.17188988521E+02  0.22170893367E+02  0.00000000000E+00 0.  1.
</event>
<event>
 7    1  0.2294216E-010  0.4778727E+02  0.7816164E-02  0.1312668E+00
        -11   -1    0    0    0    0  0.00000000000E+00  0.00000000000E+00  0.45593999997E+02  0.45594000000E+02  0.51100000000E-03 0.  1.
         11   -1    0    0    0    0 -0.00000000000E+00 -0.00000000000E+00 -0.45593999997E+02  0.45594000000E+02  0.51100000000E-03 0. -1.
    9900012    2    1    2    0    0 -0.20190768270E+02 -0.15018810378E+02 -0.35360876926E+02  0.47787269528E+02  0.19999993086E+02 0.  0.
        -12    1    1    2    0    0  0.20190768270E+02  0.15018810378E+02  0.35360876926E+02  0.43400730472E+02  0.00000000000E+00 0.  1.
         11    1    3    3    0    0 -0.19023309272E+02 -0.11025199605E+02 -0.32841074281E+02  0.39521860814E+02  0.51100000000E-03 0.  1.
        -11    1    3    3    0    0 -0.23291942574E+01 -0.44833664989E+01 -0.39100762054E+01  0.63886162231E+01  0.51100000000E-03 0. -1.
        -12    1    3    3    0    0  0.11617352594E+01  0.48975572577E+00  0.13902735601E+01  0.18767924914E+01  0.00000000000E+00 0.  1.
</event>
<event>
 7    1  0.2294216E-010  0.4778727E+02  0.7816164E-02  0.1312668E+00
        -11   -1    0    0    0    0  0.00000000000E+00  0.00000000000E+00  0.45593999997E+02  0.45594000000E+02  0.51100000000E-03 0.  1.
         11   -1    0    0    0    0 -0.00000000000E+00 -0.00000000000E+00 -0.45593999997E+02  0.45594000000E+02  0.51100000000E-03 0. -1.
    9900012    2    1    2    0    0  0.26376047657E+02 -0.90017525480E+01 -0.33270046481E+02  0.47787269225E+02  0.19999991706E+02 0.  0.
        -12    1    1    2    0    0 -0.26376047657E+02  0.90017525480E+01  0.33270046481E+02  0.43400730775E+02  0.00000000000E+00 0.  1.
         11    1    3    3    0    0  0.21717050886E+02 -0.65732784546E+01 -0.22590218191E+02  0.32018061262E+02  0.51100000000E-03 0. -1.
        -11    1    3    3    0    0  0.53173616403E+01 -0.56686859492E+01 -0.51415089701E+01  0.93189833113E+01  0.51100000000E-03 0.  1.
         12    1    3    3    0    0 -0.65836486906E+00  0.32402118558E+01 -0.55383193198E+01  0.64502246519E+01  0.00000000000E+00 0. -1.
</event>
<event>
 7    1  0.2294216E-010  0.4778727E+02  0.7816164E-02  0.1312668E+00
        -11   -1    0    0    0    0  0.00000000000E+00  0.00000000000E+00  0.45593999997E+02  0.45594000000E+02  0.51100000000E-03 0.  1.
         11   -1    0    0    0    0 -0.00000000000E+00 -0.00000000000E+00 -0.45593999997E+02  0.45594000000E+02  0.51100000000E-03 0. -1.
    9900012    2    1    2    0    0  0.68069307078E+01 -0.37189024462E+02 -0.21313507518E+02  0.47787269029E+02  0.19999990812E+02 0.  0.
        -12    1    1    2    0    0 -0.68069307078E+01  0.37189024462E+02  0.21313507518E+02  0.43400730971E+02  0.00000000000E+00 0.  1.
         11    1    3    3    0    0 -0.32624112112E+01 -0.46665801247E+01 -0.12345044192E+01  0.58261735636E+01  0.51100000000E-03 0.  1.
        -11    1    3    3    0    0 -0.73666113888E+00 -0.78289290857E+01  0.74638752431E+00  0.78988540220E+01  0.51100000000E-03 0. -1.
        -12    1    3    3    0    0  0.10806003058E+02 -0.24693515251E+02 -0.20825390623E+02  0.34062241444E+02  0.00000000000E+00 0.  1.
</event>
<event>
 7    1  0.2294216E-010  0.4778727E+02  0.7816164E-02  0.1312668E+00
        -11   -1    0    0    0    0  0.00000000000E+00  0.00000000000E+00  0.45593999997E+02  0.45594000000E+02  0.51100000000E-03 0.  1.
         11   -1    0    0    0    0 -0.00000000000E+00 -0.00000000000E+00 -0.45593999997E+02  0.45594000000E+02  0.51100000000E-03 0. -1.
    9900012    2    1    2    0    0 -0.14459397594E+02 -0.40505304138E+02 -0.58197515305E+01  0.47787270168E+02  0.19999996005E+02 0.  0.
        -12    1    1    2    0    0  0.14459397594E+02  0.40505304138E+02  0.58197515305E+01  0.43400729832E+02  0.00000000000E+00 0.  1.
         11    1    3    3    0    0 -0.80043233242E+01 -0.16574216074E+02  0.17673507354E+00  0.18406658195E+02  0.51100000000E-03 0. -1.
        -11    1    3    3    0    0 -0.31802038419E+01 -0.24252317891E+02 -0.77417229397E+01  0.25655854963E+02  0.51100000000E-03 0.  1.
        -12    1    3    3    0    0 -0.32748704276E+01  0.32122982734E+00  0.17452363356E+01  0.37247570104E+01  0.00000000000E+00 0.  1.
</event>
<event>
 7    1  0.2294216E-010  0.4778727E+02  0.7816164E-02  0.1312668E+00
        -11   -1    0    0    0    0  0.00000000000E+00  0.00000000000E+00  0.45593999997E+02  0.45594000000E+02  0.51100000000E-03 0.  1.
         11   -1    0    0    0    0 -0.00000000000E+00 -0.00000000000E+00 -0.45593999997E+02  0.45594000000E+02  0.51100000000E-03 0. -1.
    9900012    2    1    2    0    0  0.12116237821E+02  0.41449710838E+02 -0.43291244375E+01  0.47787273440E+02  0.20000010923E+02 0.  0.
        -12    1    1    2    0    0 -0.12116237821E+02 -0.41449710838E+02  0.43291244375E+01  0.43400726560E+02  0.00000000000E+00 0.  1.
         11    1    3    3    0    0  0.18127229512E+01  0.15751505815E+02 -0.86388537288E+00  0.15878986055E+02  0.51100000000E-03 0. -1.
        -11    1    3    3    0    0 -0.27085580798E+01  0.59772429268E+01  0.32814427683E+01  0.73370012117E+01  0.51100000000E-03 0.  1.
         12    1    3    3    0    0  0.13012072950E+02  0.19720962096E+02 -0.67466818330E+01  0.24571286174E+02  0.00000000000E+00 0. -1.
</event>
<event>
 7    1  0.2294216E-010  0.4778727E+02  0.7816164E-02  0.1312668E+00
        -11   -1    0    0    0    0  0.00000000000E+00  0.00000000000E+00  0.45593999997E+02  0.45594000000E+02  0.51100000000E-03 0.  1.
         11   -1    0    0    0    0 -0.00000000000E+00 -0.00000000000E+00 -0.45593999997E+02  0.45594000000E+02  0.51100000000E-03 0. -1.
    9900012    2    1    2    0    0  0.31261513252E+02  0.13273912350E+01 -0.30076221858E+02  0.47787270748E+02  0.19999998650E+02 0.  0.
        -12    1    1    2    0    0 -0.31261513252E+02 -0.13273912350E+01  0.30076221858E+02  0.43400729252E+02  0.00000000000E+00 0.  1.
         11    1    3    3    0    0 -0.62123306204E+00 -0.24760298412E+01 -0.20025306451E+01  0.32445005066E+01  0.51100000000E-03 0. -1.
        -11    1    3    3    0    0  0.13017352285E+02 -0.31280111346E+01 -0.59430105698E+01  0.14647705932E+02  0.51100000000E-03 0.  1.
         12    1    3    3    0    0  0.18865394030E+02  0.69314322108E+01 -0.22130680643E+02  0.29895064310E+02  0.00000000000E+00 0. -1.
</event>
<event>
 7    1  0.2294216E-010  0.4778727E+02  0.7816164E-02  0.1312668E+00
        -11   -1    0    0    0    0  0.00000000000E+00  0.00000000000E+00  0.45593999997E+02  0.45594000000E+02  0.51100000000E-03 0.  1.
         11   -1    0    0    0    0 -0.00000000000E+00 -0.00000000000E+00 -0.45593999997E+02  0.45594000000E+02  0.51100000000E-03 0. -1.
    9900012    2    1    2    0    0 -0.31530982022E+02 -0.73048510731E+01 -0.28914693727E+02  0.47787272013E+02  0.20000004417E+02 0.  0.
        -12    1    1    2    0    0  0.31530982022E+02  0.73048510731E+01  0.28914693727E+02  0.43400727987E+02  0.00000000000E+00 0.  1.
         11    1    3    3    0    0 -0.72165136851E+01  0.25392964279E+01 -0.20138096524E+01  0.79108486077E+01  0.51100000000E-03 0. -1.
        -11    1    3    3    0    0 -0.19038351768E+02 -0.24330110284E+01 -0.12710619869E+02  0.23020387451E+02  0.51100000000E-03 0.  1.
        -12    1    3    3    0    0 -0.52761165687E+01 -0.74111364725E+01 -0.14190264206E+02  0.16856035954E+02  0.00000000000E+00 0.  1.
</event>
<event>
 7    1  0.2294216E-010  0.4778727E+02  0.7816164E-02  0.1312668E+00
        -11   -1    0    0    0    0  0.00000000000E+00  0.00000000000E+00  0.45593999997E+02  0.45594000000E+02  0.51100000000E-03 0. -1.
         11   -1    0    0    0    0 -0.00000000000E+00 -0.00000000000E+00 -0.45593999997E+02  0.45594000000E+02  0.51100000000E-03 0.  1.
    9900012    2    1    2    0    0  0.15198389006E+02 -0.38027739708E+02 -0.14370920724E+02  0.47787269843E+02  0.19999994523E+02 0.  0.
        -12    1    1    2    0    0 -0.15198389006E+02  0.38027739708E+02  0.14370920724E+02  0.43400730157E+02  0.00000000000E+00 0.  1.
         11    1    3    3    0    0  0.38138976108E+01 -0.23187980016E+00 -0.39929815370E+01  0.55266160572E+01  0.51100000000E-03 0.  1.
        -11    1    3    3    0    0 -0.74334842207E+00 -0.12480551156E+02 -0.59384872800E+01  0.13841327807E+02  0.51100000000E-03 0. -1.
        -12    1    3    3    0    0  0.12127839817E+02 -0.25315308753E+02 -0.44394519067E+01  0.28419325979E+02  0.00000000000E+00 0.  1.
</event>
<event>
 7    1  0.2294216E-010  0.4778727E+02  0.7816164E-02  0.1312668E+00
        -11   -1    0    0    0    0  0.00000000000E+00  0.00000000000E+00  0.45593999997E+02  0.45594000000E+02  0.51100000000E-03 0.  1.
         11   -1    0    0    0    0 -0.00000000000E+00 -0.00000000000E+00 -0.45593999997E+02  0.45594000000E+02  0.51100000000E-03 0. -1.
    9900012    2    1    2    0    0 -0.30415001494E+02 -0.29466405913E+02 -0.95016673312E+01  0.47787273331E+02  0.20000010427E+02 0.  0.
        -12    1    1    2    0    0  0.30415001494E+02  0.29466405913E+02  0.95016673312E+01  0.43400726669E+02  0.00000000000E+00 0.  1.
         11    1    3    3    0    0  0.23013137779E+00 -0.39616507201E+01 -0.79671823606E+00  0.40475173981E+01  0.51100000000E-03 0. -1.
        -11    1    3    3    0    0 -0.15647405958E+01 -0.16196015732E+01  0.35140086711E+01  0.41737009464E+01  0.51100000000E-03 0.  1.
         12    1    3    3    0    0 -0.29080392276E+02 -0.23885153620E+02 -0.12218957766E+02  0.39566054987E+02  0.00000000000E+00 0. -1.
</event>
<event>
 7    1  0.2294216E-010  0.4778727E+02  0.7816164E-02  0.1312668E+00
        -11   -1    0    0    0    0  0.00000000000E+00  0.00000000000E+00  0.45593999997E+02  0.45594000000E+02  0.51100000000E-03 0.  1.
         11   -1    0    0    0    0 -0.00000000000E+00 -0.00000000000E+00 -0.45593999997E+02  0.45594000000E+02  0.51100000000E-03 0. -1.
    9900012    2    1    2    0    0  0.57919572912E+00  0.17450570497E+01 -0.43361762457E+02  0.47787272643E+02  0.20000007286E+02 0.  0.
        -12    1    1    2    0    0 -0.57919572912E+00 -0.17450570497E+01  0.43361762457E+02  0.43400727357E+02  0.00000000000E+00 0.  1.
         11    1    3    3    0    0 -0.49484545648E+01  0.77761160922E+01 -0.25199009328E+02  0.26831795606E+02  0.51100000000E-03 0. -1.
        -11    1    3    3    0    0  0.58038824584E+01 -0.24542262734E+01 -0.14588882990E+02  0.15891626265E+02  0.51100000000E-03 0.  1.
        -12    1    3    3    0    0 -0.27623216447E+00 -0.35768327691E+01 -0.35738701381E+01  0.50638507710E+01  0.00000000000E+00 0.  1.
</event>
<event>
 7    1  0.2294216E-010  0.4778727E+02  0.7816164E-02  0.1312668E+00
        -11   -1    0    0    0    0  0.00000000000E+00  0.00000000000E+00  0.45593999997E+02  0.45594000000E+02  0.51100000000E-03 0. -1.
         11   -1    0    0    0    0 -0.00000000000E+00 -0.00000000000E+00 -0.45593999997E+02  0.45594000000E+02  0.51100000000E-03 0.  1.
    9900012    2    1    2    0    0  0.26785022338E+02 -0.18976325530E+02  0.28391629683E+02  0.47787274335E+02  0.20000015001E+02 0.  0.
        -12    1    1    2    0    0 -0.26785022338E+02  0.18976325530E+02 -0.28391629683E+02  0.43400725665E+02  0.00000000000E+00 0.  1.
         11    1    3    3    0    0  0.15182823427E+02 -0.77374078829E+01  0.18373563338E+02  0.25059398197E+02  0.51100000000E-03 0. -1.
        -11    1    3    3    0    0  0.56732774439E+01 -0.88922520620E+01  0.12069971235E+02  0.16029423869E+02  0.51100000000E-03 0.  1.
        -12    1    3    3    0    0  0.59289214664E+01 -0.23466655852E+01 -0.20519048905E+01  0.66984522692E+01  0.00000000000E+00 0.  1.
</event>
<event>
 7    1  0.2294216E-010  0.4778728E+02  0.7816164E-02  0.1312668E+00
        -11   -1    0    0    0    0  0.00000000000E+00  0.00000000000E+00  0.45593999997E+02  0.45594000000E+02  0.51100000000E-03 0.  1.
         11   -1    0    0    0    0 -0.00000000000E+00 -0.00000000000E+00 -0.45593999997E+02  0.45594000000E+02  0.51100000000E-03 0. -1.
    9900012    2    1    2    0    0 -0.21114600670E+02 -0.16342817376E+02 -0.34215619504E+02  0.47787278125E+02  0.20000032285E+02 0.  0.
        -12    1    1    2    0    0  0.21114600670E+02  0.16342817376E+02  0.34215619504E+02  0.43400721875E+02  0.00000000000E+00 0.  1.
         11    1    3    3    0    0 -0.90062713814E-01 -0.41483578869E+01 -0.25852277372E+01  0.48888022219E+01  0.51100000000E-03 0. -1.
        -11    1    3    3    0    0 -0.28377749782E+00  0.31073294796E+01 -0.45087256679E+01  0.54831226115E+01  0.51100000000E-03 0.  1.
         12    1    3    3    0    0 -0.20740760458E+02 -0.15301788969E+02 -0.27121666099E+02  0.37415353292E+02  0.00000000000E+00 0. -1.
</event>
<event>
 7    1  0.2294216E-010  0.4778729E+02  0.7816164E-02  0.1312668E+00
        -11   -1    0    0    0    0  0.00000000000E+00  0.00000000000E+00  0.45593999997E+02  0.45594000000E+02  0.51100000000E-03 0.  1.
         11   -1    0    0    0    0 -0.00000000000E+00 -0.00000000000E+00 -0.45593999997E+02  0.45594000000E+02  0.51100000000E-03 0. -1.
    9900012    2    1    2    0    0  0.20574893309E+02 -0.60563403124E+01 -0.37730833548E+02  0.47787293867E+02  0.20000104057E+02 0.  0.
        -12    1    1    2    0    0 -0.20574893309E+02  0.60563403124E+01  0.37730833548E+02  0.43400706133E+02  0.00000000000E+00 0.  1.
         11    1    3    3    0    0 -0.35753391701E+01  0.30119302106E+00 -0.63772123267E+01  0.73172812395E+01  0.51100000000E-03 0. -1.
        -11    1    3    3    0    0  0.60140150128E+01 -0.17657020123E+01 -0.43927045654E+01  0.76538835783E+01  0.51100000000E-03 0.  1.
         12    1    3    3    0    0  0.18136217466E+02 -0.45918313212E+01 -0.26960916655E+02  0.32816129049E+02  0.00000000000E+00 0. -1.
</event>
<event>
 7    1  0.2294216E-010  0.4778729E+02  0.7816164E-02  0.1312668E+00
        -11   -1    0    0    0    0  0.00000000000E+00  0.00000000000E+00  0.45593999997E+02  0.45594000000E+02  0.51100000000E-03 0. -1.
         11   -1    0    0    0    0 -0.00000000000E+00 -0.00000000000E+00 -0.45593999997E+02  0.45594000000E+02  0.51100000000E-03 0.  1.
    9900012    2    1    2    0    0 -0.83366164567E+01  0.41844948984E+02  0.79449848122E+01  0.47787289025E+02  0.20000081981E+02 0.  0.
        -12    1    1    2    0    0  0.83366164567E+01 -0.41844948984E+02 -0.79449848122E+01  0.43400710975E+02  0.00000000000E+00 0.  1.
         11    1    3    3    0    0 -0.10615633149E+01  0.17654165147E+02  0.16892168850E+01  0.17766539270E+02  0.51100000000E-03 0. -1.
        -11    1    3    3    0    0 -0.65157286803E+01  0.15267369061E+02 -0.32998452490E+01  0.16924427825E+02  0.51100000000E-03 0.  1.
         12    1    3    3    0    0 -0.75932446154E+00  0.89234147772E+01  0.95556131762E+01  0.13096321930E+02  0.00000000000E+00 0. -1.
</event>
<event>
 7    1  0.2294216E-010  0.4778727E+02  0.7816164E-02  0.1312668E+00
        -11   -1    0    0    0    0  0.00000000000E+00  0.00000000000E+00  0.45593999997E+02  0.45594000000E+02  0.51100000000E-03 0.  1.
         11   -1    0    0    0    0 -0.00000000000E+00 -0.00000000000E+00 -0.45593999997E+02  0.45594000000E+02  0.51100000000E-03 0. -1.
    9900012    2    1    2    0    0  0.41959766993E+02  0.47281798322E+01 -0.10032234096E+02  0.47787268997E+02  0.19999990665E+02 0.  0.
        -12    1    1    2    0    0 -0.41959766993E+02 -0.47281798322E+01  0.10032234096E+02  0.43400731003E+02  0.00000000000E+00 0.  1.
         11    1    3    3    0    0  0.88825175639E+01  0.75463239074E+00 -0.84110237579E+01  0.12256178411E+02  0.51100000000E-03 0. -1.
        -11    1    3    3    0    0  0.11692442250E+01 -0.60182179760E+00  0.27049864986E+01  0.30077024042E+01  0.51100000000E-03 0.  1.
        -12    1    3    3    0    0  0.31908005204E+02  0.45753692391E+01 -0.43261968362E+01  0.32523388182E+02  0.00000000000E+00 0.  1.
</event>
<event>
 7    1  0.2294216E-010  0.4778727E+02  0.7816164E-02  0.1312668E+00
        -11   -1    0    0    0    0  0.00000000000E+00  0.00000000000E+00  0.45593999997E+02  0.45594000000E+02  0.51100000000E-03 0. -1.
         11   -1    0    0    0    0 -0.00000000000E+00 -0.00000000000E+00 -0.45593999997E+02  0.45594000000E+02  0.51100000000E-03 0.  1.
    9900012    2    1    2    0    0  0.27961727763E+02 -0.33047518502E+02 -0.31026475584E+01  0.47787272811E+02  0.20000008055E+02 0.  0.
        -12    1    1    2    0    0 -0.27961727763E+02  0.33047518502E+02  0.31026475584E+01  0.43400727189E+02  0.00000000000E+00 0.  1.
         11    1    3    3    0    0  0.17258396654E+02 -0.19321808685E+02  0.29060000857E+01  0.26069702390E+02  0.51100000000E-03 0. -1.
        -11    1    3    3    0    0  0.23386156533E+01 -0.71007986536E+01  0.26957290176E+01  0.79471642672E+01  0.51100000000E-03 0.  1.
        -12    1    3    3    0    0  0.83647154555E+01 -0.66249111635E+01 -0.87043766618E+01  0.13770406154E+02  0.00000000000E+00 0.  1.
</event>
<event>
 7    1  0.2294216E-010  0.4778728E+02  0.7816164E-02  0.1312668E+00
        -11   -1    0    0    0    0  0.00000000000E+00  0.00000000000E+00  0.45593999997E+02  0.45594000000E+02  0.51100000000E-03 0. -1.
         11   -1    0    0    0    0 -0.00000000000E+00 -0.00000000000E+00 -0.45593999997E+02  0.45594000000E+02  0.51100000000E-03 0.  1.
    9900012    2    1    2    0    0 -0.16878924057E+02  0.36322143709E+02  0.16716055041E+02  0.47787277689E+02  0.20000030297E+02 0.  0.
        -12    1    1    2    0    0  0.16878924057E+02 -0.36322143709E+02 -0.16716055041E+02  0.43400722311E+02  0.00000000000E+00 0.  1.
         11    1    3    3    0    0 -0.69322280109E+01  0.24228814739E+02  0.13181234256E+02  0.28440045457E+02  0.51100000000E-03 0. -1.
        -11    1    3    3    0    0 -0.34662071482E+01  0.54996432114E+01  0.69267114020E+01  0.94994735936E+01  0.51100000000E-03 0.  1.
        -12    1    3    3    0    0 -0.64804888983E+01  0.65936857590E+01 -0.33918906169E+01  0.98477586387E+01  0.00000000000E+00 0.  1.
</event>
<event>
 7    1  0.2294216E-010  0.4778727E+02  0.7816164E-02  0.1312668E+00
        -11   -1    0    0    0    0  0.00000000000E+00  0.00000000000E+00  0.45593999997E+02  0.45594000000E+02  0.51100000000E-03 0.  1.
         11   -1    0    0    0    0 -0.00000000000E+00 -0.00000000000E+00 -0.45593999997E+02  0.45594000000E+02  0.51100000000E-03 0. -1.
    9900012    2    1    2    0    0  0.25993612217E+02 -0.36008873706E+00 -0.34753789621E+02  0.47787269211E+02  0.19999991641E+02 0.  0.
        -12    1    1    2    0    0 -0.25993612217E+02  0.36008873706E+00  0.34753789621E+02  0.43400730789E+02  0.00000000000E+00 0.  1.
         11    1    3    3    0    0  0.14640058676E+02  0.55793509891E+01 -0.22430680601E+02  0.27360480771E+02  0.51100000000E-03 0. -1.
        -11    1    3    3    0    0  0.49658960844E+01 -0.16595222763E+01 -0.11571820780E+02  0.12701227285E+02  0.51100000000E-03 0.  1.
        -12    1    3    3    0    0  0.63876574558E+01 -0.42799174498E+01 -0.75128823993E+00  0.77255611556E+01  0.00000000000E+00 0.  1.
</event>
<event>
 7    1  0.2294216E-010  0.4778726E+02  0.7816164E-02  0.1312668E+00
        -11   -1    0    0    0    0  0.00000000000E+00  0.00000000000E+00  0.45593999997E+02  0.45594000000E+02  0.51100000000E-03 0. -1.
         11   -1    0    0    0    0 -0.00000000000E+00 -0.00000000000E+00 -0.45593999997E+02  0.45594000000E+02  0.51100000000E-03 0.  1.
    9900012    2    1    2    0    0 -0.45061299676E+01 -0.34664111078E+02  0.25723892122E+02  0.47787257725E+02  0.19999939273E+02 0.  0.
        -12    1    1    2    0    0  0.45061299676E+01  0.34664111078E+02 -0.25723892122E+02  0.43400742275E+02  0.00000000000E+00 0.  1.
         11    1    3    3    0    0 -0.29401290176E+01 -0.73754748422E+01  0.10569302162E+02  0.13219384866E+02  0.51100000000E-03 0. -1.
        -11    1    3    3    0    0 -0.12767112992E+00  0.43872389163E+00 -0.19196756719E+01  0.19733052265E+01  0.51100000000E-03 0.  1.
         12    1    3    3    0    0 -0.14383298201E+01 -0.27727360127E+02  0.17074265632E+02  0.32594567633E+02  0.00000000000E+00 0. -1.
</event>
<event>
 7    1  0.2294216E-010  0.4778727E+02  0.7816164E-02  0.1312668E+00
        -11   -1    0    0    0    0  0.00000000000E+00  0.00000000000E+00  0.45593999997E+02  0.45594000000E+02  0.51100000000E-03 0.  1.
         11   -1    0    0    0    0 -0.00000000000E+00 -0.00000000000E+00 -0.45593999997E+02  0.45594000000E+02  0.51100000000E-03 0. -1.
    9900012    2    1    2    0    0  0.27431180514E+02  0.12430374575E+02 -0.31251229930E+02  0.47787271336E+02  0.20000001328E+02 0.  0.
        -12    1    1    2    0    0 -0.27431180514E+02 -0.12430374575E+02  0.31251229930E+02  0.43400728664E+02  0.00000000000E+00 0.  1.
         11    1    3    3    0    0  0.60051473840E+01  0.11037485841E+02 -0.12387593054E+02  0.17644839209E+02  0.51100000000E-03 0. -1.
        -11    1    3    3    0    0  0.43853129659E+01 -0.35293432392E+01 -0.31778558990E+01  0.64642093008E+01  0.51100000000E-03 0.  1.
         12    1    3    3    0    0  0.17040720165E+02  0.49222319725E+01 -0.15685780977E+02  0.23678222825E+02  0.00000000000E+00 0. -1.
</event>
<event>
 7    1  0.2294216E-010  0.4778727E+02  0.7816164E-02  0.1312668E+00
        -11   -1    0    0    0    0  0.00000000000E+00  0.00000000000E+00  0.45593999997E+02  0.45594000000E+02  0.51100000000E-03 0. -1.
         11   -1    0    0    0    0 -0.00000000000E+00 -0.00000000000E+00 -0.45593999997E+02  0.45594000000E+02  0.51100000000E-03 0.  1.
    9900012    2    1    2    0    0  0.61098408988E+01 -0.22374192158E+02  0.36683631755E+02  0.47787268794E+02  0.19999989739E+02 0.  0.
        -12    1    1    2    0    0 -0.61098408988E+01  0.22374192158E+02 -0.36683631755E+02  0.43400731206E+02  0.00000000000E+00 0.  1.
         11    1    3    3    0    0  0.10514686257E+02 -0.18155176103E+02  0.34147133642E+02  0.40077372452E+02  0.51100000000E-03 0. -1.
        -11    1    3    3    0    0 -0.20120593703E+01 -0.30712311161E+01  0.33123805612E+01  0.49449680203E+01  0.51100000000E-03 0.  1.
         12    1    3    3    0    0 -0.23927859881E+01 -0.11477849388E+01 -0.77588244859E+00  0.27649283218E+01  0.00000000000E+00 0. -1.
</event>
<event>
 7    1  0.2294216E-010  0.4778726E+02  0.7816164E-02  0.1312668E+00
        -11   -1    0    0    0    0  0.00000000000E+00  0.00000000000E+00  0.45593999997E+02  0.45594000000E+02  0.51100000000E-03 0. -1.
         11   -1    0    0    0    0 -0.00000000000E+00 -0.00000000000E+00 -0.45593999997E+02  0.45594000000E+02  0.51100000000E-03 0.  1.
    9900012    2    1    2    0    0  0.39492452376E+02  0.16232467503E+02 -0.77767191921E+01  0.47787260867E+02  0.19999953598E+02 0.  0.
        -12    1    1    2    0    0 -0.39492452376E+02 -0.16232467503E+02  0.77767191921E+01  0.43400739133E+02  0.00000000000E+00 0.  1.
         11    1    3    3    0    0  0.36790217288E+01 -0.12010313395E+01 -0.13285547788E+00  0.38723801465E+01  0.51100000000E-03 0. -1.
        -11    1    3    3    0    0  0.17066246342E+02  0.28527110270E+01 -0.10105367165E+02  0.20037793546E+02  0.51100000000E-03 0.  1.
         12    1    3    3    0    0  0.18747184305E+02  0.14580787816E+02  0.24615034508E+01  0.23877087174E+02  0.00000000000E+00 0. -1.
</event>
<event>
 7    1  0.2294216E-010  0.4778729E+02  0.7816164E-02  0.1312668E+00
        -11   -1    0    0    0    0  0.00000000000E+00  0.00000000000E+00  0.45593999997E+02  0.45594000000E+02  0.51100000000E-03 0. -1.
         11   -1    0    0    0    0 -0.00000000000E+00 -0.00000000000E+00 -0.45593999997E+02  0.45594000000E+02  0.51100000000E-03 0.  1.
    9900012    2    1    2    0    0  0.11850485773E+01 -0.40968830559E+02  0.14274867333E+02  0.47787294304E+02  0.20000106050E+02 0.  0.
        -12    1    1    2    0    0 -0.11850485773E+01  0.40968830559E+02 -0.14274867333E+02  0.43400705696E+02  0.00000000000E+00 0.  1.
         11    1    3    3    0    0 -0.12243626717E+01 -0.13129726839E+02 -0.12921539934E+01  0.13249847283E+02  0.51100000000E-03 0. -1.
        -11    1    3    3    0    0 -0.34314198589E+01 -0.13245439117E+01  0.17379391460E+01  0.40681066307E+01  0.51100000000E-03 0.  1.
         12    1    3    3    0    0  0.58408311079E+01 -0.26514559809E+02  0.13829082181E+02  0.30469340391E+02  0.00000000000E+00 0. -1.
</event>
<event>
 7    1  0.2294216E-010  0.4778727E+02  0.7816164E-02  0.1312668E+00
        -11   -1    0    0    0    0  0.00000000000E+00  0.00000000000E+00  0.45593999997E+02  0.45594000000E+02  0.51100000000E-03 0. -1.
         11   -1    0    0    0    0 -0.00000000000E+00 -0.00000000000E+00 -0.45593999997E+02  0.45594000000E+02  0.51100000000E-03 0.  1.
    9900012    2    1    2    0    0 -0.89217015812E+01 -0.38950062245E+02 -0.16938682233E+02  0.47787273465E+02  0.20000011035E+02 0.  0.
        -12    1    1    2    0    0  0.89217015812E+01  0.38950062245E+02  0.16938682233E+02  0.43400726535E+02  0.00000000000E+00 0.  1.
         11    1    3    3    0    0 -0.67714066654E+01 -0.64908395056E+01 -0.35982617432E+00  0.93868216588E+01  0.51100000000E-03 0. -1.
        -11    1    3    3    0    0 -0.45046603539E+01 -0.72116932335E+01 -0.81303048825E+00  0.85417505837E+01  0.51100000000E-03 0.  1.
         12    1    3    3    0    0  0.23543654382E+01 -0.25247529506E+02 -0.15765825571E+02  0.29858701222E+02  0.00000000000E+00 0. -1.
</event>
<event>
 7    1  0.2294216E-010  0.4778727E+02  0.7816164E-02  0.1312668E+00
        -11   -1    0    0    0    0  0.00000000000E+00  0.00000000000E+00  0.45593999997E+02  0.45594000000E+02  0.51100000000E-03 0.  1.
         11   -1    0    0    0    0 -0.00000000000E+00 -0.00000000000E+00 -0.45593999997E+02  0.45594000000E+02  0.51100000000E-03 0. -1.
    9900012    2    1    2    0    0  0.43368916545E+00 -0.38705685414E+02 -0.19629190023E+02  0.47787271082E+02  0.20000000170E+02 0.  0.
        -12    1    1    2    0    0 -0.43368916545E+00  0.38705685414E+02  0.19629190023E+02  0.43400728918E+02  0.00000000000E+00 0.  1.
         11    1    3    3    0    0  0.27927632666E+01 -0.76784550341E+01 -0.22107620163E+01  0.84643763697E+01  0.51100000000E-03 0. -1.
        -11    1    3    3    0    0 -0.53432537454E+01 -0.14702142106E+01 -0.24872626154E+01  0.60744025213E+01  0.51100000000E-03 0.  1.
        -12    1    3    3    0    0  0.29841796442E+01 -0.29557016170E+02 -0.14931165391E+02  0.33248492191E+02  0.00000000000E+00 0.  1.
</event>
<event>
 7    1  0.2294216E-010  0.4778727E+02  0.7816164E-02  0.1312668E+00
        -11   -1    0    0    0    0  0.00000000000E+00  0.00000000000E+00  0.45593999997E+02  0.45594000000E+02  0.51100000000E-03 0.  1.
         11   -1    0    0    0    0 -0.00000000000E+00 -0.00000000000E+00 -0.45593999997E+02  0.45594000000E+02  0.51100000000E-03 0. -1.
    9900012    2    1    2    0    0 -0.26775152683E+02 -0.38266334797E+01 -0.33942176665E+02  0.47787270954E+02  0.19999999589E+02 0.  0.
        -12    1    1    2    0    0  0.26775152683E+02  0.38266334797E+01  0.33942176665E+02  0.43400729046E+02  0.00000000000E+00 0.  1.
         11    1    3    3    0    0 -0.22567765493E+02 -0.67599256386E+01 -0.29491539525E+02  0.37745881070E+02  0.51100000000E-03 0. -1.
        -11    1    3    3    0    0 -0.42993146555E+01 -0.15009517480E+01 -0.25159221354E+01  0.52025788903E+01  0.51100000000E-03 0.  1.
        -12    1    3    3    0    0  0.91927465505E-01  0.44342439069E+01 -0.19347150041E+01  0.48388109936E+01  0.00000000000E+00 0.  1.
</event>
<event>
 7    1  0.2294216E-010  0.4778727E+02  0.7816164E-02  0.1312668E+00
        -11   -1    0    0    0    0  0.00000000000E+00  0.00000000000E+00  0.45593999997E+02  0.45594000000E+02  0.51100000000E-03 0. -1.
         11   -1    0    0    0    0 -0.00000000000E+00 -0.00000000000E+00 -0.45593999997E+02  0.45594000000E+02  0.51100000000E-03 0.  1.
    9900012    2    1    2    0    0  0.22115819028E+02  0.36896647692E+02 -0.57576931984E+01  0.47787273126E+02  0.20000009490E+02 0.  0.
        -12    1    1    2    0    0 -0.22115819028E+02 -0.36896647692E+02  0.57576931984E+01  0.43400726874E+02  0.00000000000E+00 0.  1.
         11    1    3    3    0    0  0.26151340891E+01  0.42944891616E+01 -0.10365174008E+01  0.51338028835E+01  0.51100000000E-03 0.  1.
        -11    1    3    3    0    0  0.23236358135E+01 -0.21557320005E+01  0.12853441406E+01  0.34203177737E+01  0.51100000000E-03 0. -1.
         12    1    3    3    0    0  0.17177049126E+02  0.34757890531E+02 -0.60065199383E+01  0.39233152469E+02  0.00000000000E+00 0. -1.
</event>
<event>
 7    1  0.2294216E-010  0.4778723E+02  0.7816164E-02  0.1312668E+00
        -11   -1    0    0    0    0  0.00000000000E+00  0.00000000000E+00  0.45593999997E+02  0.45594000000E+02  0.51100000000E-03 0. -1.
         11   -1    0    0    0    0 -0.00000000000E+00 -0.00000000000E+00 -0.45593999997E+02  0.45594000000E+02  0.51100000000E-03 0.  1.
    9900012    2    1    2    0    0 -0.41840502098E+02  0.10050076875E+02  0.56564129080E+01  0.47787231942E+02  0.19999821717E+02 0.  0.
        -12    1    1    2    0    0  0.41840502098E+02 -0.10050076875E+02 -0.56564129080E+01  0.43400768058E+02  0.00000000000E+00 0.  1.
         11    1    3    3    0    0 -0.97519820902E+01  0.65381948045E+01 -0.52496043623E+00  0.11752647774E+02  0.51100000000E-03 0. -1.
        -11    1    3    3    0    0 -0.13297819391E+02 -0.91520183196E+00 -0.43785391492E+01  0.14030010702E+02  0.51100000000E-03 0.  1.
        -12    1    3    3    0    0 -0.18790700617E+02  0.44270839030E+01  0.10559912493E+02  0.22004573466E+02  0.00000000000E+00 0.  1.
</event>
<event>
 7    1  0.2294216E-010  0.4778727E+02  0.7816164E-02  0.1312668E+00
        -11   -1    0    0    0    0  0.00000000000E+00  0.00000000000E+00  0.45593999997E+02  0.45594000000E+02  0.51100000000E-03 0. -1.
         11   -1    0    0    0    0 -0.00000000000E+00 -0.00000000000E+00 -0.45593999997E+02  0.45594000000E+02  0.51100000000E-03 0.  1.
    9900012    2    1    2    0    0  0.15561701390E+02  0.26968755622E+02  0.30234798087E+02  0.47787270222E+02  0.19999996248E+02 0.  0.
        -12    1    1    2    0    0 -0.15561701390E+02 -0.26968755622E+02 -0.30234798087E+02  0.43400729778E+02  0.00000000000E+00 0.  1.
         11    1    3    3    0    0  0.16643637604E+02  0.94757763252E+01  0.18898978498E+02  0.26906735183E+02  0.51100000000E-03 0. -1.
        -11    1    3    3    0    0 -0.33467085533E+00  0.41398743723E+01  0.29602669023E+01  0.51003671235E+01  0.51100000000E-03 0.  1.
         12    1    3    3    0    0 -0.74726535873E+00  0.13353104924E+02  0.83755526869E+01  0.15780167915E+02  0.00000000000E+00 0. -1.
</event>
<event>
 7    1  0.2294216E-010  0.4778729E+02  0.7816164E-02  0.1312668E+00
        -11   -1    0    0    0    0  0.00000000000E+00  0.00000000000E+00  0.45593999997E+02  0.45594000000E+02  0.51100000000E-03 0. -1.
         11   -1    0    0    0    0 -0.00000000000E+00 -0.00000000000E+00 -0.45593999997E+02  0.45594000000E+02  0.51100000000E-03 0.  1.
    9900012    2    1    2    0    0 -0.84590881363E+00 -0.20288387349E+02  0.38357361734E+02  0.47787292377E+02  0.20000097265E+02 0.  0.
        -12    1    1    2    0    0  0.84590881363E+00  0.20288387349E+02 -0.38357361734E+02  0.43400707623E+02  0.00000000000E+00 0.  1.
         11    1    3    3    0    0 -0.31546091363E+01 -0.15546986163E+01  0.10373317637E+02  0.10953281045E+02  0.51100000000E-03 0.  1.
        -11    1    3    3    0    0  0.42111108690E+01 -0.69922667950E+01  0.22109046062E+02  0.23567672089E+02  0.51100000000E-03 0. -1.
        -12    1    3    3    0    0 -0.19024105464E+01 -0.11741421938E+02  0.58749980357E+01  0.13266339244E+02  0.00000000000E+00 0.  1.
</event>
<event>
 7    1  0.2294216E-010  0.4778726E+02  0.7816164E-02  0.1312668E+00
        -11   -1    0    0    0    0  0.00000000000E+00  0.00000000000E+00  0.45593999997E+02  0.45594000000E+02  0.51100000000E-03 0.  1.
         11   -1    0    0    0    0 -0.00000000000E+00 -0.00000000000E+00 -0.45593999997E+02  0.45594000000E+02  0.51100000000E-03 0. -1.
    9900012    2    1    2    0    0 -0.23998617570E+02  0.90612313853E+01 -0.35008354647E+02  0.47787257442E+02  0.19999937981E+02 0.  0.
        -12    1    1    2    0    0  0.23998617570E+02 -0.90612313853E+01  0.35008354647E+02  0.43400742558E+02  0.00000000000E+00 0.  1.
         11    1    3    3    0    0 -0.14745194759E+01  0.22886992406E+01 -0.13196790276E+02  0.13474703178E+02  0.51100000000E-03 0. -1.
        -11    1    3    3    0    0  0.92444250975E+00  0.13737150406E+01  0.24150923357E+00  0.16733242177E+01  0.51100000000E-03 0.  1.
         12    1    3    3    0    0 -0.23448540604E+02  0.53988171042E+01 -0.22053073605E+02  0.32639230046E+02  0.00000000000E+00 0. -1.
</event>
<event>
 7    1  0.2294216E-010  0.4778727E+02  0.7816164E-02  0.1312668E+00
        -11   -1    0    0    0    0  0.00000000000E+00  0.00000000000E+00  0.45593999997E+02  0.45594000000E+02  0.51100000000E-03 0.  1.
         11   -1    0    0    0    0 -0.00000000000E+00 -0.00000000000E+00 -0.45593999997E+02  0.45594000000E+02  0.51100000000E-03 0. -1.
    9900012    2    1    2    0    0  0.11000452802E+02  0.43848881767E+01 -0.41753876426E+02  0.47787269560E+02  0.19999993230E+02 0.  0.
        -12    1    1    2    0    0 -0.11000452802E+02 -0.43848881767E+01  0.41753876426E+02  0.43400730440E+02  0.00000000000E+00 0.  1.
         11    1    3    3    0    0 -0.10705098305E-01 -0.21680177962E+00  0.11150509279E+01  0.11359825895E+01  0.51100000000E-03 0. -1.
        -11    1    3    3    0    0 -0.10197212949E+01 -0.36645529932E+01 -0.87689783851E+01  0.95584393254E+01  0.51100000000E-03 0.  1.
         12    1    3    3    0    0  0.12030879195E+02  0.82662429495E+01 -0.34099948969E+02  0.37092847645E+02  0.00000000000E+00 0. -1.
</event>
<event>
 7    1  0.2294216E-010  0.4778729E+02  0.7816164E-02  0.1312668E+00
        -11   -1    0    0    0    0  0.00000000000E+00  0.00000000000E+00  0.45593999997E+02  0.45594000000E+02  0.51100000000E-03 0. -1.
         11   -1    0    0    0    0 -0.00000000000E+00 -0.00000000000E+00 -0.45593999997E+02  0.45594000000E+02  0.51100000000E-03 0.  1.
    9900012    2    1    2    0    0  0.32528636884E+02 -0.10917368119E+02  0.26576697368E+02  0.47787285868E+02  0.20000067587E+02 0.  0.
        -12    1    1    2    0    0 -0.32528636884E+02  0.10917368119E+02 -0.26576697368E+02  0.43400714132E+02  0.00000000000E+00 0.  1.
         11    1    3    3    0    0  0.99327347212E+01 -0.29683383546E+01  0.20055322468E+01  0.10558996708E+02  0.51100000000E-03 0. -1.
        -11    1    3    3    0    0  0.20214243042E+02 -0.77439016027E+01  0.12654636843E+02  0.25074358769E+02  0.51100000000E-03 0.  1.
        -12    1    3    3    0    0  0.23816591202E+01 -0.20512816195E+00  0.11916528279E+02  0.12153930391E+02  0.00000000000E+00 0.  1.
</event>
<event>
 7    1  0.2294216E-010  0.4778723E+02  0.7816164E-02  0.1312668E+00
        -11   -1    0    0    0    0  0.00000000000E+00  0.00000000000E+00  0.45593999997E+02  0.45594000000E+02  0.51100000000E-03 0.  1.
         11   -1    0    0    0    0 -0.00000000000E+00 -0.00000000000E+00 -0.45593999997E+02  0.45594000000E+02  0.51100000000E-03 0. -1.
    9900012    2    1    2    0    0 -0.15433574769E+01 -0.12372541359E+02 -0.41571208935E+02  0.47787226455E+02  0.19999796697E+02 0.  0.
        -12    1    1    2    0    0  0.15433574769E+01  0.12372541359E+02  0.41571208935E+02  0.43400773545E+02  0.00000000000E+00 0.  1.
         11    1    3    3    0    0 -0.15308008703E+01 -0.18603978008E+01 -0.18829891339E+02  0.18983393779E+02  0.51100000000E-03 0. -1.
        -11    1    3    3    0    0 -0.44705900097E+01  0.14762467281E+01 -0.44062889618E+01  0.64483224263E+01  0.51100000000E-03 0.  1.
         12    1    3    3    0    0  0.44580334030E+01 -0.11988390286E+02 -0.18335028635E+02  0.22355510249E+02  0.00000000000E+00 0. -1.
</event>
<event>
 7    1  0.2294216E-010  0.4778728E+02  0.7816164E-02  0.1312668E+00
        -11   -1    0    0    0    0  0.00000000000E+00  0.00000000000E+00  0.45593999997E+02  0.45594000000E+02  0.51100000000E-03 0.  1.
         11   -1    0    0    0    0 -0.00000000000E+00 -0.00000000000E+00 -0.45593999997E+02  0.45594000000E+02  0.51100000000E-03 0. -1.
    9900012    2    1    2    0    0 -0.13748193432E+02  0.96395438456E+01 -0.40021110365E+02  0.47787275316E+02  0.20000019476E+02 0.  0.
        -12    1    1    2    0    0  0.13748193432E+02 -0.96395438456E+01  0.40021110365E+02  0.43400724684E+02  0.00000000000E+00 0.  1.
         11    1    3    3    0    0 -0.47903368478E+01  0.71302481276E+01 -0.21119330668E+02  0.22799427484E+02  0.51100000000E-03 0. -1.
        -11    1    3    3    0    0 -0.56705330955E+00  0.66991969099E+01 -0.58254061287E+01  0.88958499042E+01  0.51100000000E-03 0.  1.
         12    1    3    3    0    0 -0.83908032750E+01 -0.41899011919E+01 -0.13076373568E+02  0.16091997927E+02  0.00000000000E+00 0. -1.
</event>
<event>
 7    1  0.2294216E-010  0.4778727E+02  0.7816164E-02  0.1312668E+00
        -11   -1    0    0    0    0  0.00000000000E+00  0.00000000000E+00  0.45593999997E+02  0.45594000000E+02  0.51100000000E-03 0. -1.
         11   -1    0    0    0    0 -0.00000000000E+00 -0.00000000000E+00 -0.45593999997E+02  0.45594000000E+02  0.51100000000E-03 0.  1.
    9900012    2    1    2    0    0  0.34191764783E+02  0.13507518706E+02  0.23067159473E+02  0.47787266288E+02  0.19999978314E+02 0.  0.
        -12    1    1    2    0    0 -0.34191764783E+02 -0.13507518706E+02 -0.23067159473E+02  0.43400733712E+02  0.00000000000E+00 0.  1.
         11    1    3    3    0    0  0.26929769649E+01  0.27933163466E+01  0.53911059286E-01  0.38804185095E+01  0.51100000000E-03 0. -1.
        -11    1    3    3    0    0  0.20264715490E+02  0.46866216777E+01  0.42615055700E+01  0.21231663774E+02  0.51100000000E-03 0.  1.
         12    1    3    3    0    0  0.11234072328E+02  0.60275806820E+01  0.18751742844E+02  0.22675184005E+02  0.00000000000E+00 0. -1.
</event>
<event>
 7    1  0.2294216E-010  0.4778727E+02  0.7816164E-02  0.1312668E+00
        -11   -1    0    0    0    0  0.00000000000E+00  0.00000000000E+00  0.45593999997E+02  0.45594000000E+02  0.51100000000E-03 0.  1.
         11   -1    0    0    0    0 -0.00000000000E+00 -0.00000000000E+00 -0.45593999997E+02  0.45594000000E+02  0.51100000000E-03 0. -1.
    9900012    2    1    2    0    0  0.32047357794E+02 -0.12422179676E+02 -0.26500560134E+02  0.47787269857E+02  0.19999994588E+02 0.  0.
        -12    1    1    2    0    0 -0.32047357794E+02  0.12422179676E+02  0.26500560134E+02  0.43400730143E+02  0.00000000000E+00 0.  1.
         11    1    3    3    0    0  0.82491463766E+01 -0.88904995296E+01 -0.98090242007E+01  0.15598280478E+02  0.51100000000E-03 0. -1.
        -11    1    3    3    0    0  0.93640105635E+01 -0.33042791898E+01 -0.14519802465E+02  0.17590554815E+02  0.51100000000E-03 0.  1.
        -12    1    3    3    0    0  0.14434200854E+02 -0.22740095692E+00 -0.21717334680E+01  0.14598434565E+02  0.00000000000E+00 0.  1.
</event>
<event>
 7    1  0.2294216E-010  0.4778727E+02  0.7816164E-02  0.1312668E+00
        -11   -1    0    0    0    0  0.00000000000E+00  0.00000000000E+00  0.45593999997E+02  0.45594000000E+02  0.51100000000E-03 0.  1.
         11   -1    0    0    0    0 -0.00000000000E+00 -0.00000000000E+00 -0.45593999997E+02  0.45594000000E+02  0.51100000000E-03 0. -1.
    9900012    2    1    2    0    0 -0.93562990248E+01  0.44443735455E+01 -0.42146536987E+02  0.47787269964E+02  0.19999995074E+02 0.  0.
        -12    1    1    2    0    0  0.93562990248E+01 -0.44443735455E+01  0.42146536987E+02  0.43400730036E+02  0.00000000000E+00 0.  1.
         11    1    3    3    0    0 -0.70622839929E+01 -0.38687936268E+01 -0.11446776085E+02  0.13995431480E+02  0.51100000000E-03 0. -1.
        -11    1    3    3    0    0  0.88108043311E+00 -0.20959752535E+01 -0.17652665798E+01  0.28784685775E+01  0.51100000000E-03 0.  1.
         12    1    3    3    0    0 -0.31750954650E+01  0.10409142426E+02 -0.28934494322E+02  0.30913369906E+02  0.00000000000E+00 0. -1.
</event>
<event>
 7    1  0.2294216E-010  0.4778727E+02  0.7816164E-02  0.1312668E+00
        -11   -1    0    0    0    0  0.00000000000E+00  0.00000000000E+00  0.45593999997E+02  0.45594000000E+02  0.51100000000E-03 0. -1.
         11   -1    0    0    0    0 -0.00000000000E+00 -0.00000000000E+00 -0.45593999997E+02  0.45594000000E+02  0.51100000000E-03 0.  1.
    9900012    2    1    2    0    0 -0.26945546436E+02 -0.29204165350E+01  0.33897376429E+02  0.47787269197E+02  0.19999991577E+02 0.  0.
        -12    1    1    2    0    0  0.26945546436E+02  0.29204165350E+01 -0.33897376429E+02  0.43400730803E+02  0.00000000000E+00 0.  1.
         11    1    3    3    0    0 -0.90764819063E+01  0.52898907182E+01  0.40451199175E+01  0.11257373717E+02  0.51100000000E-03 0. -1.
        -11    1    3    3    0    0  0.31659725933E+00 -0.88309958537E+00  0.16480716910E+00  0.95250216084E+00  0.51100000000E-03 0.  1.
         12    1    3    3    0    0 -0.18185661789E+02 -0.73272076678E+01  0.29687449342E+02  0.35577393319E+02  0.00000000000E+00 0. -1.
</event>
<event>
 7    1  0.2294216E-010  0.4778727E+02  0.7816164E-02  0.1312668E+00
        -11   -1    0    0    0    0  0.00000000000E+00  0.00000000000E+00  0.45593999997E+02  0.45594000000E+02  0.51100000000E-03 0.  1.
         11   -1    0    0    0    0 -0.00000000000E+00 -0.00000000000E+00 -0.45593999997E+02  0.45594000000E+02  0.51100000000E-03 0. -1.
    9900012    2    1    2    0    0 -0.20448144204E+02  0.11467825321E+02 -0.36523769582E+02  0.47787270012E+02  0.19999995292E+02 0.  0.
        -12    1    1    2    0    0  0.20448144204E+02 -0.11467825321E+02  0.36523769582E+02  0.43400729988E+02  0.00000000000E+00 0.  1.
         11    1    3    3    0    0 -0.11668810712E+02  0.11754038657E+01 -0.18860855213E+02  0.22209785620E+02  0.51100000000E-03 0. -1.
        -11    1    3    3    0    0 -0.31191013884E+00  0.39408281331E+01 -0.13726376763E+02  0.14284286248E+02  0.51100000000E-03 0.  1.
        -12    1    3    3    0    0 -0.84674233536E+01  0.63515933222E+01 -0.39365376059E+01  0.11293198143E+02  0.00000000000E+00 0.  1.
</event>
<event>
 7    1  0.2294216E-010  0.4778727E+02  0.7816164E-02  0.1312668E+00
        -11   -1    0    0    0    0  0.00000000000E+00  0.00000000000E+00  0.45593999997E+02  0.45594000000E+02  0.51100000000E-03 0.  1.
         11   -1    0    0    0    0 -0.00000000000E+00 -0.00000000000E+00 -0.45593999997E+02  0.45594000000E+02  0.51100000000E-03 0. -1.
    9900012    2    1    2    0    0 -0.24887166840E+02  0.23282705265E+02 -0.26873180477E+02  0.47787271127E+02  0.20000000374E+02 0.  0.
        -12    1    1    2    0    0  0.24887166840E+02 -0.23282705265E+02  0.26873180477E+02  0.43400728873E+02  0.00000000000E+00 0.  1.
         11    1    3    3    0    0 -0.64082070833E+01  0.44909900762E+01 -0.15345216752E+02  0.17225265957E+02  0.51100000000E-03 0. -1.
        -11    1    3    3    0    0  0.71866100066E+00  0.38904844314E+01 -0.22327425589E+01  0.45428495837E+01  0.51100000000E-03 0.  1.
         12    1    3    3    0    0 -0.19197620758E+02  0.14901230757E+02 -0.92952211666E+01  0.26019155585E+02  0.00000000000E+00 0. -1.
</event>
<event>
 7    1  0.2294216E-010  0.4778727E+02  0.7816164E-02  0.1312668E+00
        -11   -1    0    0    0    0  0.00000000000E+00  0.00000000000E+00  0.45593999997E+02  0.45594000000E+02  0.51100000000E-03 0.  1.
         11   -1    0    0    0    0 -0.00000000000E+00 -0.00000000000E+00 -0.45593999997E+02  0.45594000000E+02  0.51100000000E-03 0. -1.
    9900012    2    1    2    0    0  0.36763242254E+02 -0.30613934471E+01 -0.22862966040E+02  0.47787270432E+02  0.19999997208E+02 0.  0.
        -12    1    1    2    0    0 -0.36763242254E+02  0.30613934471E+01  0.22862966040E+02  0.43400729568E+02  0.00000000000E+00 0.  1.
         11    1    3    3    0    0  0.85221418855E+01 -0.17865439317E+01 -0.41269265331E+01  0.96358790158E+01  0.51100000000E-03 0. -1.
        -11    1    3    3    0    0 -0.15017510177E+01  0.10601654667E+01  0.12663634655E+01  0.22322373584E+01  0.51100000000E-03 0.  1.
        -12    1    3    3    0    0  0.29742851386E+02 -0.23350149822E+01 -0.20002402973E+02  0.35919154058E+02  0.00000000000E+00 0.  1.
</event>
<event>
 7    1  0.2387196E-010  0.4778727E+02  0.7816164E-02  0.1312668E+00
        -11   -1    0    0    0    0  0.00000000000E+00  0.00000000000E+00  0.45593999997E+02  0.45594000000E+02  0.51100000000E-03 0.  1.
         11   -1    0    0    0    0 -0.00000000000E+00 -0.00000000000E+00 -0.45593999997E+02  0.45594000000E+02  0.51100000000E-03 0. -1.
    9900012    2    1    2    0    0 -0.43309220994E+02  0.16690491293E+01  0.22690914702E+01  0.47787272769E+02  0.20000007861E+02 0.  0.
        -12    1    1    2    0    0  0.43309220994E+02 -0.16690491293E+01 -0.22690914702E+01  0.43400727231E+02  0.00000000000E+00 0.  1.
         11    1    3    3    0    0 -0.21187684377E+02 -0.16506875396E+01 -0.29753694838E+01  0.21459160338E+02  0.51100000000E-03 0. -1.
        -11    1    3    3    0    0 -0.11349550586E+02 -0.43261326381E+01  0.49475942176E+01  0.13115121460E+02  0.51100000000E-03 0.  1.
        -12    1    3    3    0    0 -0.10771986032E+02  0.76458693069E+01  0.29686673641E+00  0.13212990971E+02  0.00000000000E+00 0.  1.
</event>
<event>
 7    1  0.2294216E-010  0.4778727E+02  0.7816164E-02  0.1312668E+00
        -11   -1    0    0    0    0  0.00000000000E+00  0.00000000000E+00  0.45593999997E+02  0.45594000000E+02  0.51100000000E-03 0. -1.
         11   -1    0    0    0    0 -0.00000000000E+00 -0.00000000000E+00 -0.45593999997E+02  0.45594000000E+02  0.51100000000E-03 0.  1.
    9900012    2    1    2    0    0  0.12750164565E+02 -0.40611807198E+02  0.84698108244E+01  0.47787271023E+02  0.19999999902E+02 0.  0.
        -12    1    1    2    0    0 -0.12750164565E+02  0.40611807198E+02 -0.84698108244E+01  0.43400728977E+02  0.00000000000E+00 0.  1.
         11    1    3    3    0    0  0.74260492953E+01 -0.27086683000E+02  0.82734711074E+00  0.28098382651E+02  0.51100000000E-03 0. -1.
        -11    1    3    3    0    0  0.33096060635E+01 -0.15067033445E+02  0.74873256553E+01  0.17147274853E+02  0.51100000000E-03 0.  1.
        -12    1    3    3    0    0  0.20145092060E+01  0.15419092471E+01  0.15513805830E+00  0.25416135199E+01  0.00000000000E+00 0.  1.
</event>
<event>
 7    1  0.2294216E-010  0.4778727E+02  0.7816164E-02  0.1312668E+00
        -11   -1    0    0    0    0  0.00000000000E+00  0.00000000000E+00  0.45593999997E+02  0.45594000000E+02  0.51100000000E-03 0.  1.
         11   -1    0    0    0    0 -0.00000000000E+00 -0.00000000000E+00 -0.45593999997E+02  0.45594000000E+02  0.51100000000E-03 0. -1.
    9900012    2    1    2    0    0  0.45762941439E+01 -0.38814866330E+02  0.18870265569E+02  0.47787271447E+02  0.20000001836E+02 0.  0.
        -12    1    1    2    0    0 -0.45762941439E+01  0.38814866330E+02 -0.18870265569E+02  0.43400728553E+02  0.00000000000E+00 0.  1.
         11    1    3    3    0    0  0.20536189582E+01 -0.26704191202E+01  0.47892658348E+01  0.58553869727E+01  0.51100000000E-03 0. -1.
        -11    1    3    3    0    0 -0.35942665369E+01 -0.68276002576E+01  0.84790515003E+01  0.11464257142E+02  0.51100000000E-03 0.  1.
         12    1    3    3    0    0  0.61169417226E+01 -0.29316846952E+02  0.56019482337E+01  0.30467627332E+02  0.00000000000E+00 0. -1.
</event>
<event>
 7    1  0.2294216E-010  0.4778726E+02  0.7816164E-02  0.1312668E+00
        -11   -1    0    0    0    0  0.00000000000E+00  0.00000000000E+00  0.45593999997E+02  0.45594000000E+02  0.51100000000E-03 0.  1.
         11   -1    0    0    0    0 -0.00000000000E+00 -0.00000000000E+00 -0.45593999997E+02  0.45594000000E+02  0.51100000000E-03 0. -1.
    9900012    2    1    2    0    0  0.13627630681E+01 -0.68379113716E+01 -0.42837017072E+02  0.47787260528E+02  0.19999952049E+02 0.  0.
        -12    1    1    2    0    0 -0.13627630681E+01  0.68379113716E+01  0.42837017072E+02  0.43400739472E+02  0.00000000000E+00 0.  1.
         11    1    3    3    0    0  0.29726786254E+00 -0.58357805726E+01 -0.21842117946E+02  0.22610237056E+02  0.51100000000E-03 0. -1.
        -11    1    3    3    0    0 -0.53993644036E+01 -0.16317906766E+01 -0.16053587079E+02  0.17015684974E+02  0.51100000000E-03 0.  1.
         12    1    3    3    0    0  0.64648596091E+01  0.62965987770E+00 -0.49413120468E+01  0.81613384976E+01  0.00000000000E+00 0. -1.
</event>
<event>
 7    1  0.2294216E-010  0.4778729E+02  0.7816164E-02  0.1312668E+00
        -11   -1    0    0    0    0  0.00000000000E+00  0.00000000000E+00  0.45593999997E+02  0.45594000000E+02  0.51100000000E-03 0. -1.
         11   -1    0    0    0    0 -0.00000000000E+00 -0.00000000000E+00 -0.45593999997E+02  0.45594000000E+02  0.51100000000E-03 0.  1.
    9900012    2    1    2    0    0  0.34161245562E+02 -0.26768446774E+02  0.28511254487E+00  0.47787288828E+02  0.20000081083E+02 0.  0.
        -12    1    1    2    0    0 -0.34161245562E+02  0.26768446774E+02 -0.28511254487E+00  0.43400711172E+02  0.00000000000E+00 0.  1.
         11    1    3    3    0    0  0.94969914656E+01 -0.31505856665E+01  0.36040682111E+01  0.10635240706E+02  0.51100000000E-03 0. -1.
        -11    1    3    3    0    0  0.26891956238E+01  0.17437705638E+01 -0.15172736367E+01  0.35460722542E+01  0.51100000000E-03 0.  1.
        -12    1    3    3    0    0  0.21975058473E+02 -0.25361631671E+02 -0.18016820295E+01  0.33605975868E+02  0.00000000000E+00 0.  1.
</event>
<event>
 7    1  0.2294216E-010  0.4778727E+02  0.7816164E-02  0.1312668E+00
        -11   -1    0    0    0    0  0.00000000000E+00  0.00000000000E+00  0.45593999997E+02  0.45594000000E+02  0.51100000000E-03 0.  1.
         11   -1    0    0    0    0 -0.00000000000E+00 -0.00000000000E+00 -0.45593999997E+02  0.45594000000E+02  0.51100000000E-03 0. -1.
    9900012    2    1    2    0    0  0.34571376924E+02 -0.11042401004E+02 -0.23801436585E+02  0.47787272980E+02  0.20000008827E+02 0.  0.
        -12    1    1    2    0    0 -0.34571376924E+02  0.11042401004E+02  0.23801436585E+02  0.43400727020E+02  0.00000000000E+00 0.  1.
         11    1    3    3    0    0  0.15364111032E+02 -0.32147950194E+01 -0.14877592645E+02  0.21627149096E+02  0.51100000000E-03 0.  1.
        -11    1    3    3    0    0  0.18151243606E+02 -0.55303812970E+01 -0.11788901686E+02  0.22339000984E+02  0.51100000000E-03 0. -1.
        -12    1    3    3    0    0  0.10560222860E+01 -0.22972246874E+01  0.28650577468E+01  0.38211229011E+01  0.00000000000E+00 0.  1.
</event>
<event>
 7    1  0.2294216E-010  0.4778727E+02  0.7816164E-02  0.1312668E+00
        -11   -1    0    0    0    0  0.00000000000E+00  0.00000000000E+00  0.45593999997E+02  0.45594000000E+02  0.51100000000E-03 0. -1.
         11   -1    0    0    0    0 -0.00000000000E+00 -0.00000000000E+00 -0.45593999997E+02  0.45594000000E+02  0.51100000000E-03 0.  1.
    9900012    2    1    2    0    0 -0.13021437621E+02  0.12381575660E+02  0.39506480967E+02  0.47787270836E+02  0.19999999049E+02 0.  0.
        -12    1    1    2    0    0  0.13021437621E+02 -0.12381575660E+02 -0.39506480967E+02  0.43400729164E+02  0.00000000000E+00 0.  1.
         11    1    3    3    0    0 -0.25484739562E+01 -0.10973422789E+01  0.54838819101E+01  0.61458799734E+01  0.51100000000E-03 0. -1.
        -11    1    3    3    0    0 -0.85470073573E+01  0.22479671946E+01  0.43381592782E+01  0.98450148531E+01  0.51100000000E-03 0.  1.
         12    1    3    3    0    0 -0.19259563073E+01  0.11230950745E+02  0.29684439779E+02  0.31796376009E+02  0.00000000000E+00 0. -1.
</event>
<event>
 7    1  0.2294216E-010  0.4778727E+02  0.7816164E-02  0.1312668E+00
        -11   -1    0    0    0    0  0.00000000000E+00  0.00000000000E+00  0.45593999997E+02  0.45594000000E+02  0.51100000000E-03 0. -1.
         11   -1    0    0    0    0 -0.00000000000E+00 -0.00000000000E+00 -0.45593999997E+02  0.45594000000E+02  0.51100000000E-03 0.  1.
    9900012    2    1    2    0    0 -0.42417431363E+02 -0.60556425456E+01 -0.69075404647E+01  0.47787269530E+02  0.19999993096E+02 0.  0.
        -12    1    1    2    0    0  0.42417431363E+02  0.60556425456E+01  0.69075404647E+01  0.43400730470E+02  0.00000000000E+00 0.  1.
         11    1    3    3    0    0 -0.76618387638E+01 -0.10174570390E+00  0.17333566294E+01  0.78561218739E+01  0.51100000000E-03 0. -1.
        -11    1    3    3    0    0 -0.21139768098E+02  0.37008345556E+01 -0.89104654489E+01  0.23237520660E+02  0.51100000000E-03 0.  1.
        -12    1    3    3    0    0 -0.13615824501E+02 -0.96547313973E+01  0.26956835487E+00  0.16693626997E+02  0.00000000000E+00 0.  1.
</event>
<event>
 7    1  0.2294216E-010  0.4778727E+02  0.7816164E-02  0.1312668E+00
        -11   -1    0    0    0    0  0.00000000000E+00  0.00000000000E+00  0.45593999997E+02  0.45594000000E+02  0.51100000000E-03 0. -1.
         11   -1    0    0    0    0 -0.00000000000E+00 -0.00000000000E+00 -0.45593999997E+02  0.45594000000E+02  0.51100000000E-03 0.  1.
    9900012    2    1    2    0    0  0.10374423453E+02  0.33991345264E+02  0.24911503056E+02  0.47787271903E+02  0.20000003915E+02 0.  0.
        -12    1    1    2    0    0 -0.10374423453E+02 -0.33991345264E+02 -0.24911503056E+02  0.43400728097E+02  0.00000000000E+00 0.  1.
         11    1    3    3    0    0  0.13357734823E+02  0.16278957920E+02  0.20277524569E+02  0.29233739984E+02  0.51100000000E-03 0. -1.
        -11    1    3    3    0    0 -0.53775119900E+00  0.41041545288E+01  0.10496729981E+01  0.42702546075E+01  0.51100000000E-03 0.  1.
         12    1    3    3    0    0 -0.24455601717E+01  0.13608232816E+02  0.35843054889E+01  0.14283277311E+02  0.00000000000E+00 0. -1.
</event>
<event>
 7    1  0.2294216E-010  0.4778727E+02  0.7816164E-02  0.1312668E+00
        -11   -1    0    0    0    0  0.00000000000E+00  0.00000000000E+00  0.45593999997E+02  0.45594000000E+02  0.51100000000E-03 0. -1.
         11   -1    0    0    0    0 -0.00000000000E+00 -0.00000000000E+00 -0.45593999997E+02  0.45594000000E+02  0.51100000000E-03 0.  1.
    9900012    2    1    2    0    0 -0.30882845250E+02 -0.12701143511E+02  0.27722805382E+02  0.47787272869E+02  0.20000008321E+02 0.  0.
        -12    1    1    2    0    0  0.30882845250E+02  0.12701143511E+02 -0.27722805382E+02  0.43400727131E+02  0.00000000000E+00 0.  1.
         11    1    3    3    0    0 -0.13765171468E+02 -0.39911590901E+01  0.40102326153E+01  0.14882582515E+02  0.51100000000E-03 0. -1.
        -11    1    3    3    0    0  0.99048804463E+00 -0.13023464953E+01  0.69533987883E+01  0.71433135120E+01  0.51100000000E-03 0.  1.
         12    1    3    3    0    0 -0.18108161826E+02 -0.74076379257E+01  0.16759173979E+02  0.25761376842E+02  0.00000000000E+00 0. -1.
</event>
<event>
 7    1  0.2294216E-010  0.4778726E+02  0.7816164E-02  0.1312668E+00
        -11   -1    0    0    0    0  0.00000000000E+00  0.00000000000E+00  0.45593999997E+02  0.45594000000E+02  0.51100000000E-03 0.  1.
         11   -1    0    0    0    0 -0.00000000000E+00 -0.00000000000E+00 -0.45593999997E+02  0.45594000000E+02  0.51100000000E-03 0. -1.
    9900012    2    1    2    0    0 -0.20709701928E+02  0.16469876566E+02 -0.34401676042E+02  0.47787263802E+02  0.19999966980E+02 0.  0.
        -12    1    1    2    0    0  0.20709701928E+02 -0.16469876566E+02  0.34401676042E+02  0.43400736198E+02  0.00000000000E+00 0.  1.
         11    1    3    3    0    0 -0.71879443317E+01  0.18113119503E+00 -0.68397985416E+01  0.99238196566E+01  0.51100000000E-03 0. -1.
        -11    1    3    3    0    0 -0.16555311183E+02  0.13189929454E+02 -0.19863777097E+02  0.29027955633E+02  0.51100000000E-03 0.  1.
        -12    1    3    3    0    0  0.30335535871E+01  0.30988159167E+01 -0.76981004028E+01  0.88354885130E+01  0.00000000000E+00 0.  1.
</event>
<event>
 7    1  0.2294216E-010  0.4778727E+02  0.7816164E-02  0.1312668E+00
        -11   -1    0    0    0    0  0.00000000000E+00  0.00000000000E+00  0.45593999997E+02  0.45594000000E+02  0.51100000000E-03 0. -1.
         11   -1    0    0    0    0 -0.00000000000E+00 -0.00000000000E+00 -0.45593999997E+02  0.45594000000E+02  0.51100000000E-03 0.  1.
    9900012    2    1    2    0    0 -0.38862850170E+02 -0.19228397567E+02  0.18896054791E+01  0.47787274140E+02  0.20000014112E+02 0.  0.
        -12    1    1    2    0    0  0.38862850170E+02  0.19228397567E+02 -0.18896054791E+01  0.43400725860E+02  0.00000000000E+00 0.  1.
         11    1    3    3    0    0 -0.84793139711E+01 -0.78009423546E+01 -0.35687246976E+01  0.12061893022E+02  0.51100000000E-03 0. -1.
        -11    1    3    3    0    0 -0.99090537036E+01 -0.70858492422E+01 -0.39108600691E+01  0.12794273388E+02  0.51100000000E-03 0.  1.
        -12    1    3    3    0    0 -0.20474482496E+02 -0.43416059698E+01  0.93691902458E+01  0.22931107730E+02  0.00000000000E+00 0.  1.
</event>
<event>
 7    1  0.2294216E-010  0.4778731E+02  0.7816164E-02  0.1312668E+00
        -11   -1    0    0    0    0  0.00000000000E+00  0.00000000000E+00  0.45593999997E+02  0.45594000000E+02  0.51100000000E-03 0.  1.
         11   -1    0    0    0    0 -0.00000000000E+00 -0.00000000000E+00 -0.45593999997E+02  0.45594000000E+02  0.51100000000E-03 0. -1.
    9900012    2    1    2    0    0  0.42911448980E+02  0.29398611909E+01 -0.57952306062E+01  0.47787309508E+02  0.20000175372E+02 0.  0.
        -12    1    1    2    0    0 -0.42911448980E+02 -0.29398611909E+01  0.57952306062E+01  0.43400690492E+02  0.00000000000E+00 0.  1.
         11    1    3    3    0    0  0.11985262782E+02  0.13169059015E+01 -0.60617107866E+01  0.13495373393E+02  0.51100000000E-03 0. -1.
        -11    1    3    3    0    0  0.14401741128E+02 -0.64637578455E+01 -0.12330894342E+01  0.15833850537E+02  0.51100000000E-03 0.  1.
        -12    1    3    3    0    0  0.16524445070E+02  0.80867131349E+01  0.14995696145E+01  0.18458085579E+02  0.00000000000E+00 0.  1.
</event>
<event>
 7    1  0.2294216E-010  0.4778727E+02  0.7816164E-02  0.1312668E+00
        -11   -1    0    0    0    0  0.00000000000E+00  0.00000000000E+00  0.45593999997E+02  0.45594000000E+02  0.51100000000E-03 0.  1.
         11   -1    0    0    0    0 -0.00000000000E+00 -0.00000000000E+00 -0.45593999997E+02  0.45594000000E+02  0.51100000000E-03 0. -1.
    9900012    2    1    2    0    0 -0.28323750116E+02  0.15338942435E+02 -0.29087886243E+02  0.47787273027E+02  0.20000009040E+02 0.  0.
        -12    1    1    2    0    0  0.28323750116E+02 -0.15338942435E+02  0.29087886243E+02  0.43400726973E+02  0.00000000000E+00 0.  1.
         11    1    3    3    0    0 -0.59244198388E+01  0.29400965287E+01 -0.16305284266E+02  0.17595602100E+02  0.51100000000E-03 0. -1.
        -11    1    3    3    0    0 -0.27654650116E+01  0.13419556402E+01 -0.58631007706E+01  0.66200145451E+01  0.51100000000E-03 0.  1.
        -12    1    3    3    0    0 -0.19633865266E+02  0.11056890266E+02 -0.69195012071E+01  0.23571656382E+02  0.00000000000E+00 0.  1.
</event>
<event>
 7    1  0.2294216E-010  0.4778727E+02  0.7816164E-02  0.1312668E+00
        -11   -1    0    0    0    0  0.00000000000E+00  0.00000000000E+00  0.45593999997E+02  0.45594000000E+02  0.51100000000E-03 0. -1.
         11   -1    0    0    0    0 -0.00000000000E+00 -0.00000000000E+00 -0.45593999997E+02  0.45594000000E+02  0.51100000000E-03 0.  1.
    9900012    2    1    2    0    0 -0.21743355167E+02  0.37460631492E+02  0.27478514988E+01  0.47787273122E+02  0.20000009471E+02 0.  0.
        -12    1    1    2    0    0  0.21743355167E+02 -0.37460631492E+02 -0.27478514988E+01  0.43400726878E+02  0.00000000000E+00 0.  1.
         11    1    3    3    0    0 -0.14079770952E+02  0.25489659117E+02 -0.29120842799E+01  0.29265045824E+02  0.51100000000E-03 0. -1.
        -11    1    3    3    0    0 -0.50009477651E+01  0.12594524232E+01 -0.14939279692E+01  0.53691265578E+01  0.51100000000E-03 0.  1.
         12    1    3    3    0    0 -0.26626364492E+01  0.10711519952E+02  0.71538637479E+01  0.13153100740E+02  0.00000000000E+00 0. -1.
</event>
<event>
 7    1  0.2294216E-010  0.4778727E+02  0.7816164E-02  0.1312668E+00
        -11   -1    0    0    0    0  0.00000000000E+00  0.00000000000E+00  0.45593999997E+02  0.45594000000E+02  0.51100000000E-03 0.  1.
         11   -1    0    0    0    0 -0.00000000000E+00 -0.00000000000E+00 -0.45593999997E+02  0.45594000000E+02  0.51100000000E-03 0. -1.
    9900012    2    1    2    0    0  0.30096302337E+02  0.22738777665E+02  0.21465874978E+02  0.47787271750E+02  0.20000003217E+02 0.  0.
        -12    1    1    2    0    0 -0.30096302337E+02 -0.22738777665E+02 -0.21465874978E+02  0.43400728250E+02  0.00000000000E+00 0.  1.
         11    1    3    3    0    0  0.44356428884E+01  0.37309949923E+01  0.23299941248E+01  0.62469291935E+01  0.51100000000E-03 0. -1.
        -11    1    3    3    0    0  0.12065469388E+02  0.11381971816E+02 -0.34522476296E+00  0.16590479630E+02  0.51100000000E-03 0.  1.
        -12    1    3    3    0    0  0.13595190061E+02  0.76258108571E+01  0.19481105616E+02  0.24949862927E+02  0.00000000000E+00 0.  1.
</event>
<event>
 7    1  0.2294216E-010  0.4778727E+02  0.7816164E-02  0.1312668E+00
        -11   -1    0    0    0    0  0.00000000000E+00  0.00000000000E+00  0.45593999997E+02  0.45594000000E+02  0.51100000000E-03 0.  1.
         11   -1    0    0    0    0 -0.00000000000E+00 -0.00000000000E+00 -0.45593999997E+02  0.45594000000E+02  0.51100000000E-03 0. -1.
    9900012    2    1    2    0    0  0.80171868736E+01  0.41880594598E+02 -0.80848052603E+01  0.47787267686E+02  0.19999984688E+02 0.  0.
        -12    1    1    2    0    0 -0.80171868736E+01 -0.41880594598E+02  0.80848052603E+01  0.43400732314E+02  0.00000000000E+00 0.  1.
         11    1    3    3    0    0  0.31625880652E+01  0.37141663710E+01 -0.77346533587E+00  0.49391541775E+01  0.51100000000E-03 0. -1.
        -11    1    3    3    0    0 -0.46995146600E+01  0.68045826716E+01 -0.56610768242E+01  0.10021755058E+02  0.51100000000E-03 0.  1.
         12    1    3    3    0    0  0.95541134684E+01  0.31361845556E+02 -0.16502631002E+01  0.32826358451E+02  0.00000000000E+00 0. -1.
</event>
<event>
 7    1  0.2294216E-010  0.4778727E+02  0.7816164E-02  0.1312668E+00
        -11   -1    0    0    0    0  0.00000000000E+00  0.00000000000E+00  0.45593999997E+02  0.45594000000E+02  0.51100000000E-03 0. -1.
         11   -1    0    0    0    0 -0.00000000000E+00 -0.00000000000E+00 -0.45593999997E+02  0.45594000000E+02  0.51100000000E-03 0.  1.
    9900012    2    1    2    0    0  0.12277054295E+02  0.31308054355E+02  0.27435429659E+02  0.47787272699E+02  0.20000007544E+02 0.  0.
        -12    1    1    2    0    0 -0.12277054295E+02 -0.31308054355E+02 -0.27435429659E+02  0.43400727301E+02  0.00000000000E+00 0.  1.
         11    1    3    3    0    0  0.80876600700E+01  0.18998065963E+02  0.15436680343E+02  0.25780377344E+02  0.51100000000E-03 0. -1.
        -11    1    3    3    0    0 -0.10362708211E+01  0.12838134037E+02  0.65911086519E+01  0.14468388172E+02  0.51100000000E-03 0.  1.
        -12    1    3    3    0    0  0.52256650460E+01 -0.52814564451E+00  0.54076406648E+01  0.75385071834E+01  0.00000000000E+00 0.  1.
</event>
<event>
 7    1  0.2294216E-010  0.4778727E+02  0.7816164E-02  0.1312668E+00
        -11   -1    0    0    0    0  0.00000000000E+00  0.00000000000E+00  0.45593999997E+02  0.45594000000E+02  0.51100000000E-03 0. -1.
         11   -1    0    0    0    0 -0.00000000000E+00 -0.00000000000E+00 -0.45593999997E+02  0.45594000000E+02  0.51100000000E-03 0.  1.
    9900012    2    1    2    0    0  0.70630024296E+01  0.42757726351E+02  0.23482170713E+01  0.47787270865E+02  0.19999999182E+02 0.  0.
        -12    1    1    2    0    0 -0.70630024296E+01 -0.42757726351E+02 -0.23482170713E+01  0.43400729135E+02  0.00000000000E+00 0.  1.
         11    1    3    3    0    0 -0.35164812855E+01  0.14668365890E+02 -0.51803575894E+01  0.15948752413E+02  0.51100000000E-03 0. -1.
        -11    1    3    3    0    0  0.14308784720E+01  0.28289896668E+00  0.12015897897E+01  0.18897786407E+01  0.51100000000E-03 0.  1.
         12    1    3    3    0    0  0.91486052430E+01  0.27806461494E+02  0.63269848709E+01  0.29948739811E+02  0.00000000000E+00 0. -1.
</event>
<event>
 7    1  0.2294216E-010  0.4778727E+02  0.7816164E-02  0.1312668E+00
        -11   -1    0    0    0    0  0.00000000000E+00  0.00000000000E+00  0.45593999997E+02  0.45594000000E+02  0.51100000000E-03 0. -1.
         11   -1    0    0    0    0 -0.00000000000E+00 -0.00000000000E+00 -0.45593999997E+02  0.45594000000E+02  0.51100000000E-03 0.  1.
    9900012    2    1    2    0    0 -0.16431772092E+02 -0.34353995200E+02 -0.20818813862E+02  0.47787272692E+02  0.20000007510E+02 0.  0.
        -12    1    1    2    0    0  0.16431772092E+02  0.34353995200E+02  0.20818813862E+02  0.43400727308E+02  0.00000000000E+00 0.  1.
         11    1    3    3    0    0 -0.15146816716E+01 -0.31428349056E+00 -0.45605662852E+01  0.48157865174E+01  0.51100000000E-03 0. -1.
        -11    1    3    3    0    0 -0.35950375775E+01  0.17531527977E+00 -0.48711594737E+00  0.36321223600E+01  0.51100000000E-03 0.  1.
         12    1    3    3    0    0 -0.11322052843E+02 -0.34215026989E+02 -0.15771131629E+02  0.39339363814E+02  0.00000000000E+00 0. -1.
</event>
<event>
 7    1  0.2294216E-010  0.4778726E+02  0.7816164E-02  0.1312668E+00
        -11   -1    0    0    0    0  0.00000000000E+00  0.00000000000E+00  0.45593999997E+02  0.45594000000E+02  0.51100000000E-03 0.  1.
         11   -1    0    0    0    0 -0.00000000000E+00 -0.00000000000E+00 -0.45593999997E+02  0.45594000000E+02  0.51100000000E-03 0. -1.
    9900012    2    1    2    0    0  0.10596901345E+02 -0.16621081882E+02 -0.38666124535E+02  0.47787264204E+02  0.19999968814E+02 0.  0.
        -12    1    1    2    0    0 -0.10596901345E+02  0.16621081882E+02  0.38666124535E+02  0.43400735796E+02  0.00000000000E+00 0.  1.
         11    1    3    3    0    0  0.63269085177E+01 -0.84537083930E+01 -0.11863673270E+02  0.15882118898E+02  0.51100000000E-03 0. -1.
        -11    1    3    3    0    0  0.80001891463E+01  0.20583650961E+00 -0.10496834480E+02  0.13199580652E+02  0.51100000000E-03 0.  1.
        -12    1    3    3    0    0 -0.37301963189E+01 -0.83732099991E+01 -0.16305616785E+02  0.18705564654E+02  0.00000000000E+00 0.  1.
</event>
<event>
 7    1  0.2294216E-010  0.4778727E+02  0.7816164E-02  0.1312668E+00
        -11   -1    0    0    0    0  0.00000000000E+00  0.00000000000E+00  0.45593999997E+02  0.45594000000E+02  0.51100000000E-03 0.  1.
         11   -1    0    0    0    0 -0.00000000000E+00 -0.00000000000E+00 -0.45593999997E+02  0.45594000000E+02  0.51100000000E-03 0. -1.
    9900012    2    1    2    0    0  0.25608975852E+02 -0.30414391720E+02 -0.17400243590E+02  0.47787270226E+02  0.19999996271E+02 0.  0.
        -12    1    1    2    0    0 -0.25608975852E+02  0.30414391720E+02  0.17400243590E+02  0.43400729774E+02  0.00000000000E+00 0.  1.
         11    1    3    3    0    0  0.17928961675E+02 -0.16402121126E+02 -0.72332980522E+01  0.25353458248E+02  0.51100000000E-03 0. -1.
        -11    1    3    3    0    0  0.78041182786E+01 -0.21698508943E+01 -0.49475669405E+01  0.94916244080E+01  0.51100000000E-03 0.  1.
        -12    1    3    3    0    0 -0.12410410097E+00 -0.11842419700E+02 -0.52193785973E+01  0.12942187571E+02  0.00000000000E+00 0.  1.
</event>
<event>
 7    1  0.2294216E-010  0.4778727E+02  0.7816164E-02  0.1312668E+00
        -11   -1    0    0    0    0  0.00000000000E+00  0.00000000000E+00  0.45593999997E+02  0.45594000000E+02  0.51100000000E-03 0.  1.
         11   -1    0    0    0    0 -0.00000000000E+00 -0.00000000000E+00 -0.45593999997E+02  0.45594000000E+02  0.51100000000E-03 0. -1.
    9900012    2    1    2    0    0  0.25809879704E+02  0.89406495990E+01 -0.33727405747E+02  0.47787274154E+02  0.20000014177E+02 0.  0.
        -12    1    1    2    0    0 -0.25809879704E+02 -0.89406495990E+01  0.33727405747E+02  0.43400725846E+02  0.00000000000E+00 0.  1.
         11    1    3    3    0    0  0.37893047900E+01 -0.22538652461E+01 -0.90053335853E+01  0.10026702977E+02  0.51100000000E-03 0. -1.
        -11    1    3    3    0    0  0.16395959773E+02  0.46070561187E+00 -0.14947058301E+02  0.22191311333E+02  0.51100000000E-03 0.  1.
        -12    1    3    3    0    0  0.56246151407E+01  0.10733809233E+02 -0.97750138604E+01  0.15569259845E+02  0.00000000000E+00 0.  1.
</event>
<event>
 7    1  0.2294216E-010  0.4778727E+02  0.7816164E-02  0.1312668E+00
        -11   -1    0    0    0    0  0.00000000000E+00  0.00000000000E+00  0.45593999997E+02  0.45594000000E+02  0.51100000000E-03 0.  1.
         11   -1    0    0    0    0 -0.00000000000E+00 -0.00000000000E+00 -0.45593999997E+02  0.45594000000E+02  0.51100000000E-03 0. -1.
    9900012    2    1    2    0    0  0.24750079218E+02  0.24153415246E+02 -0.26223446708E+02  0.47787273663E+02  0.20000011939E+02 0.  0.
        -12    1    1    2    0    0 -0.24750079218E+02 -0.24153415246E+02  0.26223446708E+02  0.43400726337E+02  0.00000000000E+00 0.  1.
         11    1    3    3    0    0 -0.63710043054E+00  0.42360055843E+01 -0.61022180834E+01  0.74556492721E+01  0.51100000000E-03 0. -1.
        -11    1    3    3    0    0  0.73848171053E+01  0.11732751031E+02 -0.13823186781E+02  0.19577371210E+02  0.51100000000E-03 0.  1.
        -12    1    3    3    0    0  0.18002362544E+02  0.81846586309E+01 -0.62980418430E+01  0.20754253181E+02  0.00000000000E+00 0.  1.
</event>
<event>
 7    1  0.2294216E-010  0.4778727E+02  0.7816164E-02  0.1312668E+00
        -11   -1    0    0    0    0  0.00000000000E+00  0.00000000000E+00  0.45593999997E+02  0.45594000000E+02  0.51100000000E-03 0.  1.
         11   -1    0    0    0    0 -0.00000000000E+00 -0.00000000000E+00 -0.45593999997E+02  0.45594000000E+02  0.51100000000E-03 0. -1.
    9900012    2    1    2    0    0 -0.31495313262E+02  0.25634254381E+02 -0.15315140469E+02  0.47787270942E+02  0.19999999534E+02 0.  0.
        -12    1    1    2    0    0  0.31495313262E+02 -0.25634254381E+02  0.15315140469E+02  0.43400729058E+02  0.00000000000E+00 0.  1.
         11    1    3    3    0    0 -0.74765775729E+01  0.91812705201E+01 -0.22815893092E+01  0.12058216726E+02  0.51100000000E-03 0. -1.
        -11    1    3    3    0    0 -0.23704934298E+01  0.46910730987E+01  0.32660889368E+01  0.61881130502E+01  0.51100000000E-03 0.  1.
         12    1    3    3    0    0 -0.21648242260E+02  0.11761910762E+02 -0.16299640097E+02  0.29540941166E+02  0.00000000000E+00 0. -1.
</event>
<event>
 7    1  0.2294216E-010  0.4778727E+02  0.7816164E-02  0.1312668E+00
        -11   -1    0    0    0    0  0.00000000000E+00  0.00000000000E+00  0.45593999997E+02  0.45594000000E+02  0.51100000000E-03 0. -1.
         11   -1    0    0    0    0 -0.00000000000E+00 -0.00000000000E+00 -0.45593999997E+02  0.45594000000E+02  0.51100000000E-03 0.  1.
    9900012    2    1    2    0    0  0.16270718316E+02  0.83557993220E+01  0.39358198344E+02  0.47787269203E+02  0.19999991604E+02 0.  0.
        -12    1    1    2    0    0 -0.16270718316E+02 -0.83557993220E+01 -0.39358198344E+02  0.43400730797E+02  0.00000000000E+00 0.  1.
         11    1    3    3    0    0 -0.29606337441E+01  0.21731703680E+01  0.15039250680E+02  0.15481184803E+02  0.51100000000E-03 0. -1.
        -11    1    3    3    0    0  0.49370473551E+01  0.44241345373E+01  0.55338698208E+01  0.86354570490E+01  0.51100000000E-03 0.  1.
         12    1    3    3    0    0  0.14294304705E+02  0.17584944167E+01  0.18785077843E+02  0.23670627351E+02  0.00000000000E+00 0. -1.
</event>
<event>
 7    1  0.2294216E-010  0.4778727E+02  0.7816164E-02  0.1312668E+00
        -11   -1    0    0    0    0  0.00000000000E+00  0.00000000000E+00  0.45593999997E+02  0.45594000000E+02  0.51100000000E-03 0. -1.
         11   -1    0    0    0    0 -0.00000000000E+00 -0.00000000000E+00 -0.45593999997E+02  0.45594000000E+02  0.51100000000E-03 0.  1.
    9900012    2    1    2    0    0 -0.15550222688E+02 -0.23376616611E+02  0.33096042204E+02  0.47787266834E+02  0.19999980801E+02 0.  0.
        -12    1    1    2    0    0  0.15550222688E+02  0.23376616611E+02 -0.33096042204E+02  0.43400733166E+02  0.00000000000E+00 0.  1.
         11    1    3    3    0    0  0.12460718025E+00 -0.41821797460E+01  0.14349618426E+01  0.44232646460E+01  0.51100000000E-03 0. -1.
        -11    1    3    3    0    0 -0.18013156868E+02 -0.17984899765E+02  0.22981746944E+02  0.34294185116E+02  0.51100000000E-03 0.  1.
         12    1    3    3    0    0  0.23383269995E+01 -0.12095371002E+01  0.86793334172E+01  0.90698170721E+01  0.00000000000E+00 0. -1.
</event>
<event>
 7    1  0.2294216E-010  0.4778727E+02  0.7816164E-02  0.1312668E+00
        -11   -1    0    0    0    0  0.00000000000E+00  0.00000000000E+00  0.45593999997E+02  0.45594000000E+02  0.51100000000E-03 0.  1.
         11   -1    0    0    0    0 -0.00000000000E+00 -0.00000000000E+00 -0.45593999997E+02  0.45594000000E+02  0.51100000000E-03 0. -1.
    9900012    2    1    2    0    0  0.39306147555E+02 -0.61517064696E+00 -0.18392156989E+02  0.47787272942E+02  0.20000008650E+02 0.  0.
        -12    1    1    2    0    0 -0.39306147555E+02  0.61517064696E+00  0.18392156989E+02  0.43400727058E+02  0.00000000000E+00 0.  1.
         11    1    3    3    0    0  0.40895335436E+01 -0.41663518783E+01 -0.28365431925E-01  0.58381142021E+01  0.51100000000E-03 0. -1.
        -11    1    3    3    0    0  0.10631581889E+01  0.28659823673E+01 -0.36332576428E+01  0.47481282233E+01  0.51100000000E-03 0.  1.
        -12    1    3    3    0    0  0.34153455822E+02  0.68519886401E+00 -0.14730533914E+02  0.37201030516E+02  0.00000000000E+00 0.  1.
</event>
<event>
 7    1  0.2294216E-010  0.4778727E+02  0.7816164E-02  0.1312668E+00
        -11   -1    0    0    0    0  0.00000000000E+00  0.00000000000E+00  0.45593999997E+02  0.45594000000E+02  0.51100000000E-03 0.  1.
         11   -1    0    0    0    0 -0.00000000000E+00 -0.00000000000E+00 -0.45593999997E+02  0.45594000000E+02  0.51100000000E-03 0. -1.
    9900012    2    1    2    0    0  0.11524384477E+02  0.41836024679E+02 -0.74769454583E+00  0.47787269066E+02  0.19999990978E+02 0.  0.
        -12    1    1    2    0    0 -0.11524384477E+02 -0.41836024679E+02  0.74769454583E+00  0.43400730934E+02  0.00000000000E+00 0.  1.
         11    1    3    3    0    0 -0.14495378518E+00  0.28463056925E+00 -0.44005159067E-01  0.32243274638E+00  0.51100000000E-03 0. -1.
        -11    1    3    3    0    0  0.19872615461E+01  0.10506800547E+02 -0.89182594987E+01  0.13923987178E+02  0.51100000000E-03 0.  1.
         12    1    3    3    0    0  0.96820767161E+01  0.31044593562E+02  0.82145701119E+01  0.33540849141E+02  0.00000000000E+00 0. -1.
</event>
<event>
 7    1  0.2294216E-010  0.4778725E+02  0.7816164E-02  0.1312668E+00
        -11   -1    0    0    0    0  0.00000000000E+00  0.00000000000E+00  0.45593999997E+02  0.45594000000E+02  0.51100000000E-03 0. -1.
         11   -1    0    0    0    0 -0.00000000000E+00 -0.00000000000E+00 -0.45593999997E+02  0.45594000000E+02  0.51100000000E-03 0.  1.
    9900012    2    1    2    0    0  0.45032045610E+01 -0.10966978086E+02  0.41750105056E+02  0.47787254248E+02  0.19999923417E+02 0.  0.
        -12    1    1    2    0    0 -0.45032045610E+01  0.10966978086E+02 -0.41750105056E+02  0.43400745752E+02  0.00000000000E+00 0.  1.
         11    1    3    3    0    0  0.36719183393E+01 -0.36236320454E+01  0.13854108265E+02  0.14783437001E+02  0.51100000000E-03 0. -1.
        -11    1    3    3    0    0  0.79645090695E+01 -0.38002998278E+01  0.19643767876E+02  0.21534932090E+02  0.51100000000E-03 0.  1.
        -12    1    3    3    0    0 -0.71332228478E+01 -0.35430462125E+01  0.82522289161E+01  0.11468885157E+02  0.00000000000E+00 0.  1.
</event>
<event>
 7    1  0.2294216E-010  0.4778727E+02  0.7816164E-02  0.1312668E+00
        -11   -1    0    0    0    0  0.00000000000E+00  0.00000000000E+00  0.45593999997E+02  0.45594000000E+02  0.51100000000E-03 0. -1.
         11   -1    0    0    0    0 -0.00000000000E+00 -0.00000000000E+00 -0.45593999997E+02  0.45594000000E+02  0.51100000000E-03 0.  1.
    9900012    2    1    2    0    0  0.42030822915E+01 -0.41136864137E+02  0.13180129076E+02  0.47787270810E+02  0.19999998931E+02 0.  0.
        -12    1    1    2    0    0 -0.42030822915E+01  0.41136864137E+02 -0.13180129076E+02  0.43400729190E+02  0.00000000000E+00 0.  1.
         11    1    3    3    0    0 -0.23311391251E+01 -0.85961633477E+01  0.53675099019E+01  0.10398961329E+02  0.51100000000E-03 0.  1.
        -11    1    3    3    0    0 -0.40374481082E+01 -0.30779461154E+01 -0.18688041106E+00  0.50803212561E+01  0.51100000000E-03 0. -1.
        -12    1    3    3    0    0  0.10571669525E+02 -0.29462754674E+02  0.79994995849E+01  0.32307988225E+02  0.00000000000E+00 0.  1.
</event>
<event>
 7    1  0.2294216E-010  0.4778727E+02  0.7816164E-02  0.1312668E+00
        -11   -1    0    0    0    0  0.00000000000E+00  0.00000000000E+00  0.45593999997E+02  0.45594000000E+02  0.51100000000E-03 0. -1.
         11   -1    0    0    0    0 -0.00000000000E+00 -0.00000000000E+00 -0.45593999997E+02  0.45594000000E+02  0.51100000000E-03 0.  1.
    9900012    2    1    2    0    0  0.25337113928E+02 -0.18792147037E+02  0.29807867724E+02  0.47787272924E+02  0.20000008571E+02 0.  0.
        -12    1    1    2    0    0 -0.25337113928E+02  0.18792147037E+02 -0.29807867724E+02  0.43400727076E+02  0.00000000000E+00 0.  1.
         11    1    3    3    0    0  0.22245282372E+02 -0.12617490078E+02  0.18352318148E+02  0.31477948239E+02  0.51100000000E-03 0. -1.
        -11    1    3    3    0    0  0.33260270010E+01 -0.20806206675E+01 -0.22521779229E+00  0.39296515480E+01  0.51100000000E-03 0.  1.
        -12    1    3    3    0    0 -0.23419544537E+00 -0.40940362915E+01  0.11680767369E+02  0.12379673137E+02  0.00000000000E+00 0.  1.
</event>
<event>
 7    1  0.2294216E-010  0.4778727E+02  0.7816164E-02  0.1312668E+00
        -11   -1    0    0    0    0  0.00000000000E+00  0.00000000000E+00  0.45593999997E+02  0.45594000000E+02  0.51100000000E-03 0.  1.
         11   -1    0    0    0    0 -0.00000000000E+00 -0.00000000000E+00 -0.45593999997E+02  0.45594000000E+02  0.51100000000E-03 0. -1.
    9900012    2    1    2    0    0  0.13116451639E+02 -0.15527553760E+02 -0.38346800071E+02  0.47787270685E+02  0.19999998361E+02 0.  0.
        -12    1    1    2    0    0 -0.13116451639E+02  0.15527553760E+02  0.38346800071E+02  0.43400729315E+02  0.00000000000E+00 0.  1.
         11    1    3    3    0    0  0.21210445596E+01 -0.47670676915E+01 -0.14132670075E+02  0.15065063163E+02  0.51100000000E-03 0. -1.
        -11    1    3    3    0    0 -0.33054438321E+01 -0.47130485565E+00 -0.82328074173E+00  0.34388775255E+01  0.51100000000E-03 0.  1.
        -12    1    3    3    0    0  0.14300850911E+02 -0.10289181213E+02 -0.23390849255E+02  0.29283329996E+02  0.00000000000E+00 0.  1.
</event>
<event>
 7    1  0.2294216E-010  0.4778727E+02  0.7816164E-02  0.1312668E+00
        -11   -1    0    0    0    0  0.00000000000E+00  0.00000000000E+00  0.45593999997E+02  0.45594000000E+02  0.51100000000E-03 0.  1.
         11   -1    0    0    0    0 -0.00000000000E+00 -0.00000000000E+00 -0.45593999997E+02  0.45594000000E+02  0.51100000000E-03 0. -1.
    9900012    2    1    2    0    0 -0.41204222936E+02  0.23524827327E+01 -0.13427627065E+02  0.47787270383E+02  0.19999996983E+02 0.  0.
        -12    1    1    2    0    0  0.41204222936E+02 -0.23524827327E+01  0.13427627065E+02  0.43400729617E+02  0.00000000000E+00 0.  1.
         11    1    3    3    0    0 -0.16377629673E+02 -0.43303247677E+01  0.18691747250E+01  0.17043247365E+02  0.51100000000E-03 0. -1.
        -11    1    3    3    0    0 -0.90281794801E+01 -0.86660269204E+00 -0.64275266489E+01  0.11116299926E+02  0.51100000000E-03 0.  1.
         12    1    3    3    0    0 -0.15798413782E+02  0.75494101924E+01 -0.88692751407E+01  0.19627723093E+02  0.00000000000E+00 0. -1.
</event>
<event>
 7    1  0.2294216E-010  0.4778727E+02  0.7816164E-02  0.1312668E+00
        -11   -1    0    0    0    0  0.00000000000E+00  0.00000000000E+00  0.45593999997E+02  0.45594000000E+02  0.51100000000E-03 0.  1.
         11   -1    0    0    0    0 -0.00000000000E+00 -0.00000000000E+00 -0.45593999997E+02  0.45594000000E+02  0.51100000000E-03 0. -1.
    9900012    2    1    2    0    0 -0.29818892009E+01  0.11047359002E+02 -0.41865111819E+02  0.47787269686E+02  0.19999993808E+02 0.  0.
        -12    1    1    2    0    0  0.29818892009E+01 -0.11047359002E+02  0.41865111819E+02  0.43400730314E+02  0.00000000000E+00 0.  1.
         11    1    3    3    0    0 -0.26287527744E+01  0.88673749050E+01 -0.13027971881E+02  0.15977131483E+02  0.51100000000E-03 0. -1.
        -11    1    3    3    0    0 -0.66467467589E+01  0.10767535266E+01 -0.11411051330E+02  0.13249555968E+02  0.51100000000E-03 0.  1.
         12    1    3    3    0    0  0.62936103324E+01  0.11032305708E+01 -0.17426088608E+02  0.18560582235E+02  0.00000000000E+00 0. -1.
</event>
<event>
 7    1  0.2294216E-010  0.4778727E+02  0.7816164E-02  0.1312668E+00
        -11   -1    0    0    0    0  0.00000000000E+00  0.00000000000E+00  0.45593999997E+02  0.45594000000E+02  0.51100000000E-03 0.  1.
         11   -1    0    0    0    0 -0.00000000000E+00 -0.00000000000E+00 -0.45593999997E+02  0.45594000000E+02  0.51100000000E-03 0. -1.
    9900012    2    1    2    0    0  0.11383391730E+02 -0.41358083940E+02 -0.65992829518E+01  0.47787271320E+02  0.20000001257E+02 0.  0.
        -12    1    1    2    0    0 -0.11383391730E+02  0.41358083940E+02  0.65992829518E+01  0.43400728680E+02  0.00000000000E+00 0.  1.
         11    1    3    3    0    0  0.13412003961E+02 -0.26438492797E+02 -0.45548473415E+01  0.29993705777E+02  0.51100000000E-03 0. -1.
        -11    1    3    3    0    0  0.74538339560E+00 -0.14738207615E+02 -0.89120017520E+00  0.14783930401E+02  0.51100000000E-03 0.  1.
        -12    1    3    3    0    0 -0.27739956264E+01 -0.18138352782E+00 -0.11532354352E+01  0.30096351421E+01  0.00000000000E+00 0.  1.
</event>
<event>
 7    1  0.2294216E-010  0.4778727E+02  0.7816164E-02  0.1312668E+00
        -11   -1    0    0    0    0  0.00000000000E+00  0.00000000000E+00  0.45593999997E+02  0.45594000000E+02  0.51100000000E-03 0.  1.
         11   -1    0    0    0    0 -0.00000000000E+00 -0.00000000000E+00 -0.45593999997E+02  0.45594000000E+02  0.51100000000E-03 0. -1.
    9900012    2    1    2    0    0 -0.60756408904E+01 -0.21596835409E+02 -0.37152204831E+02  0.47787273788E+02  0.20000012507E+02 0.  0.
        -12    1    1    2    0    0  0.60756408904E+01  0.21596835409E+02  0.37152204831E+02  0.43400726212E+02  0.00000000000E+00 0.  1.
         11    1    3    3    0    0 -0.44306307151E+01 -0.21274989470E+02 -0.36266865867E+02  0.42279323854E+02  0.51100000000E-03 0. -1.
        -11    1    3    3    0    0 -0.25499517129E+01  0.11820953523E+01 -0.19812143368E+01  0.34387226799E+01  0.51100000000E-03 0.  1.
        -12    1    3    3    0    0  0.90494153750E+00 -0.15039412915E+01  0.10958753725E+01  0.20692272535E+01  0.00000000000E+00 0.  1.
</event>
<event>
 7    1  0.2294216E-010  0.4778727E+02  0.7816164E-02  0.1312668E+00
        -11   -1    0    0    0    0  0.00000000000E+00  0.00000000000E+00  0.45593999997E+02  0.45594000000E+02  0.51100000000E-03 0. -1.
         11   -1    0    0    0    0 -0.00000000000E+00 -0.00000000000E+00 -0.45593999997E+02  0.45594000000E+02  0.51100000000E-03 0.  1.
    9900012    2    1    2    0    0 -0.29536631236E+02  0.30959640127E+02  0.72602514387E+01  0.47787272442E+02  0.20000006373E+02 0.  0.
        -12    1    1    2    0    0  0.29536631236E+02 -0.30959640127E+02 -0.72602514387E+01  0.43400727558E+02  0.00000000000E+00 0.  1.
         11    1    3    3    0    0 -0.14877832358E+02  0.83896671659E+01  0.16488495429E+01  0.17159694517E+02  0.51100000000E-03 0. -1.
        -11    1    3    3    0    0 -0.10535630560E+02  0.80670187261E+01 -0.25055854609E+01  0.13503860973E+02  0.51100000000E-03 0.  1.
         12    1    3    3    0    0 -0.41231683188E+01  0.14502954235E+02  0.81169873567E+01  0.17123716953E+02  0.00000000000E+00 0. -1.
</event>
<event>
 7    1  0.2294216E-010  0.4778729E+02  0.7816164E-02  0.1312668E+00
        -11   -1    0    0    0    0  0.00000000000E+00  0.00000000000E+00  0.45593999997E+02  0.45594000000E+02  0.51100000000E-03 0.  1.
         11   -1    0    0    0    0 -0.00000000000E+00 -0.00000000000E+00 -0.45593999997E+02  0.45594000000E+02  0.51100000000E-03 0. -1.
    9900012    2    1    2    0    0  0.30019931412E+02 -0.11347502999E+02 -0.29217450633E+02  0.47787291161E+02  0.20000091717E+02 0.  0.
        -12    1    1    2    0    0 -0.30019931412E+02  0.11347502999E+02  0.29217450633E+02  0.43400708839E+02  0.00000000000E+00 0.  1.
         11    1    3    3    0    0  0.80700947235E+01  0.76597795198E+00 -0.53247933567E+01  0.96987924827E+01  0.51100000000E-03 0. -1.
        -11    1    3    3    0    0  0.13466050124E+02 -0.16068920880E+01 -0.41748376255E+01  0.14189639798E+02  0.51100000000E-03 0.  1.
        -12    1    3    3    0    0  0.84837865642E+01 -0.10506588863E+02 -0.19717819651E+02  0.23898858880E+02  0.00000000000E+00 0.  1.
</event>
<event>
 7    1  0.2294216E-010  0.4778727E+02  0.7816164E-02  0.1312668E+00
        -11   -1    0    0    0    0  0.00000000000E+00  0.00000000000E+00  0.45593999997E+02  0.45594000000E+02  0.51100000000E-03 0.  1.
         11   -1    0    0    0    0 -0.00000000000E+00 -0.00000000000E+00 -0.45593999997E+02  0.45594000000E+02  0.51100000000E-03 0. -1.
    9900012    2    1    2    0    0 -0.53359129560E+00 -0.31885021446E+01 -0.43280159648E+02  0.47787268615E+02  0.19999988923E+02 0.  0.
        -12    1    1    2    0    0  0.53359129560E+00  0.31885021446E+01  0.43280159648E+02  0.43400731385E+02  0.00000000000E+00 0.  1.
         11    1    3    3    0    0  0.12976899013E+01 -0.25523209655E+01  0.79946763945E+00  0.29727916440E+01  0.51100000000E-03 0. -1.
        -11    1    3    3    0    0 -0.18738237328E+01 -0.35331860987E+01 -0.13029612206E+02  0.13629578639E+02  0.51100000000E-03 0.  1.
         12    1    3    3    0    0  0.42542535997E-01  0.28970049196E+01 -0.31050015082E+02  0.31184898332E+02  0.00000000000E+00 0. -1.
</event>
<event>
 7    1  0.2294216E-010  0.4778727E+02  0.7816164E-02  0.1312668E+00
        -11   -1    0    0    0    0  0.00000000000E+00  0.00000000000E+00  0.45593999997E+02  0.45594000000E+02  0.51100000000E-03 0.  1.
         11   -1    0    0    0    0 -0.00000000000E+00 -0.00000000000E+00 -0.45593999997E+02  0.45594000000E+02  0.51100000000E-03 0. -1.
    9900012    2    1    2    0    0  0.12820959673E+02 -0.11119681342E+02 -0.39944949362E+02  0.47787270748E+02  0.19999998650E+02 0.  0.
        -12    1    1    2    0    0 -0.12820959673E+02  0.11119681342E+02  0.39944949362E+02  0.43400729252E+02  0.00000000000E+00 0.  1.
         11    1    3    3    0    0  0.34592955587E+01 -0.87891163952E+01 -0.13680536368E+02  0.16624450919E+02  0.51100000000E-03 0. -1.
        -11    1    3    3    0    0  0.49909819924E+01 -0.29968319153E+01 -0.15066483844E+01  0.60133927522E+01  0.51100000000E-03 0.  1.
         12    1    3    3    0    0  0.43706821216E+01  0.66626696882E+00 -0.24757764609E+02  0.25149427078E+02  0.00000000000E+00 0. -1.
</event>
<event>
 7    1  0.2294216E-010  0.4778727E+02  0.7816164E-02  0.1312668E+00
        -11   -1    0    0    0    0  0.00000000000E+00  0.00000000000E+00  0.45593999997E+02  0.45594000000E+02  0.51100000000E-03 0.  1.
         11   -1    0    0    0    0 -0.00000000000E+00 -0.00000000000E+00 -0.45593999997E+02  0.45594000000E+02  0.51100000000E-03 0. -1.
    9900012    2    1    2    0    0 -0.15341701729E+02  0.31879450535E+02 -0.25138739923E+02  0.47787269323E+02  0.19999992153E+02 0.  0.
        -12    1    1    2    0    0  0.15341701729E+02 -0.31879450535E+02  0.25138739923E+02  0.43400730677E+02  0.00000000000E+00 0.  1.
         11    1    3    3    0    0 -0.75601922447E+01  0.17736566988E+02 -0.78865280556E+01  0.20831217927E+02  0.51100000000E-03 0. -1.
        -11    1    3    3    0    0 -0.70818269112E+01  0.16260036440E+02 -0.17229097830E+02  0.24726157601E+02  0.51100000000E-03 0.  1.
        -12    1    3    3    0    0 -0.69968257280E+00 -0.21171528933E+01 -0.23114037651E-01  0.22298937946E+01  0.00000000000E+00 0.  1.
</event>
<event>
 7    1  0.2294216E-010  0.4778727E+02  0.7816164E-02  0.1312668E+00
        -11   -1    0    0    0    0  0.00000000000E+00  0.00000000000E+00  0.45593999997E+02  0.45594000000E+02  0.51100000000E-03 0. -1.
         11   -1    0    0    0    0 -0.00000000000E+00 -0.00000000000E+00 -0.45593999997E+02  0.45594000000E+02  0.51100000000E-03 0.  1.
    9900012    2    1    2    0    0 -0.42280536310E+02 -0.21607199447E+01 -0.95556702766E+01  0.47787270792E+02  0.19999998848E+02 0.  0.
        -12    1    1    2    0    0  0.42280536310E+02  0.21607199447E+01  0.95556702766E+01  0.43400729208E+02  0.00000000000E+00 0.  1.
         11    1    3    3    0    0 -0.31485697193E+02 -0.49119939882E+01 -0.42334538652E+01  0.32146523056E+02  0.51100000000E-03 0. -1.
        -11    1    3    3    0    0 -0.99269976065E+01  0.27637419143E+01 -0.57227390054E-01  0.10304699223E+02  0.51100000000E-03 0.  1.
         12    1    3    3    0    0 -0.86784151052E+00 -0.12467870853E-01 -0.52649890213E+01  0.53360485127E+01  0.00000000000E+00 0. -1.
</event>
<event>
 7    1  0.2294216E-010  0.4778727E+02  0.7816164E-02  0.1312668E+00
        -11   -1    0    0    0    0  0.00000000000E+00  0.00000000000E+00  0.45593999997E+02  0.45594000000E+02  0.51100000000E-03 0.  1.
         11   -1    0    0    0    0 -0.00000000000E+00 -0.00000000000E+00 -0.45593999997E+02  0.45594000000E+02  0.51100000000E-03 0. -1.
    9900012    2    1    2    0    0  0.15908916501E+02 -0.20510153181E+00 -0.40379300435E+02  0.47787267351E+02  0.19999983159E+02 0.  0.
        -12    1    1    2    0    0 -0.15908916501E+02  0.20510153181E+00  0.40379300435E+02  0.43400732649E+02  0.00000000000E+00 0.  1.
         11    1    3    3    0    0  0.10724067819E+02  0.31129721223E+01 -0.32151487405E+02  0.34035486902E+02  0.51100000000E-03 0. -1.
        -11    1    3    3    0    0  0.41094289280E+01 -0.19872791134E+01 -0.10179598913E+02  0.11156205389E+02  0.51100000000E-03 0.  1.
        -12    1    3    3    0    0  0.10754197545E+01 -0.13307945407E+01  0.19517858833E+01  0.25955750600E+01  0.00000000000E+00 0.  1.
</event>
<event>
 7    1  0.2294216E-010  0.4778727E+02  0.7816164E-02  0.1312668E+00
        -11   -1    0    0    0    0  0.00000000000E+00  0.00000000000E+00  0.45593999997E+02  0.45594000000E+02  0.51100000000E-03 0.  1.
         11   -1    0    0    0    0 -0.00000000000E+00 -0.00000000000E+00 -0.45593999997E+02  0.45594000000E+02  0.51100000000E-03 0. -1.
    9900012    2    1    2    0    0 -0.10470115920E+02 -0.29889351349E+02 -0.29675352385E+02  0.47787272004E+02  0.20000004374E+02 0.  0.
        -12    1    1    2    0    0  0.10470115920E+02  0.29889351349E+02  0.29675352385E+02  0.43400727996E+02  0.00000000000E+00 0.  1.
         11    1    3    3    0    0 -0.51536871829E+01 -0.75077214413E+01 -0.29957311896E+01  0.95864893700E+01  0.51100000000E-03 0. -1.
        -11    1    3    3    0    0  0.19156903738E+01  0.12349360579E+01 -0.77252432150E+00  0.24066014967E+01  0.51100000000E-03 0.  1.
         12    1    3    3    0    0 -0.72321191111E+01 -0.23616565965E+02 -0.25907096874E+02  0.35794181137E+02  0.00000000000E+00 0. -1.
</event>
<event>
 7    1  0.2294216E-010  0.4778727E+02  0.7816164E-02  0.1312668E+00
        -11   -1    0    0    0    0  0.00000000000E+00  0.00000000000E+00  0.45593999997E+02  0.45594000000E+02  0.51100000000E-03 0. -1.
         11   -1    0    0    0    0 -0.00000000000E+00 -0.00000000000E+00 -0.45593999997E+02  0.45594000000E+02  0.51100000000E-03 0.  1.
    9900012    2    1    2    0    0  0.25884378218E+02 -0.34631940629E+02  0.37750431981E+01  0.47787270760E+02  0.19999998701E+02 0.  0.
        -12    1    1    2    0    0 -0.25884378218E+02  0.34631940629E+02 -0.37750431981E+01  0.43400729240E+02  0.00000000000E+00 0.  1.
         11    1    3    3    0    0  0.38684377257E+01 -0.88026092615E+01  0.48125279281E+01  0.10752263277E+02  0.51100000000E-03 0. -1.
        -11    1    3    3    0    0  0.87520737095E+01 -0.16064097492E+01  0.23711424319E+01  0.92087818517E+01  0.51100000000E-03 0.  1.
        -12    1    3    3    0    0  0.13263866783E+02 -0.24222921618E+02 -0.34086271620E+01  0.27826225631E+02  0.00000000000E+00 0.  1.
</event>
<event>
 7    1  0.2294216E-010  0.4778726E+02  0.7816164E-02  0.1312668E+00
        -11   -1    0    0    0    0  0.00000000000E+00  0.00000000000E+00  0.45593999997E+02  0.45594000000E+02  0.51100000000E-03 0.  1.
         11   -1    0    0    0    0 -0.00000000000E+00 -0.00000000000E+00 -0.45593999997E+02  0.45594000000E+02  0.51100000000E-03 0. -1.
    9900012    2    1    2    0    0 -0.25558389161E+02 -0.15114918856E+02 -0.31653307649E+02  0.47787263674E+02  0.19999966396E+02 0.  0.
        -12    1    1    2    0    0  0.25558389161E+02  0.15114918856E+02  0.31653307649E+02  0.43400736326E+02  0.00000000000E+00 0.  1.
         11    1    3    3    0    0 -0.72476459459E+01 -0.81996079011E+01 -0.19091962580E+02  0.22006021379E+02  0.51100000000E-03 0. -1.
        -11    1    3    3    0    0 -0.39778360758E+01  0.12837157833E+01 -0.73688100974E+01  0.84717453085E+01  0.51100000000E-03 0.  1.
        -12    1    3    3    0    0 -0.14332907139E+02 -0.81990267378E+01 -0.51925349710E+01  0.17309496987E+02  0.00000000000E+00 0.  1.
</event>
<event>
 7    1  0.2294216E-010  0.4778727E+02  0.7816164E-02  0.1312668E+00
        -11   -1    0    0    0    0  0.00000000000E+00  0.00000000000E+00  0.45593999997E+02  0.45594000000E+02  0.51100000000E-03 0.  1.
         11   -1    0    0    0    0 -0.00000000000E+00 -0.00000000000E+00 -0.45593999997E+02  0.45594000000E+02  0.51100000000E-03 0. -1.
    9900012    2    1    2    0    0 -0.51154836308E+01  0.10290582344E+02 -0.41851634244E+02  0.47787267902E+02  0.19999985671E+02 0.  0.
        -12    1    1    2    0    0  0.51154836308E+01 -0.10290582344E+02  0.41851634244E+02  0.43400732098E+02  0.00000000000E+00 0.  1.
         11    1    3    3    0    0 -0.22186038967E+01  0.55338588504E+00 -0.61183037708E+01  0.65316215813E+01  0.51100000000E-03 0. -1.
        -11    1    3    3    0    0  0.11508188751E+00 -0.11276645686E+01  0.17657629527E+01  0.20982826994E+01  0.51100000000E-03 0.  1.
        -12    1    3    3    0    0 -0.30119616216E+01  0.10864861027E+02 -0.37499093426E+02  0.39157363621E+02  0.00000000000E+00 0.  1.
</event>
<event>
 7    1  0.2294216E-010  0.4778727E+02  0.7816164E-02  0.1312668E+00
        -11   -1    0    0    0    0  0.00000000000E+00  0.00000000000E+00  0.45593999997E+02  0.45594000000E+02  0.51100000000E-03 0. -1.
         11   -1    0    0    0    0 -0.00000000000E+00 -0.00000000000E+00 -0.45593999997E+02  0.45594000000E+02  0.51100000000E-03 0.  1.
    9900012    2    1    2    0    0  0.32300088018E+02  0.98999341579E+01  0.27245535579E+02  0.47787267388E+02  0.19999983327E+02 0.  0.
        -12    1    1    2    0    0 -0.32300088018E+02 -0.98999341579E+01 -0.27245535579E+02  0.43400732612E+02  0.00000000000E+00 0.  1.
         11    1    3    3    0    0  0.23049853025E+02  0.37424739760E+01  0.16703258670E+02  0.28710637165E+02  0.51100000000E-03 0. -1.
        -11    1    3    3    0    0  0.37296419207E+01 -0.23873018239E+01  0.25909773611E-02  0.44282553934E+01  0.51100000000E-03 0.  1.
        -12    1    3    3    0    0  0.55205930720E+01  0.85447620059E+01  0.10539685932E+02  0.14648374830E+02  0.00000000000E+00 0.  1.
</event>
<event>
 7    1  0.2294216E-010  0.4778727E+02  0.7816164E-02  0.1312668E+00
        -11   -1    0    0    0    0  0.00000000000E+00  0.00000000000E+00  0.45593999997E+02  0.45594000000E+02  0.51100000000E-03 0.  1.
         11   -1    0    0    0    0 -0.00000000000E+00 -0.00000000000E+00 -0.45593999997E+02  0.45594000000E+02  0.51100000000E-03 0. -1.
    9900012    2    1    2    0    0 -0.32711080035E+01 -0.26633693498E+02 -0.34111133491E+02  0.47787271838E+02  0.20000003619E+02 0.  0.
        -12    1    1    2    0    0  0.32711080035E+01  0.26633693498E+02  0.34111133491E+02  0.43400728162E+02  0.00000000000E+00 0.  1.
         11    1    3    3    0    0  0.32551497114E+01 -0.15373770993E+02 -0.25332502292E+02  0.29810811911E+02  0.51100000000E-03 0. -1.
        -11    1    3    3    0    0 -0.19131302638E+00 -0.88901285782E+01 -0.44210377312E+01  0.99305871777E+01  0.51100000000E-03 0.  1.
        -12    1    3    3    0    0 -0.63349446885E+01 -0.23697939263E+01 -0.43575934685E+01  0.80458727492E+01  0.00000000000E+00 0.  1.
</event>
<event>
 7    1  0.2294216E-010  0.4778728E+02  0.7816164E-02  0.1312668E+00
        -11   -1    0    0    0    0  0.00000000000E+00  0.00000000000E+00  0.45593999997E+02  0.45594000000E+02  0.51100000000E-03 0.  1.
         11   -1    0    0    0    0 -0.00000000000E+00 -0.00000000000E+00 -0.45593999997E+02  0.45594000000E+02  0.51100000000E-03 0. -1.
    9900012    2    1    2    0    0  0.37118365840E+02 -0.11874161602E+02 -0.19101149660E+02  0.47787277487E+02  0.20000029372E+02 0.  0.
        -12    1    1    2    0    0 -0.37118365840E+02  0.11874161602E+02  0.19101149660E+02  0.43400722513E+02  0.00000000000E+00 0.  1.
         11    1    3    3    0    0  0.10628460211E+02  0.20154241016E+01 -0.39792080549E+01  0.11526499806E+02  0.51100000000E-03 0. -1.
        -11    1    3    3    0    0  0.19281867140E+02 -0.32007263347E+01 -0.59237442677E+01  0.20423657750E+02  0.51100000000E-03 0.  1.
        -12    1    3    3    0    0  0.72080384891E+01 -0.10688859369E+02 -0.91981973369E+01  0.15837119931E+02  0.00000000000E+00 0.  1.
</event>
<event>
 7    1  0.2294216E-010  0.4778728E+02  0.7816164E-02  0.1312668E+00
        -11   -1    0    0    0    0  0.00000000000E+00  0.00000000000E+00  0.45593999997E+02  0.45594000000E+02  0.51100000000E-03 0.  1.
         11   -1    0    0    0    0 -0.00000000000E+00 -0.00000000000E+00 -0.45593999997E+02  0.45594000000E+02  0.51100000000E-03 0. -1.
    9900012    2    1    2    0    0  0.77536854227E+01  0.36595272817E+01 -0.42545397132E+02  0.47787278869E+02  0.20000035675E+02 0.  0.
        -12    1    1    2    0    0 -0.77536854227E+01 -0.36595272817E+01  0.42545397132E+02  0.43400721131E+02  0.00000000000E+00 0.  1.
         11    1    3    3    0    0  0.66115863415E+01 -0.55138642111E+01 -0.19420257610E+02  0.21242932434E+02  0.51100000000E-03 0. -1.
        -11    1    3    3    0    0  0.12927684511E+00 -0.18303176657E+01 -0.20737607320E+01  0.27689815989E+01  0.51100000000E-03 0.  1.
        -12    1    3    3    0    0  0.10128222361E+01  0.11003709159E+02 -0.21051378790E+02  0.23775364836E+02  0.00000000000E+00 0.  1.
</event>
<event>
 7    1  0.2294216E-010  0.4778727E+02  0.7816164E-02  0.1312668E+00
        -11   -1    0    0    0    0  0.00000000000E+00  0.00000000000E+00  0.45593999997E+02  0.45594000000E+02  0.51100000000E-03 0. -1.
         11   -1    0    0    0    0 -0.00000000000E+00 -0.00000000000E+00 -0.45593999997E+02  0.45594000000E+02  0.51100000000E-03 0.  1.
    9900012    2    1    2    0    0  0.74819095209E+01  0.36140183342E+02  0.22837063683E+02  0.47787270746E+02  0.19999998640E+02 0.  0.
        -12    1    1    2    0    0 -0.74819095209E+01 -0.36140183342E+02 -0.22837063683E+02  0.43400729254E+02  0.00000000000E+00 0.  1.
         11    1    3    3    0    0  0.94650550765E+01  0.22820699495E+02  0.19435697053E+02  0.31434342895E+02  0.51100000000E-03 0. -1.
        -11    1    3    3    0    0  0.22665728055E+01  0.36147836017E+01  0.38530359644E+01  0.57489041716E+01  0.51100000000E-03 0.  1.
        -12    1    3    3    0    0 -0.42497183611E+01  0.97047002461E+01 -0.45166933414E+00  0.10604023680E+02  0.00000000000E+00 0.  1.
</event>
<event>
 7    1  0.2294216E-010  0.4778727E+02  0.7816164E-02  0.1312668E+00
        -11   -1    0    0    0    0  0.00000000000E+00  0.00000000000E+00  0.45593999997E+02  0.45594000000E+02  0.51100000000E-03 0. -1.
         11   -1    0    0    0    0 -0.00000000000E+00 -0.00000000000E+00 -0.45593999997E+02  0.45594000000E+02  0.51100000000E-03 0.  1.
    9900012    2    1    2    0    0  0.26659609693E+02  0.12539261591E+02  0.31869353949E+02  0.47787267387E+02  0.19999983325E+02 0.  0.
        -12    1    1    2    0    0 -0.26659609693E+02 -0.12539261591E+02 -0.31869353949E+02  0.43400732613E+02  0.00000000000E+00 0.  1.
         11    1    3    3    0    0  0.10335786536E+02 -0.76157720631E+00  0.18149368466E+02  0.20899953568E+02  0.51100000000E-03 0. -1.
        -11    1    3    3    0    0  0.26547772814E+01 -0.12651506490E+01  0.30662347853E+01  0.42485579434E+01  0.51100000000E-03 0.  1.
        -12    1    3    3    0    0  0.13669045875E+02  0.14565989446E+02  0.10653750698E+02  0.22638755876E+02  0.00000000000E+00 0.  1.
</event>
<event>
 7    1  0.2294216E-010  0.4778727E+02  0.7816164E-02  0.1312668E+00
        -11   -1    0    0    0    0  0.00000000000E+00  0.00000000000E+00  0.45593999997E+02  0.45594000000E+02  0.51100000000E-03 0.  1.
         11   -1    0    0    0    0 -0.00000000000E+00 -0.00000000000E+00 -0.45593999997E+02  0.45594000000E+02  0.51100000000E-03 0. -1.
    9900012    2    1    2    0    0  0.11296773239E+02  0.21303325681E+02 -0.36085657718E+02  0.47787268858E+02  0.19999990031E+02 0.  0.
        -12    1    1    2    0    0 -0.11296773239E+02 -0.21303325681E+02  0.36085657718E+02  0.43400731142E+02  0.00000000000E+00 0.  1.
         11    1    3    3    0    0  0.33193398670E+00  0.44853817938E+01 -0.79782428640E+01  0.91586674503E+01  0.51100000000E-03 0. -1.
        -11    1    3    3    0    0  0.11119945614E+02  0.20206919563E+02 -0.25189749629E+02  0.34154008188E+02  0.51100000000E-03 0.  1.
         12    1    3    3    0    0 -0.15510636190E+00 -0.33889756754E+01 -0.29176652258E+01  0.44745932197E+01  0.00000000000E+00 0. -1.
</event>
<event>
 7    1  0.2294216E-010  0.4778726E+02  0.7816164E-02  0.1312668E+00
        -11   -1    0    0    0    0  0.00000000000E+00  0.00000000000E+00  0.45593999997E+02  0.45594000000E+02  0.51100000000E-03 0.  1.
         11   -1    0    0    0    0 -0.00000000000E+00 -0.00000000000E+00 -0.45593999997E+02  0.45594000000E+02  0.51100000000E-03 0. -1.
    9900012    2    1    2    0    0  0.17279943414E+02 -0.28319988355E+02 -0.27982249921E+02  0.47787256971E+02  0.19999935835E+02 0.  0.
        -12    1    1    2    0    0 -0.17279943414E+02  0.28319988355E+02  0.27982249921E+02  0.43400743029E+02  0.00000000000E+00 0.  1.
         11    1    3    3    0    0 -0.26120373177E+00 -0.13165753699E+02 -0.12306516379E+02  0.18023752203E+02  0.51100000000E-03 0. -1.
        -11    1    3    3    0    0  0.39252794733E+01 -0.76397062597E+01 -0.10062211038E+02  0.13229551085E+02  0.51100000000E-03 0.  1.
        -12    1    3    3    0    0  0.13615867672E+02 -0.75145283965E+01 -0.56135225043E+01  0.16533953683E+02  0.00000000000E+00 0.  1.
</event>
<event>
 7    1  0.2294216E-010  0.4778727E+02  0.7816164E-02  0.1312668E+00
        -11   -1    0    0    0    0  0.00000000000E+00  0.00000000000E+00  0.45593999997E+02  0.45594000000E+02  0.51100000000E-03 0.  1.
         11   -1    0    0    0    0 -0.00000000000E+00 -0.00000000000E+00 -0.45593999997E+02  0.45594000000E+02  0.51100000000E-03 0. -1.
    9900012    2    1    2    0    0  0.23698963421E+02  0.29512298753E+01 -0.36239106788E+02  0.47787268603E+02  0.19999988867E+02 0.  0.
        -12    1    1    2    0    0 -0.23698963421E+02 -0.29512298753E+01  0.36239106788E+02  0.43400731397E+02  0.00000000000E+00 0.  1.
         11    1    3    3    0    0  0.40049773852E+01  0.44526431789E+01 -0.19671531669E+02  0.20562952940E+02  0.51100000000E-03 0. -1.
        -11    1    3    3    0    0  0.33310661924E+01  0.27748222319E+01 -0.55380652448E+01  0.70331932515E+01  0.51100000000E-03 0.  1.
        -12    1    3    3    0    0  0.16362919844E+02 -0.42762355355E+01 -0.11029509875E+02  0.20191122412E+02  0.00000000000E+00 0.  1.
</event>
<event>
 7    1  0.2294216E-010  0.4778727E+02  0.7816164E-02  0.1312668E+00
        -11   -1    0    0    0    0  0.00000000000E+00  0.00000000000E+00  0.45593999997E+02  0.45594000000E+02  0.51100000000E-03 0. -1.
         11   -1    0    0    0    0 -0.00000000000E+00 -0.00000000000E+00 -0.45593999997E+02  0.45594000000E+02  0.51100000000E-03 0.  1.
    9900012    2    1    2    0    0  0.38356863274E+01  0.16216718490E+02  0.40074042446E+02  0.47787270442E+02  0.19999997254E+02 0.  0.
        -12    1    1    2    0    0 -0.38356863274E+01 -0.16216718490E+02 -0.40074042446E+02  0.43400729558E+02  0.00000000000E+00 0.  1.
         11    1    3    3    0    0  0.48628500877E+01  0.65329340849E+01  0.89680202452E+01  0.12114120938E+02  0.51100000000E-03 0. -1.
        -11    1    3    3    0    0 -0.19942884235E+01  0.42095874962E+00 -0.98090366037E+00  0.22619825015E+01  0.51100000000E-03 0.  1.
        -12    1    3    3    0    0  0.96712466327E+00  0.92628256554E+01  0.32086925861E+02  0.33411167002E+02  0.00000000000E+00 0.  1.
</event>
<event>
 7    1  0.2294216E-010  0.4778727E+02  0.7816164E-02  0.1312668E+00
        -11   -1    0    0    0    0  0.00000000000E+00  0.00000000000E+00  0.45593999997E+02  0.45594000000E+02  0.51100000000E-03 0.  1.
         11   -1    0    0    0    0 -0.00000000000E+00 -0.00000000000E+00 -0.45593999997E+02  0.45594000000E+02  0.51100000000E-03 0. -1.
    9900012    2    1    2    0    0 -0.14652191992E+02  0.40850826692E+02  0.38254279740E+00  0.47787272925E+02  0.20000008576E+02 0.  0.
        -12    1    1    2    0    0  0.14652191992E+02 -0.40850826692E+02 -0.38254279740E+00  0.43400727075E+02  0.00000000000E+00 0.  1.
         11    1    3    3    0    0 -0.16976083202E+02  0.28294526212E+02  0.44303018951E+01  0.33292569585E+02  0.51100000000E-03 0. -1.
        -11    1    3    3    0    0 -0.13454694634E+01  0.77690225664E+01 -0.24025601922E+01  0.82425903364E+01  0.51100000000E-03 0.  1.
         12    1    3    3    0    0  0.36693606734E+01  0.47872779143E+01 -0.16451989055E+01  0.62521130043E+01  0.00000000000E+00 0. -1.
</event>
<event>
 7    1  0.2294216E-010  0.4778727E+02  0.7816164E-02  0.1312668E+00
        -11   -1    0    0    0    0  0.00000000000E+00  0.00000000000E+00  0.45593999997E+02  0.45594000000E+02  0.51100000000E-03 0.  1.
         11   -1    0    0    0    0 -0.00000000000E+00 -0.00000000000E+00 -0.45593999997E+02  0.45594000000E+02  0.51100000000E-03 0. -1.
    9900012    2    1    2    0    0  0.22816799278E+02  0.14868076628E+02 -0.33792855646E+02  0.47787272764E+02  0.20000007841E+02 0.  0.
        -12    1    1    2    0    0 -0.22816799278E+02 -0.14868076628E+02  0.33792855646E+02  0.43400727236E+02  0.00000000000E+00 0.  1.
         11    1    3    3    0    0  0.25616891224E+01 -0.50236721287E-01 -0.29609516660E+00  0.25792338973E+01  0.51100000000E-03 0. -1.
        -11    1    3    3    0    0  0.86173818453E+00 -0.69703966009E+00  0.17394493379E+01  0.20625569681E+01  0.51100000000E-03 0.  1.
         12    1    3    3    0    0  0.19393371971E+02  0.15615353009E+02 -0.35236209817E+02  0.43145481899E+02  0.00000000000E+00 0. -1.
</event>
<event>
 7    1  0.2294216E-010  0.4778726E+02  0.7816164E-02  0.1312668E+00
        -11   -1    0    0    0    0  0.00000000000E+00  0.00000000000E+00  0.45593999997E+02  0.45594000000E+02  0.51100000000E-03 0. -1.
         11   -1    0    0    0    0 -0.00000000000E+00 -0.00000000000E+00 -0.45593999997E+02  0.45594000000E+02  0.51100000000E-03 0.  1.
    9900012    2    1    2    0    0 -0.90741107727E+01  0.12326678509E+01  0.42423636190E+02  0.47787264246E+02  0.19999969005E+02 0.  0.
        -12    1    1    2    0    0  0.90741107727E+01 -0.12326678509E+01 -0.42423636190E+02  0.43400735754E+02  0.00000000000E+00 0.  1.
         11    1    3    3    0    0 -0.67341975573E+01  0.52724359728E+01  0.12783554315E+02  0.15380743123E+02  0.51100000000E-03 0. -1.
        -11    1    3    3    0    0 -0.26055164156E+01  0.26033834097E+01  0.24698587012E+01  0.44346953937E+01  0.51100000000E-03 0.  1.
         12    1    3    3    0    0  0.26560320023E+00 -0.66431515317E+01  0.27170223174E+02  0.27971825729E+02  0.00000000000E+00 0. -1.
</event>
<event>
 7    1  0.2294216E-010  0.4778727E+02  0.7816164E-02  0.1312668E+00
        -11   -1    0    0    0    0  0.00000000000E+00  0.00000000000E+00  0.45593999997E+02  0.45594000000E+02  0.51100000000E-03 0. -1.
         11   -1    0    0    0    0 -0.00000000000E+00 -0.00000000000E+00 -0.45593999997E+02  0.45594000000E+02  0.51100000000E-03 0.  1.
    9900012    2    1    2    0    0 -0.28629056546E+02 -0.43950181027E+01  0.32321571625E+02  0.47787273564E+02  0.20000011489E+02 0.  0.
        -12    1    1    2    0    0  0.28629056546E+02  0.43950181027E+01 -0.32321571625E+02  0.43400726436E+02  0.00000000000E+00 0.  1.
         11    1    3    3    0    0 -0.21903883852E+01  0.19896095767E+01  0.56166900047E+01  0.63485080464E+01  0.51100000000E-03 0. -1.
        -11    1    3    3    0    0 -0.27969039990E+02 -0.46150860546E+01  0.26915524609E+02  0.39089790003E+02  0.51100000000E-03 0.  1.
        -12    1    3    3    0    0  0.15303718296E+01 -0.17695416247E+01 -0.21064298855E+00  0.23489755144E+01  0.00000000000E+00 0.  1.
</event>
<event>
 7    1  0.2294216E-010  0.4778727E+02  0.7816164E-02  0.1312668E+00
        -11   -1    0    0    0    0  0.00000000000E+00  0.00000000000E+00  0.45593999997E+02  0.45594000000E+02  0.51100000000E-03 0. -1.
         11   -1    0    0    0    0 -0.00000000000E+00 -0.00000000000E+00 -0.45593999997E+02  0.45594000000E+02  0.51100000000E-03 0.  1.
    9900012    2    1    2    0    0 -0.10741187649E+02 -0.31508161364E+02  0.27847548360E+02  0.47787270809E+02  0.19999998926E+02 0.  0.
        -12    1    1    2    0    0  0.10741187649E+02  0.31508161364E+02 -0.27847548360E+02  0.43400729191E+02  0.00000000000E+00 0.  1.
         11    1    3    3    0    0 -0.15306600751E+02 -0.19449220995E+02  0.14708166002E+02  0.28790525721E+02  0.51100000000E-03 0. -1.
        -11    1    3    3    0    0  0.17656762215E+01 -0.31302456832E+01  0.68089207603E+01  0.76991851996E+01  0.51100000000E-03 0.  1.
        -12    1    3    3    0    0  0.27997368804E+01 -0.89286946860E+01  0.63304615980E+01  0.11297559889E+02  0.00000000000E+00 0.  1.
</event>
<event>
 7    1  0.2294216E-010  0.4778726E+02  0.7816164E-02  0.1312668E+00
        -11   -1    0    0    0    0  0.00000000000E+00  0.00000000000E+00  0.45593999997E+02  0.45594000000E+02  0.51100000000E-03 0.  1.
         11   -1    0    0    0    0 -0.00000000000E+00 -0.00000000000E+00 -0.45593999997E+02  0.45594000000E+02  0.51100000000E-03 0. -1.
    9900012    2    1    2    0    0 -0.26408828312E+02 -0.58460864522E+01 -0.33941440577E+02  0.47787258899E+02  0.19999944625E+02 0.  0.
        -12    1    1    2    0    0  0.26408828312E+02  0.58460864522E+01  0.33941440577E+02  0.43400741101E+02  0.00000000000E+00 0.  1.
         11    1    3    3    0    0 -0.12121332507E+02 -0.59321971479E+01 -0.16039711686E+02  0.20961631997E+02  0.51100000000E-03 0.  1.
        -11    1    3    3    0    0 -0.13406601671E+02 -0.52908031684E+01 -0.14239579753E+02  0.20260681092E+02  0.51100000000E-03 0. -1.
        -12    1    3    3    0    0 -0.88089413435E+00  0.53769138640E+01 -0.36621491390E+01  0.65649458104E+01  0.00000000000E+00 0.  1.
</event>
<event>
 7    1  0.2294216E-010  0.4778727E+02  0.7816164E-02  0.1312668E+00
        -11   -1    0    0    0    0  0.00000000000E+00  0.00000000000E+00  0.45593999997E+02  0.45594000000E+02  0.51100000000E-03 0. -1.
         11   -1    0    0    0    0 -0.00000000000E+00 -0.00000000000E+00 -0.45593999997E+02  0.45594000000E+02  0.51100000000E-03 0.  1.
    9900012    2    1    2    0    0  0.76361913025E+01  0.41844545036E+02  0.86224227732E+01  0.47787267963E+02  0.19999985950E+02 0.  0.
        -12    1    1    2    0    0 -0.76361913025E+01 -0.41844545036E+02 -0.86224227732E+01  0.43400732037E+02  0.00000000000E+00 0.  1.
         11    1    3    3    0    0  0.86607504147E+01  0.17720145085E+02  0.52196745114E+00  0.19730296244E+02  0.51100000000E-03 0. -1.
        -11    1    3    3    0    0 -0.29486129893E+01  0.30445210142E+00  0.84887584669E+00  0.30834396551E+01  0.51100000000E-03 0.  1.
        -12    1    3    3    0    0  0.19240538771E+01  0.23819947849E+02  0.72515794754E+01  0.24973532064E+02  0.00000000000E+00 0.  1.
</event>
<event>
 7    1  0.2294216E-010  0.4778727E+02  0.7816164E-02  0.1312668E+00
        -11   -1    0    0    0    0  0.00000000000E+00  0.00000000000E+00  0.45593999997E+02  0.45594000000E+02  0.51100000000E-03 0. -1.
         11   -1    0    0    0    0 -0.00000000000E+00 -0.00000000000E+00 -0.45593999997E+02  0.45594000000E+02  0.51100000000E-03 0.  1.
    9900012    2    1    2    0    0 -0.36629885246E+02  0.11786343994E+02  0.20073778596E+02  0.47787274373E+02  0.20000015175E+02 0.  0.
        -12    1    1    2    0    0  0.36629885246E+02 -0.11786343994E+02 -0.20073778596E+02  0.43400725627E+02  0.00000000000E+00 0.  1.
         11    1    3    3    0    0 -0.29627695347E+02  0.48711493792E+01  0.20449574293E+02  0.36327861441E+02  0.51100000000E-03 0. -1.
        -11    1    3    3    0    0 -0.62822905105E+01  0.42699818295E+01  0.19744344327E+01  0.78484591146E+01  0.51100000000E-03 0.  1.
         12    1    3    3    0    0 -0.71989938818E+00  0.26452127848E+01 -0.23502301298E+01  0.36109538171E+01  0.00000000000E+00 0. -1.
</event>
<event>
 7    1  0.2294216E-010  0.4778727E+02  0.7816164E-02  0.1312668E+00
        -11   -1    0    0    0    0  0.00000000000E+00  0.00000000000E+00  0.45593999997E+02  0.45594000000E+02  0.51100000000E-03 0.  1.
         11   -1    0    0    0    0 -0.00000000000E+00 -0.00000000000E+00 -0.45593999997E+02  0.45594000000E+02  0.51100000000E-03 0. -1.
    9900012    2    1    2    0    0 -0.50223691353E+01 -0.15609015298E+01 -0.43080884915E+02  0.47787271315E+02  0.20000001232E+02 0.  0.
        -12    1    1    2    0    0  0.50223691353E+01  0.15609015298E+01  0.43080884915E+02  0.43400728685E+02  0.00000000000E+00 0.  1.
         11    1    3    3    0    0 -0.55063985401E+01  0.19905572702E+01 -0.69822863328E+01  0.91123578630E+01  0.51100000000E-03 0. -1.
        -11    1    3    3    0    0 -0.48993017435E+01 -0.59212737403E+01 -0.24386121459E+02  0.25568487643E+02  0.51100000000E-03 0.  1.
        -12    1    3    3    0    0  0.53833311482E+01  0.23698149403E+01 -0.11712477123E+02  0.13106425808E+02  0.00000000000E+00 0.  1.
</event>
<event>
 7    1  0.2294216E-010  0.4778727E+02  0.7816164E-02  0.1312668E+00
        -11   -1    0    0    0    0  0.00000000000E+00  0.00000000000E+00  0.45593999997E+02  0.45594000000E+02  0.51100000000E-03 0.  1.
         11   -1    0    0    0    0 -0.00000000000E+00 -0.00000000000E+00 -0.45593999997E+02  0.45594000000E+02  0.51100000000E-03 0. -1.
    9900012    2    1    2    0    0 -0.99653614217E+01 -0.20433820611E+02 -0.36969906311E+02  0.47787269296E+02  0.19999992027E+02 0.  0.
        -12    1    1    2    0    0  0.99653614217E+01  0.20433820611E+02  0.36969906311E+02  0.43400730704E+02  0.00000000000E+00 0.  1.
         11    1    3    3    0    0 -0.33915964139E+01  0.97100159695E+00 -0.10784958821E+02  0.11347295156E+02  0.51100000000E-03 0. -1.
        -11    1    3    3    0    0  0.31477641400E+01 -0.23903055615E+01 -0.47998133774E+01  0.62177317791E+01  0.51100000000E-03 0.  1.
         12    1    3    3    0    0 -0.97215291478E+01 -0.19014516647E+02 -0.21385134112E+02  0.30222242360E+02  0.00000000000E+00 0. -1.
</event>
<event>
 7    1  0.2294216E-010  0.4778727E+02  0.7816164E-02  0.1312668E+00
        -11   -1    0    0    0    0  0.00000000000E+00  0.00000000000E+00  0.45593999997E+02  0.45594000000E+02  0.51100000000E-03 0. -1.
         11   -1    0    0    0    0 -0.00000000000E+00 -0.00000000000E+00 -0.45593999997E+02  0.45594000000E+02  0.51100000000E-03 0.  1.
    9900012    2    1    2    0    0  0.13922549878E+02  0.37285721555E+02 -0.17307829786E+02  0.47787269604E+02  0.19999993434E+02 0.  0.
        -12    1    1    2    0    0 -0.13922549878E+02 -0.37285721555E+02  0.17307829786E+02  0.43400730396E+02  0.00000000000E+00 0.  1.
         11    1    3    3    0    0 -0.72519208048E+00 -0.31084490723E+00  0.49896683065E+00  0.93353964519E+00  0.51100000000E-03 0.  1.
        -11    1    3    3    0    0  0.11374672887E+02  0.98495542008E+01 -0.34305235582E+01  0.15432608120E+02  0.51100000000E-03 0. -1.
         12    1    3    3    0    0  0.32730690715E+01  0.27747012261E+02 -0.14376273059E+02  0.31421121839E+02  0.00000000000E+00 0. -1.
</event>
<event>
 7    1  0.2294216E-010  0.4778727E+02  0.7816164E-02  0.1312668E+00
        -11   -1    0    0    0    0  0.00000000000E+00  0.00000000000E+00  0.45593999997E+02  0.45594000000E+02  0.51100000000E-03 0. -1.
         11   -1    0    0    0    0 -0.00000000000E+00 -0.00000000000E+00 -0.45593999997E+02  0.45594000000E+02  0.51100000000E-03 0.  1.
    9900012    2    1    2    0    0 -0.33758830542E+02  0.46161801145E+01  0.26882249102E+02  0.47787273334E+02  0.20000010437E+02 0.  0.
        -12    1    1    2    0    0  0.33758830542E+02 -0.46161801145E+01 -0.26882249102E+02  0.43400726666E+02  0.00000000000E+00 0.  1.
         11    1    3    3    0    0 -0.58636448419E+01  0.58165789741E+01  0.40878264774E+01  0.92154895347E+01  0.51100000000E-03 0. -1.
        -11    1    3    3    0    0 -0.57019779337E+01  0.45390258782E+01  0.98278649419E+01  0.12235286587E+02  0.51100000000E-03 0.  1.
        -12    1    3    3    0    0 -0.22193207766E+02 -0.57394247378E+01  0.12966557682E+02  0.26336497212E+02  0.00000000000E+00 0.  1.
</event>
<event>
 7    1  0.2294216E-010  0.4778727E+02  0.7816164E-02  0.1312668E+00
        -11   -1    0    0    0    0  0.00000000000E+00  0.00000000000E+00  0.45593999997E+02  0.45594000000E+02  0.51100000000E-03 0. -1.
         11   -1    0    0    0    0 -0.00000000000E+00 -0.00000000000E+00 -0.45593999997E+02  0.45594000000E+02  0.51100000000E-03 0.  1.
    9900012    2    1    2    0    0  0.38376009927E+02  0.31032951482E+01 -0.20031842599E+02  0.47787270783E+02  0.19999998806E+02 0.  0.
        -12    1    1    2    0    0 -0.38376009927E+02 -0.31032951482E+01  0.20031842599E+02  0.43400729217E+02  0.00000000000E+00 0.  1.
         11    1    3    3    0    0  0.55656476645E+01 -0.19471560901E+00  0.10878619334E+01  0.56743098207E+01  0.51100000000E-03 0. -1.
        -11    1    3    3    0    0  0.13637189374E+02  0.86691317597E+01 -0.12434921183E+02  0.20390047684E+02  0.51100000000E-03 0.  1.
         12    1    3    3    0    0  0.19173172889E+02 -0.53711210025E+01 -0.86847833497E+01  0.21722913278E+02  0.00000000000E+00 0. -1.
</event>
<event>
 7    1  0.2294216E-010  0.4778727E+02  0.7816164E-02  0.1312668E+00
        -11   -1    0    0    0    0  0.00000000000E+00  0.00000000000E+00  0.45593999997E+02  0.45594000000E+02  0.51100000000E-03 0.  1.
         11   -1    0    0    0    0 -0.00000000000E+00 -0.00000000000E+00 -0.45593999997E+02  0.45594000000E+02  0.51100000000E-03 0. -1.
    9900012    2    1    2    0    0  0.25907687932E+02  0.26396089790E+02 -0.22708179847E+02  0.47787270949E+02  0.19999999567E+02 0.  0.
        -12    1    1    2    0    0 -0.25907687932E+02 -0.26396089790E+02  0.22708179847E+02  0.43400729051E+02  0.00000000000E+00 0.  1.
         11    1    3    3    0    0  0.55374920804E+01  0.12001532928E+02 -0.76433936101E+01  0.15268335774E+02  0.51100000000E-03 0. -1.
        -11    1    3    3    0    0 -0.11447186652E+01  0.18669660479E+01 -0.53737715856E+01  0.58028755253E+01  0.51100000000E-03 0.  1.
         12    1    3    3    0    0  0.21514914517E+02  0.12527590813E+02 -0.96910146510E+01  0.26716059650E+02  0.00000000000E+00 0. -1.
</event>
<event>
 7    1  0.2294216E-010  0.4778727E+02  0.7816164E-02  0.1312668E+00
        -11   -1    0    0    0    0  0.00000000000E+00  0.00000000000E+00  0.45593999997E+02  0.45594000000E+02  0.51100000000E-03 0.  1.
         11   -1    0    0    0    0 -0.00000000000E+00 -0.00000000000E+00 -0.45593999997E+02  0.45594000000E+02  0.51100000000E-03 0. -1.
    9900012    2    1    2    0    0  0.98866736805E+01  0.31330128031E+01 -0.42143344234E+02  0.47787267875E+02  0.19999985551E+02 0.  0.
        -12    1    1    2    0    0 -0.98866736805E+01 -0.31330128031E+01  0.42143344234E+02  0.43400732125E+02  0.00000000000E+00 0.  1.
         11    1    3    3    0    0  0.38734044075E+00 -0.96116096574E+00 -0.74491139682E+00  0.12762273580E+01  0.51100000000E-03 0. -1.
        -11    1    3    3    0    0  0.12398954795E+02  0.13491877495E+01 -0.40555792418E+02  0.42430256734E+02  0.51100000000E-03 0.  1.
        -12    1    3    3    0    0 -0.28996215552E+01  0.27449860193E+01 -0.84264041930E+00  0.40807837833E+01  0.00000000000E+00 0.  1.
</event>
<event>
 7    1  0.2294216E-010  0.4778727E+02  0.7816164E-02  0.1312668E+00
        -11   -1    0    0    0    0  0.00000000000E+00  0.00000000000E+00  0.45593999997E+02  0.45594000000E+02  0.51100000000E-03 0. -1.
         11   -1    0    0    0    0 -0.00000000000E+00 -0.00000000000E+00 -0.45593999997E+02  0.45594000000E+02  0.51100000000E-03 0.  1.
    9900012    2    1    2    0    0 -0.19993807026E+02  0.38495125526E+02  0.14128237236E+01  0.47787273283E+02  0.20000010207E+02 0.  0.
        -12    1    1    2    0    0  0.19993807026E+02 -0.38495125526E+02 -0.14128237236E+01  0.43400726717E+02  0.00000000000E+00 0.  1.
         11    1    3    3    0    0 -0.81798008572E+01  0.21419737725E+01  0.17921124025E+01  0.86434287658E+01  0.51100000000E-03 0. -1.
        -11    1    3    3    0    0 -0.41811048280E+01  0.41115112236E+01  0.11502742882E+01  0.59757253387E+01  0.51100000000E-03 0.  1.
        -12    1    3    3    0    0 -0.76329013407E+01  0.32241640530E+02 -0.15295629671E+01  0.33168119179E+02  0.00000000000E+00 0.  1.
</event>
<event>
 7    1  0.2294216E-010  0.4778725E+02  0.7816164E-02  0.1312668E+00
        -11   -1    0    0    0    0  0.00000000000E+00  0.00000000000E+00  0.45593999997E+02  0.45594000000E+02  0.51100000000E-03 0. -1.
         11   -1    0    0    0    0 -0.00000000000E+00 -0.00000000000E+00 -0.45593999997E+02  0.45594000000E+02  0.51100000000E-03 0.  1.
    9900012    2    1    2    0    0 -0.37474809654E+02 -0.48583091209E+01  0.21346206545E+02  0.47787250468E+02  0.19999906182E+02 0.  0.
        -12    1    1    2    0    0  0.37474809654E+02  0.48583091209E+01 -0.21346206545E+02  0.43400749532E+02  0.00000000000E+00 0.  1.
         11    1    3    3    0    0 -0.63720105716E+01 -0.80460899781E+00 -0.56956943924E+00  0.64478154418E+01  0.51100000000E-03 0. -1.
        -11    1    3    3    0    0 -0.62866311847E+01 -0.21093419278E+01 -0.18910642722E+01  0.68954462774E+01  0.51100000000E-03 0.  1.
         12    1    3    3    0    0 -0.24816167898E+02 -0.19443581953E+01  0.23806840256E+02  0.34443988748E+02  0.00000000000E+00 0. -1.
</event>
<event>
 7    1  0.2294216E-010  0.4778727E+02  0.7816164E-02  0.1312668E+00
        -11   -1    0    0    0    0  0.00000000000E+00  0.00000000000E+00  0.45593999997E+02  0.45594000000E+02  0.51100000000E-03 0.  1.
         11   -1    0    0    0    0 -0.00000000000E+00 -0.00000000000E+00 -0.45593999997E+02  0.45594000000E+02  0.51100000000E-03 0. -1.
    9900012    2    1    2    0    0 -0.33722170700E+02  0.25277421354E+02 -0.10367765953E+02  0.47787269616E+02  0.19999993488E+02 0.  0.
        -12    1    1    2    0    0  0.33722170700E+02 -0.25277421354E+02  0.10367765953E+02  0.43400730384E+02  0.00000000000E+00 0.  1.
         11    1    3    3    0    0 -0.29762620718E+02  0.28419814437E+02 -0.10971753408E+02  0.42589656229E+02  0.51100000000E-03 0. -1.
        -11    1    3    3    0    0  0.67797516100E-01 -0.52258930016E-01  0.19643031818E-01  0.87827152839E-01  0.51100000000E-03 0.  1.
         12    1    3    3    0    0 -0.40273474976E+01 -0.30901341531E+01  0.58434442329E+00  0.51097862339E+01  0.00000000000E+00 0. -1.
</event>
<event>
 7    1  0.2294216E-010  0.4778727E+02  0.7816164E-02  0.1312668E+00
        -11   -1    0    0    0    0  0.00000000000E+00  0.00000000000E+00  0.45593999997E+02  0.45594000000E+02  0.51100000000E-03 0.  1.
         11   -1    0    0    0    0 -0.00000000000E+00 -0.00000000000E+00 -0.45593999997E+02  0.45594000000E+02  0.51100000000E-03 0. -1.
    9900012    2    1    2    0    0 -0.26317551239E+02  0.18169453225E+02 -0.29340774966E+02  0.47787267180E+02  0.19999982381E+02 0.  0.
        -12    1    1    2    0    0  0.26317551239E+02 -0.18169453225E+02  0.29340774966E+02  0.43400732820E+02  0.00000000000E+00 0.  1.
         11    1    3    3    0    0 -0.22837039732E+02  0.20838725988E+02 -0.21924380555E+02  0.37900677402E+02  0.51100000000E-03 0. -1.
        -11    1    3    3    0    0 -0.85964929578E+00 -0.35637854965E+01 -0.33455516953E+01  0.49630918170E+01  0.51100000000E-03 0.  1.
        -12    1    3    3    0    0 -0.26208622106E+01  0.89451273360E+00 -0.40708427154E+01  0.49234979609E+01  0.00000000000E+00 0.  1.
</event>
<event>
 7    1  0.2294216E-010  0.4778726E+02  0.7816164E-02  0.1312668E+00
        -11   -1    0    0    0    0  0.00000000000E+00  0.00000000000E+00  0.45593999997E+02  0.45594000000E+02  0.51100000000E-03 0. -1.
         11   -1    0    0    0    0 -0.00000000000E+00 -0.00000000000E+00 -0.45593999997E+02  0.45594000000E+02  0.51100000000E-03 0.  1.
    9900012    2    1    2    0    0  0.15611664014E+02 -0.34338931843E+02  0.21464809847E+02  0.47787258587E+02  0.19999943204E+02 0.  0.
        -12    1    1    2    0    0 -0.15611664014E+02  0.34338931843E+02 -0.21464809847E+02  0.43400741413E+02  0.00000000000E+00 0.  1.
         11    1    3    3    0    0  0.16588934463E+01 -0.12478726132E+01 -0.34556179436E+00  0.21044065053E+01  0.51100000000E-03 0.  1.
        -11    1    3    3    0    0  0.39041020444E+01 -0.27060446988E+02  0.10186704411E+02  0.29176681631E+02  0.51100000000E-03 0. -1.
         12    1    3    3    0    0  0.10048668523E+02 -0.60306122422E+01  0.11623667230E+02  0.16506170452E+02  0.00000000000E+00 0. -1.
</event>
<event>
 7    1  0.2294216E-010  0.4778727E+02  0.7816164E-02  0.1312668E+00
        -11   -1    0    0    0    0  0.00000000000E+00  0.00000000000E+00  0.45593999997E+02  0.45594000000E+02  0.51100000000E-03 0. -1.
         11   -1    0    0    0    0 -0.00000000000E+00 -0.00000000000E+00 -0.45593999997E+02  0.45594000000E+02  0.51100000000E-03 0.  1.
    9900012    2    1    2    0    0 -0.40026615562E+02  0.27454188130E+01  0.16551618244E+02  0.47787270233E+02  0.19999996301E+02 0.  0.
        -12    1    1    2    0    0  0.40026615562E+02 -0.27454188130E+01 -0.16551618244E+02  0.43400729767E+02  0.00000000000E+00 0.  1.
         11    1    3    3    0    0 -0.15193643795E+02  0.49394160803E+01 -0.65962984890E+00  0.15989989205E+02  0.51100000000E-03 0. -1.
        -11    1    3    3    0    0 -0.66072446455E+01  0.12554692477E+01  0.35765644400E+00  0.67349686881E+01  0.51100000000E-03 0.  1.
        -12    1    3    3    0    0 -0.18225727122E+02 -0.34494665150E+01  0.16853591649E+02  0.25062312340E+02  0.00000000000E+00 0.  1.
</event>
<event>
 7    1  0.2294216E-010  0.4778727E+02  0.7816164E-02  0.1312668E+00
        -11   -1    0    0    0    0  0.00000000000E+00  0.00000000000E+00  0.45593999997E+02  0.45594000000E+02  0.51100000000E-03 0.  1.
         11   -1    0    0    0    0 -0.00000000000E+00 -0.00000000000E+00 -0.45593999997E+02  0.45594000000E+02  0.51100000000E-03 0. -1.
    9900012    2    1    2    0    0 -0.15044320162E+02 -0.25774224218E+02 -0.31511600178E+02  0.47787272484E+02  0.20000006562E+02 0.  0.
        -12    1    1    2    0    0  0.15044320162E+02  0.25774224218E+02  0.31511600178E+02  0.43400727516E+02  0.00000000000E+00 0.  1.
         11    1    3    3    0    0 -0.98433686145E+01 -0.11222042488E+02 -0.15262076876E+02  0.21348469128E+02  0.51100000000E-03 0. -1.
        -11    1    3    3    0    0 -0.57800621124E+01  0.40650456172E+00 -0.56769975495E+01  0.81118842090E+01  0.51100000000E-03 0.  1.
        -12    1    3    3    0    0  0.57911056472E+00 -0.14958686292E+02 -0.10572525752E+02  0.18326919147E+02  0.00000000000E+00 0.  1.
</event>
<event>
 7    1  0.2294216E-010  0.4778728E+02  0.7816164E-02  0.1312668E+00
        -11   -1    0    0    0    0  0.00000000000E+00  0.00000000000E+00  0.45593999997E+02  0.45594000000E+02  0.51100000000E-03 0. -1.
         11   -1    0    0    0    0 -0.00000000000E+00 -0.00000000000E+00 -0.45593999997E+02  0.45594000000E+02  0.51100000000E-03 0.  1.
    9900012    2    1    2    0    0 -0.38120352974E+02  0.16442359669E+02  0.12653473104E+02  0.47787275537E+02  0.20000020482E+02 0.  0.
        -12    1    1    2    0    0  0.38120352974E+02 -0.16442359669E+02 -0.12653473104E+02  0.43400724463E+02  0.00000000000E+00 0.  1.
         11    1    3    3    0    0 -0.31965692787E+02  0.10826530238E+02  0.21720946631E+01  0.33819184908E+02  0.51100000000E-03 0. -1.
        -11    1    3    3    0    0 -0.97535953447E+00 -0.45397461575E+00  0.23040126950E+01  0.25428122096E+01  0.51100000000E-03 0.  1.
         12    1    3    3    0    0 -0.51793006525E+01  0.60698040469E+01  0.81773657454E+01  0.11425278419E+02  0.00000000000E+00 0. -1.
</event>
<event>
 7    1  0.2294216E-010  0.4778727E+02  0.7816164E-02  0.1312668E+00
        -11   -1    0    0    0    0  0.00000000000E+00  0.00000000000E+00  0.45593999997E+02  0.45594000000E+02  0.51100000000E-03 0. -1.
         11   -1    0    0    0    0 -0.00000000000E+00 -0.00000000000E+00 -0.45593999997E+02  0.45594000000E+02  0.51100000000E-03 0.  1.
    9900012    2    1    2    0    0 -0.36668935143E+02 -0.10957169497E+02  0.20468343506E+02  0.47787268972E+02  0.19999990549E+02 0.  0.
        -12    1    1    2    0    0  0.36668935143E+02  0.10957169497E+02 -0.20468343506E+02  0.43400731028E+02  0.00000000000E+00 0.  1.
         11    1    3    3    0    0 -0.16183885144E+01 -0.36098562860E+01  0.38611536474E+01  0.55279970640E+01  0.51100000000E-03 0. -1.
        -11    1    3    3    0    0 -0.17653440598E+01  0.34070915412E+01  0.22479127285E+01  0.44472265869E+01  0.51100000000E-03 0.  1.
         12    1    3    3    0    0 -0.33285202569E+02 -0.10754404753E+02  0.14359277130E+02  0.37812045321E+02  0.00000000000E+00 0. -1.
</event>
<event>
 7    1  0.2294216E-010  0.4778727E+02  0.7816164E-02  0.1312668E+00
        -11   -1    0    0    0    0  0.00000000000E+00  0.00000000000E+00  0.45593999997E+02  0.45594000000E+02  0.51100000000E-03 0.  1.
         11   -1    0    0    0    0 -0.00000000000E+00 -0.00000000000E+00 -0.45593999997E+02  0.45594000000E+02  0.51100000000E-03 0. -1.
    9900012    2    1    2    0    0 -0.34833061559E+02 -0.23031945237E+02 -0.11824154739E+02  0.47787270579E+02  0.19999997880E+02 0.  0.
        -12    1    1    2    0    0  0.34833061559E+02  0.23031945237E+02  0.11824154739E+02  0.43400729421E+02  0.00000000000E+00 0.  1.
         11    1    3    3    0    0 -0.19927197184E+01  0.21262368812E+01 -0.40373710424E+00  0.29419073849E+01  0.51100000000E-03 0.  1.
        -11    1    3    3    0    0  0.28351072747E+00  0.18508166699E+00 -0.20772826463E+01  0.21046940418E+01  0.51100000000E-03 0. -1.
        -12    1    3    3    0    0 -0.33123852568E+02 -0.25343263785E+02 -0.93431349883E+01  0.42740669153E+02  0.00000000000E+00 0.  1.
</event>
<event>
 7    1  0.2294216E-010  0.4778727E+02  0.7816164E-02  0.1312668E+00
        -11   -1    0    0    0    0  0.00000000000E+00  0.00000000000E+00  0.45593999997E+02  0.45594000000E+02  0.51100000000E-03 0.  1.
         11   -1    0    0    0    0 -0.00000000000E+00 -0.00000000000E+00 -0.45593999997E+02  0.45594000000E+02  0.51100000000E-03 0. -1.
    9900012    2    1    2    0    0 -0.33411729849E+02 -0.85425379914E+01 -0.26349665850E+02  0.47787268010E+02  0.19999986166E+02 0.  0.
        -12    1    1    2    0    0  0.33411729849E+02  0.85425379914E+01  0.26349665850E+02  0.43400731990E+02  0.00000000000E+00 0.  1.
         11    1    3    3    0    0 -0.30289654406E+02 -0.11495875719E+02 -0.20266282085E+02  0.38214401897E+02  0.51100000000E-03 0. -1.
        -11    1    3    3    0    0 -0.56002624064E+00 -0.48686479688E+00  0.10280857995E+01  0.12679224712E+01  0.51100000000E-03 0.  1.
         12    1    3    3    0    0 -0.25620492028E+01  0.34402025245E+01 -0.71114695647E+01  0.83049436419E+01  0.00000000000E+00 0. -1.
</event>
<event>
 7    1  0.2294216E-010  0.4778727E+02  0.7816164E-02  0.1312668E+00
        -11   -1    0    0    0    0  0.00000000000E+00  0.00000000000E+00  0.45593999997E+02  0.45594000000E+02  0.51100000000E-03 0.  1.
         11   -1    0    0    0    0 -0.00000000000E+00 -0.00000000000E+00 -0.45593999997E+02  0.45594000000E+02  0.51100000000E-03 0. -1.
    9900012    2    1    2    0    0  0.20676930997E+02 -0.19552871014E+02 -0.32768475817E+02  0.47787271346E+02  0.20000001373E+02 0.  0.
        -12    1    1    2    0    0 -0.20676930997E+02  0.19552871014E+02  0.32768475817E+02  0.43400728654E+02  0.00000000000E+00 0.  1.
         11    1    3    3    0    0  0.11611626183E+02 -0.11949172566E+02 -0.11199493548E+02  0.20075887119E+02  0.51100000000E-03 0. -1.
        -11    1    3    3    0    0  0.32280039903E+01 -0.68958821138E+01 -0.29155739875E+01  0.81531449040E+01  0.51100000000E-03 0.  1.
         12    1    3    3    0    0  0.58373008235E+01 -0.70781633421E+00 -0.18653408282E+02  0.19558239322E+02  0.00000000000E+00 0. -1.
</event>
<event>
 7    1  0.2294216E-010  0.4778727E+02  0.7816164E-02  0.1312668E+00
        -11   -1    0    0    0    0  0.00000000000E+00  0.00000000000E+00  0.45593999997E+02  0.45594000000E+02  0.51100000000E-03 0.  1.
         11   -1    0    0    0    0 -0.00000000000E+00 -0.00000000000E+00 -0.45593999997E+02  0.45594000000E+02  0.51100000000E-03 0. -1.
    9900012    2    1    2    0    0 -0.21791769841E+02  0.99162544436E+01 -0.36199580858E+02  0.47787274324E+02  0.20000014951E+02 0.  0.
        -12    1    1    2    0    0  0.21791769841E+02 -0.99162544436E+01  0.36199580858E+02  0.43400725676E+02  0.00000000000E+00 0.  1.
         11    1    3    3    0    0 -0.14905591771E+02  0.78094513587E+01 -0.20050982265E+02  0.26176441443E+02  0.51100000000E-03 0. -1.
        -11    1    3    3    0    0 -0.64608640531E+01  0.63207402229E+01 -0.66829164386E+01  0.11240813746E+02  0.51100000000E-03 0.  1.
        -12    1    3    3    0    0 -0.42531401622E+00 -0.42139371380E+01 -0.94656821544E+01  0.10370019135E+02  0.00000000000E+00 0.  1.
</event>
<event>
 7    1  0.2294216E-010  0.4778727E+02  0.7816164E-02  0.1312668E+00
        -11   -1    0    0    0    0  0.00000000000E+00  0.00000000000E+00  0.45593999997E+02  0.45594000000E+02  0.51100000000E-03 0.  1.
         11   -1    0    0    0    0 -0.00000000000E+00 -0.00000000000E+00 -0.45593999997E+02  0.45594000000E+02  0.51100000000E-03 0. -1.
    9900012    2    1    2    0    0 -0.23717979553E+01  0.40711776909E+02 -0.14850902002E+02  0.47787268498E+02  0.19999988388E+02 0.  0.
        -12    1    1    2    0    0  0.23717979553E+01 -0.40711776909E+02  0.14850902002E+02  0.43400731502E+02  0.00000000000E+00 0.  1.
         11    1    3    3    0    0 -0.20557192118E+01  0.21721931083E+01 -0.39898698501E+01  0.49863279133E+01  0.51100000000E-03 0. -1.
        -11    1    3    3    0    0  0.11209405639E+01  0.15723864619E+01 -0.49800117361E+01  0.53412942333E+01  0.51100000000E-03 0.  1.
        -12    1    3    3    0    0 -0.14370193075E+01  0.36967197339E+02 -0.58810204162E+01  0.37459646351E+02  0.00000000000E+00 0.  1.
</event>
<event>
 7    1  0.2294216E-010  0.4778729E+02  0.7816164E-02  0.1312668E+00
        -11   -1    0    0    0    0  0.00000000000E+00  0.00000000000E+00  0.45593999997E+02  0.45594000000E+02  0.51100000000E-03 0.  1.
         11   -1    0    0    0    0 -0.00000000000E+00 -0.00000000000E+00 -0.45593999997E+02  0.45594000000E+02  0.51100000000E-03 0. -1.
    9900012    2    1    2    0    0  0.32482473085E+02 -0.27053775560E+02 -0.98287448514E+01  0.47787285085E+02  0.20000064018E+02 0.  0.
        -12    1    1    2    0    0 -0.32482473085E+02  0.27053775560E+02  0.98287448514E+01  0.43400714915E+02  0.00000000000E+00 0.  1.
         11    1    3    3    0    0  0.30799843538E+02 -0.14562707686E+02 -0.64572882578E+01  0.34675631055E+02  0.51100000000E-03 0. -1.
        -11    1    3    3    0    0 -0.15202509507E-02 -0.28460169103E+01 -0.11643688077E+01  0.30749909831E+01  0.51100000000E-03 0.  1.
         12    1    3    3    0    0  0.16841497974E+01 -0.96450509639E+01 -0.22070877859E+01  0.10036663048E+02  0.00000000000E+00 0. -1.
</event>
<event>
 7    1  0.2294216E-010  0.4778727E+02  0.7816164E-02  0.1312668E+00
        -11   -1    0    0    0    0  0.00000000000E+00  0.00000000000E+00  0.45593999997E+02  0.45594000000E+02  0.51100000000E-03 0.  1.
         11   -1    0    0    0    0 -0.00000000000E+00 -0.00000000000E+00 -0.45593999997E+02  0.45594000000E+02  0.51100000000E-03 0. -1.
    9900012    2    1    2    0    0 -0.27105662451E+02  0.98603638470E+01 -0.32429613653E+02  0.47787267820E+02  0.19999985297E+02 0.  0.
        -12    1    1    2    0    0  0.27105662451E+02 -0.98603638470E+01  0.32429613653E+02  0.43400732180E+02  0.00000000000E+00 0.  1.
         11    1    3    3    0    0 -0.73151830101E+01 -0.22901895666E+01 -0.94866092527E+01  0.12196418577E+02  0.51100000000E-03 0. -1.
        -11    1    3    3    0    0 -0.86751336310E+01  0.11137967239E+01 -0.16457571148E+02  0.18637331756E+02  0.51100000000E-03 0.  1.
        -12    1    3    3    0    0 -0.11115345810E+02  0.11036756690E+02 -0.64854332527E+01  0.16953517487E+02  0.00000000000E+00 0.  1.
</event>
<event>
 7    1  0.2294216E-010  0.4778727E+02  0.7816164E-02  0.1312668E+00
        -11   -1    0    0    0    0  0.00000000000E+00  0.00000000000E+00  0.45593999997E+02  0.45594000000E+02  0.51100000000E-03 0.  1.
         11   -1    0    0    0    0 -0.00000000000E+00 -0.00000000000E+00 -0.45593999997E+02  0.45594000000E+02  0.51100000000E-03 0. -1.
    9900012    2    1    2    0    0  0.26430734674E+02  0.17372074375E+02 -0.29719540030E+02  0.47787265408E+02  0.19999974303E+02 0.  0.
        -12    1    1    2    0    0 -0.26430734674E+02 -0.17372074375E+02  0.29719540030E+02  0.43400734592E+02  0.00000000000E+00 0.  1.
         11    1    3    3    0    0  0.42907015493E+01  0.84953014213E+01 -0.42287646228E+01  0.10414543510E+02  0.51100000000E-03 0.  1.
        -11    1    3    3    0    0  0.11547194244E+02  0.10229621432E+02 -0.20307199689E+02  0.25502258901E+02  0.51100000000E-03 0. -1.
        -12    1    3    3    0    0  0.10592838881E+02 -0.13528484785E+01 -0.51835757177E+01  0.11870462998E+02  0.00000000000E+00 0.  1.
</event>
<event>
 7    1  0.2294216E-010  0.4778727E+02  0.7816164E-02  0.1312668E+00
        -11   -1    0    0    0    0  0.00000000000E+00  0.00000000000E+00  0.45593999997E+02  0.45594000000E+02  0.51100000000E-03 0.  1.
         11   -1    0    0    0    0 -0.00000000000E+00 -0.00000000000E+00 -0.45593999997E+02  0.45594000000E+02  0.51100000000E-03 0. -1.
    9900012    2    1    2    0    0  0.26070356161E+02  0.33479084989E+02  0.91165125840E+01  0.47787269549E+02  0.19999993180E+02 0.  0.
        -12    1    1    2    0    0 -0.26070356161E+02 -0.33479084989E+02 -0.91165125840E+01  0.43400730451E+02  0.00000000000E+00 0.  1.
         11    1    3    3    0    0 -0.62168549148E+00  0.81879265936E+00  0.23246572165E+01  0.25418390399E+01  0.51100000000E-03 0. -1.
        -11    1    3    3    0    0  0.43127562880E+01  0.38587374323E+01 -0.42006066691E+01  0.71508613482E+01  0.51100000000E-03 0.  1.
         12    1    3    3    0    0  0.22379285364E+02  0.28801554897E+02  0.10992462037E+02  0.38094569161E+02  0.00000000000E+00 0. -1.
</event>
<event>
 7    1  0.2294216E-010  0.4778727E+02  0.7816164E-02  0.1312668E+00
        -11   -1    0    0    0    0  0.00000000000E+00  0.00000000000E+00  0.45593999997E+02  0.45594000000E+02  0.51100000000E-03 0.  1.
         11   -1    0    0    0    0 -0.00000000000E+00 -0.00000000000E+00 -0.45593999997E+02  0.45594000000E+02  0.51100000000E-03 0. -1.
    9900012    2    1    2    0    0 -0.38981134410E+02  0.10795065959E+01 -0.19050694595E+02  0.47787272599E+02  0.20000007087E+02 0.  0.
        -12    1    1    2    0    0  0.38981134410E+02 -0.10795065959E+01  0.19050694595E+02  0.43400727401E+02  0.00000000000E+00 0.  1.
         11    1    3    3    0    0 -0.21837632563E+02 -0.33266495911E+01 -0.25698181342E+01  0.22238542195E+02  0.51100000000E-03 0. -1.
        -11    1    3    3    0    0 -0.10641990048E+02  0.40205811823E+01 -0.51679877109E+01  0.12495003900E+02  0.51100000000E-03 0.  1.
        -12    1    3    3    0    0 -0.65015117997E+01  0.38557500461E+00 -0.11312888750E+02  0.13053726504E+02  0.00000000000E+00 0.  1.
</event>
<event>
 7    1  0.2294216E-010  0.4778727E+02  0.7816164E-02  0.1312668E+00
        -11   -1    0    0    0    0  0.00000000000E+00  0.00000000000E+00  0.45593999997E+02  0.45594000000E+02  0.51100000000E-03 0.  1.
         11   -1    0    0    0    0 -0.00000000000E+00 -0.00000000000E+00 -0.45593999997E+02  0.45594000000E+02  0.51100000000E-03 0. -1.
    9900012    2    1    2    0    0  0.24873949377E+02 -0.29151562012E+02 -0.20373912108E+02  0.47787271666E+02  0.20000002832E+02 0.  0.
        -12    1    1    2    0    0 -0.24873949377E+02  0.29151562012E+02  0.20373912108E+02  0.43400728334E+02  0.00000000000E+00 0.  1.
         11    1    3    3    0    0  0.12515690211E+02 -0.17923450204E+02 -0.94715927088E+01  0.23824433621E+02  0.51100000000E-03 0.  1.
        -11    1    3    3    0    0  0.52485595152E+01 -0.59610088369E+01  0.21186104360E+01  0.82200677478E+01  0.51100000000E-03 0. -1.
        -12    1    3    3    0    0  0.71096996504E+01 -0.52671029717E+01 -0.13020929835E+02  0.15742770297E+02  0.00000000000E+00 0.  1.
</event>
<event>
 7    1  0.2294216E-010  0.4778729E+02  0.7816164E-02  0.1312668E+00
        -11   -1    0    0    0    0  0.00000000000E+00  0.00000000000E+00  0.45593999997E+02  0.45594000000E+02  0.51100000000E-03 0.  1.
         11   -1    0    0    0    0 -0.00000000000E+00 -0.00000000000E+00 -0.45593999997E+02  0.45594000000E+02  0.51100000000E-03 0. -1.
    9900012    2    1    2    0    0  0.33952662939E+02  0.24961264462E+02  0.10381408468E+02  0.47787289338E+02  0.20000083407E+02 0.  0.
        -12    1    1    2    0    0 -0.33952662939E+02 -0.24961264462E+02 -0.10381408468E+02  0.43400710662E+02  0.00000000000E+00 0.  1.
         11    1    3    3    0    0  0.12438239950E+02  0.16664171191E+02  0.79852298914E+01  0.22274835829E+02  0.51100000000E-03 0. -1.
        -11    1    3    3    0    0  0.97371320433E+01  0.72394550930E+01  0.54477557510E+01  0.13300356892E+02  0.51100000000E-03 0.  1.
        -12    1    3    3    0    0  0.11777290945E+02  0.10576381784E+01 -0.30515771741E+01  0.12212096617E+02  0.00000000000E+00 0.  1.
</event>
<event>
 7    1  0.2294216E-010  0.4778727E+02  0.7816164E-02  0.1312668E+00
        -11   -1    0    0    0    0  0.00000000000E+00  0.00000000000E+00  0.45593999997E+02  0.45594000000E+02  0.51100000000E-03 0.  1.
         11   -1    0    0    0    0 -0.00000000000E+00 -0.00000000000E+00 -0.45593999997E+02  0.45594000000E+02  0.51100000000E-03 0. -1.
    9900012    2    1    2    0    0  0.15448717423E+02  0.18109875695E+01 -0.40517662611E+02  0.47787268100E+02  0.19999986575E+02 0.  0.
        -12    1    1    2    0    0 -0.15448717423E+02 -0.18109875695E+01  0.40517662611E+02  0.43400731900E+02  0.00000000000E+00 0.  1.
         11    1    3    3    0    0 -0.90804215214E+00 -0.61389492695E+00 -0.12284395707E+01  0.16463509867E+01  0.51100000000E-03 0.  1.
        -11    1    3    3    0    0  0.82959641276E+01  0.90427404897E+01 -0.29003254411E+02  0.31492585525E+02  0.51100000000E-03 0. -1.
         12    1    3    3    0    0  0.80607954479E+01 -0.66178579932E+01 -0.10285968630E+02  0.14648331588E+02  0.00000000000E+00 0. -1.
</event>
<event>
 7    1  0.2294216E-010  0.4778727E+02  0.7816164E-02  0.1312668E+00
        -11   -1    0    0    0    0  0.00000000000E+00  0.00000000000E+00  0.45593999997E+02  0.45594000000E+02  0.51100000000E-03 0.  1.
         11   -1    0    0    0    0 -0.00000000000E+00 -0.00000000000E+00 -0.45593999997E+02  0.45594000000E+02  0.51100000000E-03 0. -1.
    9900012    2    1    2    0    0 -0.27856726251E+00  0.34453682316E+02 -0.26391086388E+02  0.47787271140E+02  0.20000000436E+02 0.  0.
        -12    1    1    2    0    0  0.27856726251E+00 -0.34453682316E+02  0.26391086388E+02  0.43400728860E+02  0.00000000000E+00 0.  1.
         11    1    3    3    0    0 -0.69268505453E+01  0.21141748454E+02 -0.11434570793E+02  0.25014079949E+02  0.51100000000E-03 0. -1.
        -11    1    3    3    0    0 -0.28829645552E+00  0.79426114136E+01 -0.97255066824E+01  0.12560002842E+02  0.51100000000E-03 0.  1.
        -12    1    3    3    0    0  0.69365797383E+01  0.53693224481E+01 -0.52310089118E+01  0.10213188349E+02  0.00000000000E+00 0.  1.
</event>
<event>
 7    1  0.2294216E-010  0.4778728E+02  0.7816164E-02  0.1312668E+00
        -11   -1    0    0    0    0  0.00000000000E+00  0.00000000000E+00  0.45593999997E+02  0.45594000000E+02  0.51100000000E-03 0.  1.
         11   -1    0    0    0    0 -0.00000000000E+00 -0.00000000000E+00 -0.45593999997E+02  0.45594000000E+02  0.51100000000E-03 0. -1.
    9900012    2    1    2    0    0  0.13213497966E+02 -0.17903318446E+02 -0.37262541594E+02  0.47787281735E+02  0.20000048741E+02 0.  0.
        -12    1    1    2    0    0 -0.13213497966E+02  0.17903318446E+02  0.37262541594E+02  0.43400718265E+02  0.00000000000E+00 0.  1.
         11    1    3    3    0    0  0.14968627830E+02 -0.20199029499E+02 -0.28413212570E+02  0.37939046649E+02  0.51100000000E-03 0. -1.
        -11    1    3    3    0    0 -0.26680376678E+00  0.17109466644E+00  0.23899078214E+00  0.39695653405E+00  0.51100000000E-03 0.  1.
        -12    1    3    3    0    0 -0.14883260977E+01  0.21246163862E+01 -0.90883198062E+01  0.94512785516E+01  0.00000000000E+00 0.  1.
</event>
<event>
 7    1  0.2294216E-010  0.4778728E+02  0.7816164E-02  0.1312668E+00
        -11   -1    0    0    0    0  0.00000000000E+00  0.00000000000E+00  0.45593999997E+02  0.45594000000E+02  0.51100000000E-03 0.  1.
         11   -1    0    0    0    0 -0.00000000000E+00 -0.00000000000E+00 -0.45593999997E+02  0.45594000000E+02  0.51100000000E-03 0. -1.
    9900012    2    1    2    0    0  0.40846071350E+02  0.13937778554E+02  0.45781471434E+01  0.47787278267E+02  0.20000032928E+02 0.  0.
        -12    1    1    2    0    0 -0.40846071350E+02 -0.13937778554E+02 -0.45781471434E+01  0.43400721733E+02  0.00000000000E+00 0.  1.
         11    1    3    3    0    0  0.17795786479E+02  0.12085401030E+02  0.96054490725E+00  0.21532988210E+02  0.51100000000E-03 0. -1.
        -11    1    3    3    0    0  0.42299513493E+01  0.48969423464E+01 -0.12204778116E+01  0.65849904412E+01  0.51100000000E-03 0.  1.
         12    1    3    3    0    0  0.18820333522E+02 -0.30445648226E+01  0.48380800478E+01  0.19669299616E+02  0.00000000000E+00 0. -1.
</event>
<event>
 7    1  0.2294216E-010  0.4778727E+02  0.7816164E-02  0.1312668E+00
        -11   -1    0    0    0    0  0.00000000000E+00  0.00000000000E+00  0.45593999997E+02  0.45594000000E+02  0.51100000000E-03 0.  1.
         11   -1    0    0    0    0 -0.00000000000E+00 -0.00000000000E+00 -0.45593999997E+02  0.45594000000E+02  0.51100000000E-03 0. -1.
    9900012    2    1    2    0    0  0.39729237137E+02  0.15957616400E+02 -0.71109435504E+01  0.47787270481E+02  0.19999997429E+02 0.  0.
        -12    1    1    2    0    0 -0.39729237137E+02 -0.15957616400E+02  0.71109435504E+01  0.43400729519E+02  0.00000000000E+00 0.  1.
         11    1    3    3    0    0  0.26982128236E+02  0.11585343380E+02 -0.79563471605E+01  0.30422999290E+02  0.51100000000E-03 0. -1.
        -11    1    3    3    0    0  0.83392516368E+01  0.32186785544E+01 -0.47707806322E+01  0.10132292811E+02  0.51100000000E-03 0.  1.
        -12    1    3    3    0    0  0.44078572640E+01  0.11535944656E+01  0.56161842423E+01  0.72319783804E+01  0.00000000000E+00 0.  1.
</event>
<event>
 7    1  0.2294216E-010  0.4778727E+02  0.7816164E-02  0.1312668E+00
        -11   -1    0    0    0    0  0.00000000000E+00  0.00000000000E+00  0.45593999997E+02  0.45594000000E+02  0.51100000000E-03 0. -1.
         11   -1    0    0    0    0 -0.00000000000E+00 -0.00000000000E+00 -0.45593999997E+02  0.45594000000E+02  0.51100000000E-03 0.  1.
    9900012    2    1    2    0    0  0.28357109067E+02 -0.17356874079E+02  0.27896892326E+02  0.47787270584E+02  0.19999997900E+02 0.  0.
        -12    1    1    2    0    0 -0.28357109067E+02  0.17356874079E+02 -0.27896892326E+02  0.43400729416E+02  0.00000000000E+00 0.  1.
         11    1    3    3    0    0  0.75090971082E+01 -0.31118180863E+01  0.53263327871E+01  0.97180127805E+01  0.51100000000E-03 0. -1.
        -11    1    3    3    0    0  0.66022345821E+01 -0.14768801644E+02  0.14280003018E+02  0.21578356979E+02  0.51100000000E-03 0.  1.
        -12    1    3    3    0    0  0.14245777376E+02  0.52374565145E+00  0.82905565212E+01  0.16490900824E+02  0.00000000000E+00 0.  1.
</event>
<event>
 7    1  0.2294216E-010  0.4778727E+02  0.7816164E-02  0.1312668E+00
        -11   -1    0    0    0    0  0.00000000000E+00  0.00000000000E+00  0.45593999997E+02  0.45594000000E+02  0.51100000000E-03 0.  1.
         11   -1    0    0    0    0 -0.00000000000E+00 -0.00000000000E+00 -0.45593999997E+02  0.45594000000E+02  0.51100000000E-03 0. -1.
    9900012    2    1    2    0    0  0.22808061136E+02  0.34034010512E+02 -0.14321366576E+02  0.47787273452E+02  0.20000010976E+02 0.  0.
        -12    1    1    2    0    0 -0.22808061136E+02 -0.34034010512E+02  0.14321366576E+02  0.43400726548E+02  0.00000000000E+00 0.  1.
         11    1    3    3    0    0  0.10699972192E+02  0.14460287997E+02 -0.86794942404E+01  0.19973055710E+02  0.51100000000E-03 0. -1.
        -11    1    3    3    0    0  0.10788000386E+02  0.19519999902E+02 -0.29305360201E+00  0.22304645910E+02  0.51100000000E-03 0.  1.
         12    1    3    3    0    0  0.13200885580E+01  0.53722612838E-01 -0.53488187336E+01  0.55095718313E+01  0.00000000000E+00 0. -1.
</event>
<event>
 7    1  0.2294216E-010  0.4778727E+02  0.7816164E-02  0.1312668E+00
        -11   -1    0    0    0    0  0.00000000000E+00  0.00000000000E+00  0.45593999997E+02  0.45594000000E+02  0.51100000000E-03 0.  1.
         11   -1    0    0    0    0 -0.00000000000E+00 -0.00000000000E+00 -0.45593999997E+02  0.45594000000E+02  0.51100000000E-03 0. -1.
    9900012    2    1    2    0    0  0.22351984528E+02 -0.22904546346E+01 -0.37131741432E+02  0.47787267097E+02  0.19999982002E+02 0.  0.
        -12    1    1    2    0    0 -0.22351984528E+02  0.22904546346E+01  0.37131741432E+02  0.43400732903E+02  0.00000000000E+00 0.  1.
         11    1    3    3    0    0  0.67550112490E+01  0.79511473207E+00 -0.13712526303E+02  0.15306722780E+02  0.51100000000E-03 0. -1.
        -11    1    3    3    0    0  0.60860243108E+01  0.47573219143E+01 -0.16794108656E+02  0.18485504849E+02  0.51100000000E-03 0.  1.
        -12    1    3    3    0    0  0.95109489684E+01 -0.78428912810E+01 -0.66251064730E+01  0.13995039468E+02  0.00000000000E+00 0.  1.
</event>
<event>
 7    1  0.2294216E-010  0.4778728E+02  0.7816164E-02  0.1312668E+00
        -11   -1    0    0    0    0  0.00000000000E+00  0.00000000000E+00  0.45593999997E+02  0.45594000000E+02  0.51100000000E-03 0. -1.
         11   -1    0    0    0    0 -0.00000000000E+00 -0.00000000000E+00 -0.45593999997E+02  0.45594000000E+02  0.51100000000E-03 0.  1.
    9900012    2    1    2    0    0  0.10591275531E+02 -0.50024656603E+01  0.41790221353E+02  0.47787281333E+02  0.20000046909E+02 0.  0.
        -12    1    1    2    0    0 -0.10591275531E+02  0.50024656603E+01 -0.41790221353E+02  0.43400718667E+02  0.00000000000E+00 0.  1.
         11    1    3    3    0    0  0.31862724125E+01 -0.27533109830E+01  0.18683867756E+02  0.19152544683E+02  0.51100000000E-03 0. -1.
        -11    1    3    3    0    0  0.30335173783E+01 -0.63369113912E+01  0.21230412534E+02  0.22362671806E+02  0.51100000000E-03 0.  1.
        -12    1    3    3    0    0  0.43714857405E+01  0.40877567139E+01  0.18759410633E+01  0.62720648438E+01  0.00000000000E+00 0.  1.
</event>
<event>
 7    1  0.2294216E-010  0.4778727E+02  0.7816164E-02  0.1312668E+00
        -11   -1    0    0    0    0  0.00000000000E+00  0.00000000000E+00  0.45593999997E+02  0.45594000000E+02  0.51100000000E-03 0.  1.
         11   -1    0    0    0    0 -0.00000000000E+00 -0.00000000000E+00 -0.45593999997E+02  0.45594000000E+02  0.51100000000E-03 0. -1.
    9900012    2    1    2    0    0  0.16263904733E+01 -0.14415096998E+02 -0.40904561427E+02  0.47787270594E+02  0.19999997947E+02 0.  0.
        -12    1    1    2    0    0 -0.16263904733E+01  0.14415096998E+02  0.40904561427E+02  0.43400729406E+02  0.00000000000E+00 0.  1.
         11    1    3    3    0    0 -0.45378944997E+01 -0.37366245709E+01 -0.38558566297E+01  0.70301123948E+01  0.51100000000E-03 0.  1.
        -11    1    3    3    0    0  0.71048992393E+00 -0.11177386274E+01  0.65651063529E+00  0.14782225971E+01  0.51100000000E-03 0. -1.
         12    1    3    3    0    0  0.54537950491E+01 -0.95607337999E+01 -0.37705215433E+02  0.39278935602E+02  0.00000000000E+00 0. -1.
</event>
<event>
 7    1  0.2294216E-010  0.4778727E+02  0.7816164E-02  0.1312668E+00
        -11   -1    0    0    0    0  0.00000000000E+00  0.00000000000E+00  0.45593999997E+02  0.45594000000E+02  0.51100000000E-03 0.  1.
         11   -1    0    0    0    0 -0.00000000000E+00 -0.00000000000E+00 -0.45593999997E+02  0.45594000000E+02  0.51100000000E-03 0. -1.
    9900012    2    1    2    0    0  0.42230005333E+02  0.84060473675E+01  0.54394857979E+01  0.47787274332E+02  0.20000014990E+02 0.  0.
        -12    1    1    2    0    0 -0.42230005333E+02 -0.84060473675E+01 -0.54394857979E+01  0.43400725668E+02  0.00000000000E+00 0.  1.
         11    1    3    3    0    0  0.77918935629E+01 -0.37921022336E+01 -0.29999187699E+01  0.91702321417E+01  0.51100000000E-03 0. -1.
        -11    1    3    3    0    0  0.75809820977E+01  0.64547964831E+01  0.42876161875E+01  0.10840633747E+02  0.51100000000E-03 0.  1.
        -12    1    3    3    0    0  0.26857129672E+02  0.57433531179E+01  0.41517883803E+01  0.27776408443E+02  0.00000000000E+00 0.  1.
</event>
<event>
 7    1  0.2294216E-010  0.4778727E+02  0.7816164E-02  0.1312668E+00
        -11   -1    0    0    0    0  0.00000000000E+00  0.00000000000E+00  0.45593999997E+02  0.45594000000E+02  0.51100000000E-03 0.  1.
         11   -1    0    0    0    0 -0.00000000000E+00 -0.00000000000E+00 -0.45593999997E+02  0.45594000000E+02  0.51100000000E-03 0. -1.
    9900012    2    1    2    0    0 -0.15617478663E+02 -0.10918579924E+02 -0.38993624340E+02  0.47787265369E+02  0.19999974124E+02 0.  0.
        -12    1    1    2    0    0  0.15617478663E+02  0.10918579924E+02  0.38993624340E+02  0.43400734631E+02  0.00000000000E+00 0.  1.
         11    1    3    3    0    0  0.29075342739E+01 -0.21788095661E+01 -0.40212045257E+01  0.54195066913E+01  0.51100000000E-03 0. -1.
        -11    1    3    3    0    0 -0.56111685303E+01  0.27955115945E+01 -0.64058270431E+01  0.89629636682E+01  0.51100000000E-03 0.  1.
         12    1    3    3    0    0 -0.12913844407E+02 -0.11535281953E+02 -0.28566592771E+02  0.33404795010E+02  0.00000000000E+00 0. -1.
</event>
<event>
 7    1  0.2294216E-010  0.4778728E+02  0.7816164E-02  0.1312668E+00
        -11   -1    0    0    0    0  0.00000000000E+00  0.00000000000E+00  0.45593999997E+02  0.45594000000E+02  0.51100000000E-03 0.  1.
         11   -1    0    0    0    0 -0.00000000000E+00 -0.00000000000E+00 -0.45593999997E+02  0.45594000000E+02  0.51100000000E-03 0. -1.
    9900012    2    1    2    0    0 -0.19870694769E+02 -0.31698016900E+02 -0.22000313293E+02  0.47787279142E+02  0.20000036920E+02 0.  0.
        -12    1    1    2    0    0  0.19870694769E+02  0.31698016900E+02  0.22000313293E+02  0.43400720858E+02  0.00000000000E+00 0.  1.
         11    1    3    3    0    0 -0.14685870764E+02 -0.12593957326E+02 -0.65390630311E+01  0.20421603923E+02  0.51100000000E-03 0. -1.
        -11    1    3    3    0    0 -0.54498898178E+01 -0.35553181272E+01 -0.73843413654E+01  0.98422600897E+01  0.51100000000E-03 0.  1.
        -12    1    3    3    0    0  0.26506581198E+00 -0.15548741447E+02 -0.80769088965E+01  0.17523415129E+02  0.00000000000E+00 0.  1.
</event>
<event>
 7    1  0.2294216E-010  0.4778727E+02  0.7816164E-02  0.1312668E+00
        -11   -1    0    0    0    0  0.00000000000E+00  0.00000000000E+00  0.45593999997E+02  0.45594000000E+02  0.51100000000E-03 0.  1.
         11   -1    0    0    0    0 -0.00000000000E+00 -0.00000000000E+00 -0.45593999997E+02  0.45594000000E+02  0.51100000000E-03 0. -1.
    9900012    2    1    2    0    0 -0.42730197174E+02  0.75841324868E+01 -0.48432896479E+00  0.47787269699E+02  0.19999993864E+02 0.  0.
        -12    1    1    2    0    0  0.42730197174E+02 -0.75841324868E+01  0.48432896479E+00  0.43400730301E+02  0.00000000000E+00 0.  1.
         11    1    3    3    0    0 -0.34037799819E+01 -0.13237768914E+01 -0.87327605329E+00  0.37550918430E+01  0.51100000000E-03 0. -1.
        -11    1    3    3    0    0 -0.26326633744E+02  0.97296890186E+01  0.76878419711E+01  0.29100883270E+02  0.51100000000E-03 0.  1.
        -12    1    3    3    0    0 -0.12999783449E+02 -0.82177964047E+00 -0.72988948826E+01  0.14931294585E+02  0.00000000000E+00 0.  1.
</event>
<event>
 7    1  0.2294216E-010  0.4778724E+02  0.7816164E-02  0.1312668E+00
        -11   -1    0    0    0    0  0.00000000000E+00  0.00000000000E+00  0.45593999997E+02  0.45594000000E+02  0.51100000000E-03 0.  1.
         11   -1    0    0    0    0 -0.00000000000E+00 -0.00000000000E+00 -0.45593999997E+02  0.45594000000E+02  0.51100000000E-03 0. -1.
    9900012    2    1    2    0    0  0.28617933426E+02  0.31055981296E+02 -0.10008283990E+02  0.47787241524E+02  0.19999865405E+02 0.  0.
        -12    1    1    2    0    0 -0.28617933426E+02 -0.31055981296E+02  0.10008283990E+02  0.43400758476E+02  0.00000000000E+00 0.  1.
         11    1    3    3    0    0  0.21978164375E+02  0.11350314834E+02 -0.96103715464E+00  0.24754655093E+02  0.51100000000E-03 0. -1.
        -11    1    3    3    0    0  0.15710467059E+01  0.17726704630E+01 -0.12686057201E+00  0.23720544236E+01  0.51100000000E-03 0.  1.
         12    1    3    3    0    0  0.50687223452E+01  0.17932996000E+02 -0.89203862638E+01  0.20660532008E+02  0.00000000000E+00 0. -1.
</event>
<event>
 7    1  0.2294216E-010  0.4778727E+02  0.7816164E-02  0.1312668E+00
        -11   -1    0    0    0    0  0.00000000000E+00  0.00000000000E+00  0.45593999997E+02  0.45594000000E+02  0.51100000000E-03 0.  1.
         11   -1    0    0    0    0 -0.00000000000E+00 -0.00000000000E+00 -0.45593999997E+02  0.45594000000E+02  0.51100000000E-03 0. -1.
    9900012    2    1    2    0    0 -0.89869821302E+01  0.18607025898E+02 -0.38165900045E+02  0.47787272047E+02  0.20000004570E+02 0.  0.
        -12    1    1    2    0    0  0.89869821302E+01 -0.18607025898E+02  0.38165900045E+02  0.43400727953E+02  0.00000000000E+00 0.  1.
         11    1    3    3    0    0 -0.41561273852E+01  0.41880626457E+01 -0.28137321977E+02  0.28749298285E+02  0.51100000000E-03 0. -1.
        -11    1    3    3    0    0 -0.12475830571E+01  0.10781851299E+00 -0.10203546570E+00  0.12563836251E+01  0.51100000000E-03 0.  1.
        -12    1    3    3    0    0 -0.35832716880E+01  0.14311144740E+02 -0.99265426024E+01  0.17781590137E+02  0.00000000000E+00 0.  1.
</event>
<event>
 7    1  0.2294216E-010  0.4778727E+02  0.7816164E-02  0.1312668E+00
        -11   -1    0    0    0    0  0.00000000000E+00  0.00000000000E+00  0.45593999997E+02  0.45594000000E+02  0.51100000000E-03 0. -1.
         11   -1    0    0    0    0 -0.00000000000E+00 -0.00000000000E+00 -0.45593999997E+02  0.45594000000E+02  0.51100000000E-03 0.  1.
    9900012    2    1    2    0    0 -0.30870607188E+02 -0.62327793958E+01  0.29862707247E+02  0.47787271765E+02  0.20000003287E+02 0.  0.
        -12    1    1    2    0    0  0.30870607188E+02  0.62327793958E+01 -0.29862707247E+02  0.43400728235E+02  0.00000000000E+00 0.  1.
         11    1    3    3    0    0 -0.72590556006E+01  0.28642878718E+01  0.10992477846E+02  0.13480823516E+02  0.51100000000E-03 0. -1.
        -11    1    3    3    0    0 -0.18261467956E+02 -0.48531456528E+00  0.14232396458E+02  0.23157673703E+02  0.51100000000E-03 0.  1.
        -12    1    3    3    0    0 -0.53500836317E+01 -0.86117527023E+01  0.46378329430E+01  0.11148774546E+02  0.00000000000E+00 0.  1.
</event>
<event>
 7    1  0.2294216E-010  0.4778728E+02  0.7816164E-02  0.1312668E+00
        -11   -1    0    0    0    0  0.00000000000E+00  0.00000000000E+00  0.45593999997E+02  0.45594000000E+02  0.51100000000E-03 0. -1.
         11   -1    0    0    0    0 -0.00000000000E+00 -0.00000000000E+00 -0.45593999997E+02  0.45594000000E+02  0.51100000000E-03 0.  1.
    9900012    2    1    2    0    0  0.20653984349E+02  0.37209656732E+02  0.85133178876E+01  0.47787283358E+02  0.20000056142E+02 0.  0.
        -12    1    1    2    0    0 -0.20653984349E+02 -0.37209656732E+02 -0.85133178876E+01  0.43400716642E+02  0.00000000000E+00 0.  1.
         11    1    3    3    0    0  0.14950222428E+01  0.72894677039E+01  0.44753505041E+01  0.86833284695E+01  0.51100000000E-03 0. -1.
        -11    1    3    3    0    0  0.25228072907E+01  0.18591376155E+02  0.16060800136E+01  0.18830382822E+02  0.51100000000E-03 0.  1.
        -12    1    3    3    0    0  0.16636154815E+02  0.11328812873E+02  0.24318873699E+01  0.20273572066E+02  0.00000000000E+00 0.  1.
</event>
<event>
 7    1  0.2294216E-010  0.4778727E+02  0.7816164E-02  0.1312668E+00
        -11   -1    0    0    0    0  0.00000000000E+00  0.00000000000E+00  0.45593999997E+02  0.45594000000E+02  0.51100000000E-03 0. -1.
         11   -1    0    0    0    0 -0.00000000000E+00 -0.00000000000E+00 -0.45593999997E+02  0.45594000000E+02  0.51100000000E-03 0.  1.
    9900012    2    1    2    0    0 -0.11248328756E+02 -0.28762797935E+02  0.30492613760E+02  0.47787274905E+02  0.20000017602E+02 0.  0.
        -12    1    1    2    0    0  0.11248328756E+02  0.28762797935E+02 -0.30492613760E+02  0.43400725095E+02  0.00000000000E+00 0.  1.
         11    1    3    3    0    0 -0.11054713493E+02 -0.11593687079E+02  0.20536880295E+02  0.26045800487E+02  0.51100000000E-03 0. -1.
        -11    1    3    3    0    0 -0.44683483813E+01 -0.73219940443E+01  0.39915985005E+01  0.94610037994E+01  0.51100000000E-03 0.  1.
        -12    1    3    3    0    0  0.42747331188E+01 -0.98471168114E+01  0.59641349650E+01  0.12280470619E+02  0.00000000000E+00 0.  1.
</event>
<event>
 7    1  0.2294216E-010  0.4778727E+02  0.7816164E-02  0.1312668E+00
        -11   -1    0    0    0    0  0.00000000000E+00  0.00000000000E+00  0.45593999997E+02  0.45594000000E+02  0.51100000000E-03 0.  1.
         11   -1    0    0    0    0 -0.00000000000E+00 -0.00000000000E+00 -0.45593999997E+02  0.45594000000E+02  0.51100000000E-03 0. -1.
    9900012    2    1    2    0    0  0.17461960191E+02 -0.15075736504E+02 -0.36761738536E+02  0.47787270685E+02  0.19999998360E+02 0.  0.
        -12    1    1    2    0    0 -0.17461960191E+02  0.15075736504E+02  0.36761738536E+02  0.43400729315E+02  0.00000000000E+00 0.  1.
         11    1    3    3    0    0  0.46967193845E+01 -0.84925240759E+01 -0.95511289974E+01  0.13616394660E+02  0.51100000000E-03 0. -1.
        -11    1    3    3    0    0 -0.32230520594E+01 -0.18974279188E+00 -0.26579314525E+01  0.41819453334E+01  0.51100000000E-03 0.  1.
         12    1    3    3    0    0  0.15988292866E+02 -0.63934696365E+01 -0.24552678087E+02  0.29988930691E+02  0.00000000000E+00 0. -1.
</event>
<event>
 7    1  0.2294216E-010  0.4778727E+02  0.7816164E-02  0.1312668E+00
        -11   -1    0    0    0    0  0.00000000000E+00  0.00000000000E+00  0.45593999997E+02  0.45594000000E+02  0.51100000000E-03 0. -1.
         11   -1    0    0    0    0 -0.00000000000E+00 -0.00000000000E+00 -0.45593999997E+02  0.45594000000E+02  0.51100000000E-03 0.  1.
    9900012    2    1    2    0    0  0.33549066427E+02  0.27195403728E+02  0.43004325643E+01  0.47787267722E+02  0.19999984851E+02 0.  0.
        -12    1    1    2    0    0 -0.33549066427E+02 -0.27195403728E+02 -0.43004325643E+01  0.43400732278E+02  0.00000000000E+00 0.  1.
         11    1    3    3    0    0  0.28369990424E+02  0.16592188089E+02  0.90754393285E+01  0.34095757236E+02  0.51100000000E-03 0. -1.
        -11    1    3    3    0    0 -0.26454412818E+00  0.25508227645E+01  0.52934006890E+00  0.26185647865E+01  0.51100000000E-03 0.  1.
         12    1    3    3    0    0  0.54436201311E+01  0.80523928741E+01 -0.53043468332E+01  0.11072945699E+02  0.00000000000E+00 0. -1.
</event>
<event>
 7    1  0.2294216E-010  0.4778727E+02  0.7816164E-02  0.1312668E+00
        -11   -1    0    0    0    0  0.00000000000E+00  0.00000000000E+00  0.45593999997E+02  0.45594000000E+02  0.51100000000E-03 0.  1.
         11   -1    0    0    0    0 -0.00000000000E+00 -0.00000000000E+00 -0.45593999997E+02  0.45594000000E+02  0.51100000000E-03 0. -1.
    9900012    2    1    2    0    0 -0.92913372640E+01  0.37267005173E+02 -0.20210509032E+02  0.47787270766E+02  0.19999998731E+02 0.  0.
        -12    1    1    2    0    0  0.92913372640E+01 -0.37267005173E+02  0.20210509032E+02  0.43400729234E+02  0.00000000000E+00 0.  1.
         11    1    3    3    0    0 -0.50069501235E+01  0.64669050724E+01 -0.10134076571E+02  0.13022669425E+02  0.51100000000E-03 0. -1.
        -11    1    3    3    0    0 -0.71943372434E+01  0.10337323717E+02 -0.34190991537E+01  0.13050248629E+02  0.51100000000E-03 0.  1.
        -12    1    3    3    0    0  0.29099501029E+01  0.20462776383E+02 -0.66573333074E+01  0.21714352711E+02  0.00000000000E+00 0.  1.
</event>
<event>
 7    1  0.2294216E-010  0.4778727E+02  0.7816164E-02  0.1312668E+00
        -11   -1    0    0    0    0  0.00000000000E+00  0.00000000000E+00  0.45593999997E+02  0.45594000000E+02  0.51100000000E-03 0. -1.
         11   -1    0    0    0    0 -0.00000000000E+00 -0.00000000000E+00 -0.45593999997E+02  0.45594000000E+02  0.51100000000E-03 0.  1.
    9900012    2    1    2    0    0 -0.38396633943E+01 -0.32590068249E+02  0.28403660294E+02  0.47787268652E+02  0.19999989093E+02 0.  0.
        -12    1    1    2    0    0  0.38396633943E+01  0.32590068249E+02 -0.28403660294E+02  0.43400731348E+02  0.00000000000E+00 0.  1.
         11    1    3    3    0    0 -0.54508389767E+01 -0.20713230894E+02  0.20409793967E+02  0.29585626065E+02  0.51100000000E-03 0. -1.
        -11    1    3    3    0    0 -0.40284037359E+01 -0.11696091610E+01  0.14127160489E+01  0.44262613056E+01  0.51100000000E-03 0.  1.
        -12    1    3    3    0    0  0.56395793183E+01 -0.10707228194E+02  0.65811502779E+01  0.13775381282E+02  0.00000000000E+00 0.  1.
</event>
<event>
 7    1  0.2294216E-010  0.4778728E+02  0.7816164E-02  0.1312668E+00
        -11   -1    0    0    0    0  0.00000000000E+00  0.00000000000E+00  0.45593999997E+02  0.45594000000E+02  0.51100000000E-03 0.  1.
         11   -1    0    0    0    0 -0.00000000000E+00 -0.00000000000E+00 -0.45593999997E+02  0.45594000000E+02  0.51100000000E-03 0. -1.
    9900012    2    1    2    0    0 -0.16866334709E+02 -0.19854278594E+01 -0.39940050387E+02  0.47787276558E+02  0.20000025140E+02 0.  0.
        -12    1    1    2    0    0  0.16866334709E+02  0.19854278594E+01  0.39940050387E+02  0.43400723442E+02  0.00000000000E+00 0.  1.
         11    1    3    3    0    0 -0.29241074216E+01 -0.21463059983E+01 -0.24704468104E+02  0.24969336760E+02  0.51100000000E-03 0.  1.
        -11    1    3    3    0    0 -0.87081905953E+01 -0.31439204929E+01 -0.13534932636E+02  0.16398512775E+02  0.51100000000E-03 0. -1.
        -12    1    3    3    0    0 -0.52340366922E+01  0.33047986317E+01 -0.17006496477E+01  0.64194270239E+01  0.00000000000E+00 0.  1.
</event>
<event>
 7    1  0.2294216E-010  0.4778727E+02  0.7816164E-02  0.1312668E+00
        -11   -1    0    0    0    0  0.00000000000E+00  0.00000000000E+00  0.45593999997E+02  0.45594000000E+02  0.51100000000E-03 0. -1.
         11   -1    0    0    0    0 -0.00000000000E+00 -0.00000000000E+00 -0.45593999997E+02  0.45594000000E+02  0.51100000000E-03 0.  1.
    9900012    2    1    2    0    0 -0.33327629167E+02  0.25378892862E+02  0.11349184324E+02  0.47787273582E+02  0.20000011570E+02 0.  0.
        -12    1    1    2    0    0  0.33327629167E+02 -0.25378892862E+02 -0.11349184324E+02  0.43400726418E+02  0.00000000000E+00 0.  1.
         11    1    3    3    0    0 -0.11136563002E+02  0.11990337245E+02  0.75913529467E+01  0.18039397511E+02  0.51100000000E-03 0. -1.
        -11    1    3    3    0    0 -0.93120130938E+01 -0.19033367246E+01  0.81110395323E+00  0.95390863520E+01  0.51100000000E-03 0.  1.
         12    1    3    3    0    0 -0.12879053071E+02  0.15291892342E+02  0.29467274243E+01  0.20208789719E+02  0.00000000000E+00 0. -1.
</event>
<event>
 7    1  0.2294216E-010  0.4778727E+02  0.7816164E-02  0.1312668E+00
        -11   -1    0    0    0    0  0.00000000000E+00  0.00000000000E+00  0.45593999997E+02  0.45594000000E+02  0.51100000000E-03 0.  1.
         11   -1    0    0    0    0 -0.00000000000E+00 -0.00000000000E+00 -0.45593999997E+02  0.45594000000E+02  0.51100000000E-03 0. -1.
    9900012    2    1    2    0    0 -0.27074842654E+02  0.11634975013E+02 -0.31862259852E+02  0.47787270153E+02  0.19999995938E+02 0.  0.
        -12    1    1    2    0    0  0.27074842654E+02 -0.11634975013E+02  0.31862259852E+02  0.43400729847E+02  0.00000000000E+00 0.  1.
         11    1    3    3    0    0 -0.50279524025E+01 -0.27929317743E+00 -0.11137119978E+02  0.12222673672E+02  0.51100000000E-03 0. -1.
        -11    1    3    3    0    0  0.11053004422E+01  0.44336398477E+01 -0.34167221638E+01  0.57055097907E+01  0.51100000000E-03 0.  1.
         12    1    3    3    0    0 -0.23152190694E+02  0.74806283431E+01 -0.17308417711E+02  0.29859086691E+02  0.00000000000E+00 0. -1.
</event>
<event>
 7    1  0.2294216E-010  0.4778727E+02  0.7816164E-02  0.1312668E+00
        -11   -1    0    0    0    0  0.00000000000E+00  0.00000000000E+00  0.45593999997E+02  0.45594000000E+02  0.51100000000E-03 0.  1.
         11   -1    0    0    0    0 -0.00000000000E+00 -0.00000000000E+00 -0.45593999997E+02  0.45594000000E+02  0.51100000000E-03 0. -1.
    9900012    2    1    2    0    0 -0.20770031955E+02 -0.31816134419E+02 -0.20975288950E+02  0.47787269783E+02  0.19999994250E+02 0.  0.
        -12    1    1    2    0    0  0.20770031955E+02  0.31816134419E+02  0.20975288950E+02  0.43400730217E+02  0.00000000000E+00 0.  1.
         11    1    3    3    0    0 -0.11763196600E+01  0.64068956367E+00  0.57551427904E+00  0.14578847712E+01  0.51100000000E-03 0.  1.
        -11    1    3    3    0    0 -0.84460198937E+01 -0.17328332850E+02 -0.22778726342E+01  0.19411210045E+02  0.51100000000E-03 0. -1.
         12    1    3    3    0    0 -0.11147692401E+02 -0.15128491133E+02 -0.19272930595E+02  0.26918174967E+02  0.00000000000E+00 0. -1.
</event>
<event>
 7    1  0.2294216E-010  0.4778728E+02  0.7816164E-02  0.1312668E+00
        -11   -1    0    0    0    0  0.00000000000E+00  0.00000000000E+00  0.45593999997E+02  0.45594000000E+02  0.51100000000E-03 0.  1.
         11   -1    0    0    0    0 -0.00000000000E+00 -0.00000000000E+00 -0.45593999997E+02  0.45594000000E+02  0.51100000000E-03 0. -1.
    9900012    2    1    2    0    0  0.11285050005E+02 -0.41578473644E+02  0.52441339506E+01  0.47787276906E+02  0.20000026727E+02 0.  0.
        -12    1    1    2    0    0 -0.11285050005E+02  0.41578473644E+02 -0.52441339506E+01  0.43400723094E+02  0.00000000000E+00 0.  1.
         11    1    3    3    0    0 -0.36805645008E+00 -0.12900169814E+02 -0.12923912104E+01  0.12969970011E+02  0.51100000000E-03 0. -1.
        -11    1    3    3    0    0  0.85836338844E+01 -0.23766557758E+02 -0.10280221474E+01  0.25290015186E+02  0.51100000000E-03 0.  1.
        -12    1    3    3    0    0  0.30694725706E+01 -0.49117460720E+01  0.75645473084E+01  0.95272917095E+01  0.00000000000E+00 0.  1.
</event>
<event>
 7    1  0.2294216E-010  0.4778727E+02  0.7816164E-02  0.1312668E+00
        -11   -1    0    0    0    0  0.00000000000E+00  0.00000000000E+00  0.45593999997E+02  0.45594000000E+02  0.51100000000E-03 0. -1.
         11   -1    0    0    0    0 -0.00000000000E+00 -0.00000000000E+00 -0.45593999997E+02  0.45594000000E+02  0.51100000000E-03 0.  1.
    9900012    2    1    2    0    0 -0.18434795073E+02 -0.36146106975E+02 -0.15402614479E+02  0.47787271300E+02  0.20000001166E+02 0.  0.
        -12    1    1    2    0    0  0.18434795073E+02  0.36146106975E+02  0.15402614479E+02  0.43400728700E+02  0.00000000000E+00 0.  1.
         11    1    3    3    0    0 -0.63631559670E+01 -0.12023910163E+02 -0.84702573939E+01  0.16025274726E+02  0.51100000000E-03 0. -1.
        -11    1    3    3    0    0 -0.14134442682E+02 -0.12995582337E+02 -0.16437320661E+01  0.19270949265E+02  0.51100000000E-03 0.  1.
        -12    1    3    3    0    0  0.20628035759E+01 -0.11126614475E+02 -0.52886250194E+01  0.12491047309E+02  0.00000000000E+00 0.  1.
</event>
<event>
 7    1  0.2294216E-010  0.4778727E+02  0.7816164E-02  0.1312668E+00
        -11   -1    0    0    0    0  0.00000000000E+00  0.00000000000E+00  0.45593999997E+02  0.45594000000E+02  0.51100000000E-03 0.  1.
         11   -1    0    0    0    0 -0.00000000000E+00 -0.00000000000E+00 -0.45593999997E+02  0.45594000000E+02  0.51100000000E-03 0. -1.
    9900012    2    1    2    0    0  0.22660702308E+01  0.17422754652E+02 -0.39685457424E+02  0.47787274374E+02  0.20000015181E+02 0.  0.
        -12    1    1    2    0    0 -0.22660702308E+01 -0.17422754652E+02  0.39685457424E+02  0.43400725626E+02  0.00000000000E+00 0.  1.
         11    1    3    3    0    0  0.10107679304E+02  0.10258955773E+02 -0.26342481846E+02  0.30022286797E+02  0.51100000000E-03 0. -1.
        -11    1    3    3    0    0 -0.58772999429E+00 -0.13329956684E+00  0.30310157885E+00  0.67458590923E+00  0.51100000000E-03 0.  1.
         12    1    3    3    0    0 -0.72538790786E+01  0.72970984455E+01 -0.13646077156E+02  0.17090401668E+02  0.00000000000E+00 0. -1.
</event>
<event>
 7    1  0.2294216E-010  0.4778727E+02  0.7816164E-02  0.1312668E+00
        -11   -1    0    0    0    0  0.00000000000E+00  0.00000000000E+00  0.45593999997E+02  0.45594000000E+02  0.51100000000E-03 0.  1.
         11   -1    0    0    0    0 -0.00000000000E+00 -0.00000000000E+00 -0.45593999997E+02  0.45594000000E+02  0.51100000000E-03 0. -1.
    9900012    2    1    2    0    0 -0.10366280990E+01  0.26086471000E+01 -0.43309853462E+02  0.47787273688E+02  0.20000012053E+02 0.  0.
        -12    1    1    2    0    0  0.10366280990E+01 -0.26086471000E+01  0.43309853462E+02  0.43400726312E+02  0.00000000000E+00 0.  1.
         11    1    3    3    0    0  0.37580833011E+01 -0.56681159582E+00 -0.46017282893E+01  0.59682802375E+01  0.51100000000E-03 0. -1.
        -11    1    3    3    0    0 -0.16843744643E+01 -0.52138166964E+01 -0.70965954979E+01  0.89656382818E+01  0.51100000000E-03 0.  1.
         12    1    3    3    0    0 -0.31103369358E+01  0.83892753922E+01 -0.31611529675E+02  0.32853355169E+02  0.00000000000E+00 0. -1.
</event>
<event>
 7    1  0.2294216E-010  0.4778728E+02  0.7816164E-02  0.1312668E+00
        -11   -1    0    0    0    0  0.00000000000E+00  0.00000000000E+00  0.45593999997E+02  0.45594000000E+02  0.51100000000E-03 0.  1.
         11   -1    0    0    0    0 -0.00000000000E+00 -0.00000000000E+00 -0.45593999997E+02  0.45594000000E+02  0.51100000000E-03 0. -1.
    9900012    2    1    2    0    0 -0.16994373356E+02 -0.39922789484E+02 -0.99228787386E+00  0.47787280177E+02  0.20000041639E+02 0.  0.
        -12    1    1    2    0    0  0.16994373356E+02  0.39922789484E+02  0.99228787386E+00  0.43400719823E+02  0.00000000000E+00 0.  1.
         11    1    3    3    0    0 -0.77852283514E+01 -0.19474475116E+02  0.58763125214E+01  0.21780633844E+02  0.51100000000E-03 0.  1.
        -11    1    3    3    0    0 -0.91286312630E+01 -0.17626707422E+02 -0.14576940925E+01  0.19903708087E+02  0.51100000000E-03 0. -1.
        -12    1    3    3    0    0 -0.80513741411E-01 -0.28216069454E+01 -0.54109063028E+01  0.61029382460E+01  0.00000000000E+00 0.  1.
</event>
<event>
 7    1  0.2294216E-010  0.4778727E+02  0.7816164E-02  0.1312668E+00
        -11   -1    0    0    0    0  0.00000000000E+00  0.00000000000E+00  0.45593999997E+02  0.45594000000E+02  0.51100000000E-03 0.  1.
         11   -1    0    0    0    0 -0.00000000000E+00 -0.00000000000E+00 -0.45593999997E+02  0.45594000000E+02  0.51100000000E-03 0. -1.
    9900012    2    1    2    0    0 -0.13248348215E+02 -0.11345320368E+02 -0.39741518020E+02  0.47787270983E+02  0.19999999719E+02 0.  0.
        -12    1    1    2    0    0  0.13248348215E+02  0.11345320368E+02  0.39741518020E+02  0.43400729017E+02  0.00000000000E+00 0.  1.
         11    1    3    3    0    0 -0.67278368385E+01 -0.98696691576E+01 -0.28810529243E+02  0.31188471481E+02  0.51100000000E-03 0. -1.
        -11    1    3    3    0    0 -0.80944549004E+01 -0.14032894766E+01 -0.12108129203E+02  0.14632027014E+02  0.51100000000E-03 0.  1.
        -12    1    3    3    0    0  0.15739435241E+01 -0.72361733621E-01  0.11771404254E+01  0.19667724877E+01  0.00000000000E+00 0.  1.
</event>
<event>
 7    1  0.2294216E-010  0.4778727E+02  0.7816164E-02  0.1312668E+00
        -11   -1    0    0    0    0  0.00000000000E+00  0.00000000000E+00  0.45593999997E+02  0.45594000000E+02  0.51100000000E-03 0.  1.
         11   -1    0    0    0    0 -0.00000000000E+00 -0.00000000000E+00 -0.45593999997E+02  0.45594000000E+02  0.51100000000E-03 0. -1.
    9900012    2    1    2    0    0 -0.35533426966E+02 -0.20977482074E+02 -0.13451546363E+02  0.47787270908E+02  0.19999999379E+02 0.  0.
        -12    1    1    2    0    0  0.35533426966E+02  0.20977482074E+02  0.13451546363E+02  0.43400729092E+02  0.00000000000E+00 0.  1.
         11    1    3    3    0    0 -0.33207524654E+02 -0.22471685867E+02 -0.11802318004E+02  0.41797261512E+02  0.51100000000E-03 0. -1.
        -11    1    3    3    0    0 -0.19765196422E+01 -0.13487831387E+00 -0.31674012427E+01  0.37359407047E+01  0.51100000000E-03 0.  1.
         12    1    3    3    0    0 -0.34938267050E+00  0.16290821072E+01  0.15181728836E+01  0.22540686917E+01  0.00000000000E+00 0. -1.
</event>
<event>
 7    1  0.2294216E-010  0.4778728E+02  0.7816164E-02  0.1312668E+00
        -11   -1    0    0    0    0  0.00000000000E+00  0.00000000000E+00  0.45593999997E+02  0.45594000000E+02  0.51100000000E-03 0.  1.
         11   -1    0    0    0    0 -0.00000000000E+00 -0.00000000000E+00 -0.45593999997E+02  0.45594000000E+02  0.51100000000E-03 0. -1.
    9900012    2    1    2    0    0  0.38191995008E+02  0.16853094696E+02 -0.11872962547E+02  0.47787279693E+02  0.20000039430E+02 0.  0.
        -12    1    1    2    0    0 -0.38191995008E+02 -0.16853094696E+02  0.11872962547E+02  0.43400720307E+02  0.00000000000E+00 0.  1.
         11    1    3    3    0    0  0.35563832735E+01 -0.74547113960E+00  0.57654061200E+00  0.36791287755E+01  0.51100000000E-03 0. -1.
        -11    1    3    3    0    0  0.10850230298E+02  0.14611635637E+02 -0.35843546690E+01  0.18549258534E+02  0.51100000000E-03 0.  1.
        -12    1    3    3    0    0  0.23785381437E+02  0.29869301991E+01 -0.88651484896E+01  0.25558892383E+02  0.00000000000E+00 0.  1.
</event>
<event>
 7    1  0.2294216E-010  0.4778727E+02  0.7816164E-02  0.1312668E+00
        -11   -1    0    0    0    0  0.00000000000E+00  0.00000000000E+00  0.45593999997E+02  0.45594000000E+02  0.51100000000E-03 0. -1.
         11   -1    0    0    0    0 -0.00000000000E+00 -0.00000000000E+00 -0.45593999997E+02  0.45594000000E+02  0.51100000000E-03 0.  1.
    9900012    2    1    2    0    0  0.23491332232E+02  0.26062312869E+02  0.25544789865E+02  0.47787272686E+02  0.20000007486E+02 0.  0.
        -12    1    1    2    0    0 -0.23491332232E+02 -0.26062312869E+02 -0.25544789865E+02  0.43400727314E+02  0.00000000000E+00 0.  1.
         11    1    3    3    0    0  0.30075787237E+01  0.28282853913E+01  0.81515138234E+01  0.91373905415E+01  0.51100000000E-03 0. -1.
        -11    1    3    3    0    0  0.11189697510E+02  0.14735811282E+02  0.18299697297E+02  0.26023688937E+02  0.51100000000E-03 0.  1.
        -12    1    3    3    0    0  0.92940559991E+01  0.84982161961E+01 -0.90642125553E+00  0.12626193208E+02  0.00000000000E+00 0.  1.
</event>
<event>
 7    1  0.2294216E-010  0.4778727E+02  0.7816164E-02  0.1312668E+00
        -11   -1    0    0    0    0  0.00000000000E+00  0.00000000000E+00  0.45593999997E+02  0.45594000000E+02  0.51100000000E-03 0.  1.
         11   -1    0    0    0    0 -0.00000000000E+00 -0.00000000000E+00 -0.45593999997E+02  0.45594000000E+02  0.51100000000E-03 0. -1.
    9900012    2    1    2    0    0 -0.31165595620E+02 -0.29624086999E+02 -0.58942676872E+01  0.47787271061E+02  0.20000000077E+02 0.  0.
        -12    1    1    2    0    0  0.31165595620E+02  0.29624086999E+02  0.58942676872E+01  0.43400728939E+02  0.00000000000E+00 0.  1.
         11    1    3    3    0    0 -0.16224794096E+02 -0.42622294428E+01 -0.22895800675E+01  0.16930821611E+02  0.51100000000E-03 0. -1.
        -11    1    3    3    0    0 -0.14438863181E+02 -0.17558568175E+02 -0.16282789715E+01  0.22791125004E+02  0.51100000000E-03 0.  1.
        -12    1    3    3    0    0 -0.50193834296E+00 -0.78032893813E+01 -0.19764086482E+01  0.80653244456E+01  0.00000000000E+00 0.  1.
</event>
<event>
 7    1  0.2294216E-010  0.4778728E+02  0.7816164E-02  0.1312668E+00
        -11   -1    0    0    0    0  0.00000000000E+00  0.00000000000E+00  0.45593999997E+02  0.45594000000E+02  0.51100000000E-03 0.  1.
         11   -1    0    0    0    0 -0.00000000000E+00 -0.00000000000E+00 -0.45593999997E+02  0.45594000000E+02  0.51100000000E-03 0. -1.
    9900012    2    1    2    0    0 -0.59535584587E+01 -0.19571062179E+02 -0.38277290329E+02  0.47787282402E+02  0.20000051782E+02 0.  0.
        -12    1    1    2    0    0  0.59535584587E+01  0.19571062179E+02  0.38277290329E+02  0.43400717598E+02  0.00000000000E+00 0.  1.
         11    1    3    3    0    0 -0.67774839257E+00 -0.16213193115E+02 -0.27454686442E+02  0.31891798033E+02  0.51100000000E-03 0. -1.
        -11    1    3    3    0    0 -0.57882565212E+01 -0.50325914789E+01 -0.11658121747E+02  0.13955023951E+02  0.51100000000E-03 0.  1.
        -12    1    3    3    0    0  0.51244645507E+00  0.16747224153E+01  0.83551786016E+00  0.19404604176E+01  0.00000000000E+00 0.  1.
</event>
<event>
 7    1  0.2294216E-010  0.4778727E+02  0.7816164E-02  0.1312668E+00
        -11   -1    0    0    0    0  0.00000000000E+00  0.00000000000E+00  0.45593999997E+02  0.45594000000E+02  0.51100000000E-03 0.  1.
         11   -1    0    0    0    0 -0.00000000000E+00 -0.00000000000E+00 -0.45593999997E+02  0.45594000000E+02  0.51100000000E-03 0. -1.
    9900012    2    1    2    0    0  0.16582721042E+02 -0.21044419523E+02 -0.34143360436E+02  0.47787270835E+02  0.19999999046E+02 0.  0.
        -12    1    1    2    0    0 -0.16582721042E+02  0.21044419523E+02  0.34143360436E+02  0.43400729165E+02  0.00000000000E+00 0.  1.
         11    1    3    3    0    0 -0.70572978712E+00 -0.21898346423E+01 -0.35424550581E+01  0.42240286922E+01  0.51100000000E-03 0. -1.
        -11    1    3    3    0    0  0.17251915036E+02 -0.17629902307E+02 -0.32803501240E+02  0.41042803530E+02  0.51100000000E-03 0.  1.
        -12    1    3    3    0    0  0.36535793122E-01 -0.12246825733E+01  0.22025958621E+01  0.25204386129E+01  0.00000000000E+00 0.  1.
</event>
<event>
 7    1  0.2294216E-010  0.4778727E+02  0.7816164E-02  0.1312668E+00
        -11   -1    0    0    0    0  0.00000000000E+00  0.00000000000E+00  0.45593999997E+02  0.45594000000E+02  0.51100000000E-03 0.  1.
         11   -1    0    0    0    0 -0.00000000000E+00 -0.00000000000E+00 -0.45593999997E+02  0.45594000000E+02  0.51100000000E-03 0. -1.
    9900012    2    1    2    0    0  0.26407218476E+02  0.34229122946E+02 -0.38274190099E+01  0.47787272107E+02  0.20000004847E+02 0.  0.
        -12    1    1    2    0    0 -0.26407218476E+02 -0.34229122946E+02  0.38274190099E+01  0.43400727893E+02  0.00000000000E+00 0.  1.
         11    1    3    3    0    0  0.76610149447E+01  0.17033087616E+02  0.22242264001E+01  0.18808625869E+02  0.51100000000E-03 0. -1.
        -11    1    3    3    0    0  0.14502915028E+01  0.89808451953E+01 -0.30630899826E+01  0.95990336163E+01  0.51100000000E-03 0.  1.
         12    1    3    3    0    0  0.17295912029E+02  0.82151901347E+01 -0.29885554274E+01  0.19379612622E+02  0.00000000000E+00 0. -1.
</event>
<event>
 7    1  0.2294216E-010  0.4778727E+02  0.7816164E-02  0.1312668E+00
        -11   -1    0    0    0    0  0.00000000000E+00  0.00000000000E+00  0.45593999997E+02  0.45594000000E+02  0.51100000000E-03 0.  1.
         11   -1    0    0    0    0 -0.00000000000E+00 -0.00000000000E+00 -0.45593999997E+02  0.45594000000E+02  0.51100000000E-03 0. -1.
    9900012    2    1    2    0    0  0.98591403035E+01  0.41855765018E+02 -0.58749707727E+01  0.47787274265E+02  0.20000014685E+02 0.  0.
        -12    1    1    2    0    0 -0.98591403035E+01 -0.41855765018E+02  0.58749707727E+01  0.43400725735E+02  0.00000000000E+00 0.  1.
         11    1    3    3    0    0  0.77503673684E+01  0.19971727747E+02 -0.29515546688E+01  0.21625211646E+02  0.51100000000E-03 0. -1.
        -11    1    3    3    0    0 -0.17805164817E+00  0.22268201129E+02  0.20264967764E+00  0.22269835003E+02  0.51100000000E-03 0.  1.
        -12    1    3    3    0    0  0.22868245833E+01 -0.38416385773E+00 -0.31260657815E+01  0.38922276160E+01  0.00000000000E+00 0.  1.
</event>
<event>
 7    1  0.2294216E-010  0.4778728E+02  0.7816164E-02  0.1312668E+00
        -11   -1    0    0    0    0  0.00000000000E+00  0.00000000000E+00  0.45593999997E+02  0.45594000000E+02  0.51100000000E-03 0. -1.
         11   -1    0    0    0    0 -0.00000000000E+00 -0.00000000000E+00 -0.45593999997E+02  0.45594000000E+02  0.51100000000E-03 0.  1.
    9900012    2    1    2    0    0  0.29928606063E+02 -0.26397869590E+02  0.17060294688E+02  0.47787278409E+02  0.20000033578E+02 0.  0.
        -12    1    1    2    0    0 -0.29928606063E+02  0.26397869590E+02 -0.17060294688E+02  0.43400721591E+02  0.00000000000E+00 0.  1.
         11    1    3    3    0    0  0.26902279594E+02 -0.26603517499E+02  0.18922364351E+02  0.42302903725E+02  0.51100000000E-03 0. -1.
        -11    1    3    3    0    0  0.16320140306E+01 -0.10981799166E+01  0.87046278746E+00  0.21510868534E+01  0.51100000000E-03 0.  1.
        -12    1    3    3    0    0  0.13943124381E+01  0.13038278254E+01 -0.27325324499E+01  0.33332878308E+01  0.00000000000E+00 0.  1.
</event>
<event>
 7    1  0.2294216E-010  0.4778727E+02  0.7816164E-02  0.1312668E+00
        -11   -1    0    0    0    0  0.00000000000E+00  0.00000000000E+00  0.45593999997E+02  0.45594000000E+02  0.51100000000E-03 0. -1.
         11   -1    0    0    0    0 -0.00000000000E+00 -0.00000000000E+00 -0.45593999997E+02  0.45594000000E+02  0.51100000000E-03 0.  1.
    9900012    2    1    2    0    0 -0.18533241647E+02 -0.17599894854E+02  0.35076858287E+02  0.47787270373E+02  0.19999996941E+02 0.  0.
        -12    1    1    2    0    0  0.18533241647E+02  0.17599894854E+02 -0.35076858287E+02  0.43400729627E+02  0.00000000000E+00 0.  1.
         11    1    3    3    0    0 -0.12504696495E+01  0.18169922005E+01  0.97525620682E+01  0.99988800451E+01  0.51100000000E-03 0. -1.
        -11    1    3    3    0    0 -0.67962225164E+01 -0.18312695638E+01  0.34918349858E+01  0.78571687355E+01  0.51100000000E-03 0.  1.
         12    1    3    3    0    0 -0.10486549481E+02 -0.17585617491E+02  0.21832461233E+02  0.29931221593E+02  0.00000000000E+00 0. -1.
</event>
<event>
 7    1  0.2294216E-010  0.4778729E+02  0.7816164E-02  0.1312668E+00
        -11   -1    0    0    0    0  0.00000000000E+00  0.00000000000E+00  0.45593999997E+02  0.45594000000E+02  0.51100000000E-03 0.  1.
         11   -1    0    0    0    0 -0.00000000000E+00 -0.00000000000E+00 -0.45593999997E+02  0.45594000000E+02  0.51100000000E-03 0. -1.
    9900012    2    1    2    0    0 -0.38017130279E+02 -0.17045629422E+02 -0.12155919233E+02  0.47787285150E+02  0.20000064314E+02 0.  0.
        -12    1    1    2    0    0  0.38017130279E+02  0.17045629422E+02  0.12155919233E+02  0.43400714850E+02  0.00000000000E+00 0.  1.
         11    1    3    3    0    0 -0.18869506655E+02 -0.12795225728E+02 -0.22618989711E+01  0.22910527494E+02  0.51100000000E-03 0. -1.
        -11    1    3    3    0    0 -0.14297245695E+02 -0.77449766581E+01 -0.46177896935E+01  0.16903250569E+02  0.51100000000E-03 0.  1.
        -12    1    3    3    0    0 -0.48503779291E+01  0.34945729639E+01 -0.52762305683E+01  0.79735070869E+01  0.00000000000E+00 0.  1.
</event>
<event>
 7    1  0.2294216E-010  0.4778728E+02  0.7816164E-02  0.1312668E+00
        -11   -1    0    0    0    0  0.00000000000E+00  0.00000000000E+00  0.45593999997E+02  0.45594000000E+02  0.51100000000E-03 0.  1.
         11   -1    0    0    0    0 -0.00000000000E+00 -0.00000000000E+00 -0.45593999997E+02  0.45594000000E+02  0.51100000000E-03 0. -1.
    9900012    2    1    2    0    0 -0.22115841681E+02  0.23436126540E+01 -0.37269548689E+02  0.47787283036E+02  0.20000054673E+02 0.  0.
        -12    1    1    2    0    0  0.22115841681E+02 -0.23436126540E+01  0.37269548689E+02  0.43400716964E+02  0.00000000000E+00 0.  1.
         11    1    3    3    0    0 -0.29320252732E+01  0.24364262231E+01 -0.23154873617E+02  0.23466595779E+02  0.51100000000E-03 0. -1.
        -11    1    3    3    0    0 -0.24278009828E+01  0.10599041566E+01 -0.49059926269E+00  0.26941236666E+01  0.51100000000E-03 0.  1.
         12    1    3    3    0    0 -0.16756015425E+02 -0.11527177257E+01 -0.13624075809E+02  0.21626563590E+02  0.00000000000E+00 0. -1.
</event>
<event>
 7    1  0.2294216E-010  0.4778727E+02  0.7816164E-02  0.1312668E+00
        -11   -1    0    0    0    0  0.00000000000E+00  0.00000000000E+00  0.45593999997E+02  0.45594000000E+02  0.51100000000E-03 0. -1.
         11   -1    0    0    0    0 -0.00000000000E+00 -0.00000000000E+00 -0.45593999997E+02  0.45594000000E+02  0.51100000000E-03 0.  1.
    9900012    2    1    2    0    0 -0.34094577712E+02 -0.14770682728E+02  0.22427892328E+02  0.47787266690E+02  0.19999980146E+02 0.  0.
        -12    1    1    2    0    0  0.34094577712E+02  0.14770682728E+02 -0.22427892328E+02  0.43400733310E+02  0.00000000000E+00 0.  1.
         11    1    3    3    0    0 -0.29160656998E+02 -0.81172515671E+01  0.18552719820E+02  0.35502635149E+02  0.51100000000E-03 0. -1.
        -11    1    3    3    0    0 -0.27244819572E+01  0.60875819451E-01  0.44227946087E+01  0.51949610405E+01  0.51100000000E-03 0.  1.
        -12    1    3    3    0    0 -0.22094387571E+01 -0.67143069800E+01 -0.54762210078E+00  0.70896705007E+01  0.00000000000E+00 0.  1.
</event>
<event>
 7    1  0.2294216E-010  0.4778728E+02  0.7816164E-02  0.1312668E+00
        -11   -1    0    0    0    0  0.00000000000E+00  0.00000000000E+00  0.45593999997E+02  0.45594000000E+02  0.51100000000E-03 0.  1.
         11   -1    0    0    0    0 -0.00000000000E+00 -0.00000000000E+00 -0.45593999997E+02  0.45594000000E+02  0.51100000000E-03 0. -1.
    9900012    2    1    2    0    0  0.25455212685E+02  0.33244890442E+02 -0.11420697175E+02  0.47787275153E+02  0.20000018731E+02 0.  0.
        -12    1    1    2    0    0 -0.25455212685E+02 -0.33244890442E+02  0.11420697175E+02  0.43400724847E+02  0.00000000000E+00 0.  1.
         11    1    3    3    0    0  0.16476870953E+02  0.17041982069E+02  0.32016037197E+00  0.23706938481E+02  0.51100000000E-03 0. -1.
        -11    1    3    3    0    0 -0.59524053803E+00 -0.73808710330E+00  0.51936558146E+00  0.10811219813E+01  0.51100000000E-03 0.  1.
         12    1    3    3    0    0  0.95735822697E+01  0.16940995476E+02 -0.12260223128E+02  0.22999214690E+02  0.00000000000E+00 0. -1.
</event>
<event>
 7    1  0.2294216E-010  0.4778727E+02  0.7816164E-02  0.1312668E+00
        -11   -1    0    0    0    0  0.00000000000E+00  0.00000000000E+00  0.45593999997E+02  0.45594000000E+02  0.51100000000E-03 0. -1.
         11   -1    0    0    0    0 -0.00000000000E+00 -0.00000000000E+00 -0.45593999997E+02  0.45594000000E+02  0.51100000000E-03 0.  1.
    9900012    2    1    2    0    0  0.10755996725E+02 -0.39118033101E+02  0.15417883129E+02  0.47787273054E+02  0.20000009164E+02 0.  0.
        -12    1    1    2    0    0 -0.10755996725E+02  0.39118033101E+02 -0.15417883129E+02  0.43400726946E+02  0.00000000000E+00 0.  1.
         11    1    3    3    0    0  0.36967844410E+01 -0.14447964339E+02  0.12435284347E+02  0.19417677147E+02  0.51100000000E-03 0. -1.
        -11    1    3    3    0    0  0.37075433448E+01 -0.87683050614E+01  0.67715572752E+01  0.11682595580E+02  0.51100000000E-03 0.  1.
        -12    1    3    3    0    0  0.33516689396E+01 -0.15901763700E+02 -0.37889584924E+01  0.16687000327E+02  0.00000000000E+00 0.  1.
</event>
<event>
 7    1  0.2294216E-010  0.4778727E+02  0.7816164E-02  0.1312668E+00
        -11   -1    0    0    0    0  0.00000000000E+00  0.00000000000E+00  0.45593999997E+02  0.45594000000E+02  0.51100000000E-03 0. -1.
         11   -1    0    0    0    0 -0.00000000000E+00 -0.00000000000E+00 -0.45593999997E+02  0.45594000000E+02  0.51100000000E-03 0.  1.
    9900012    2    1    2    0    0  0.38038366221E+02 -0.76477147582E+01  0.19447834017E+02  0.47787273120E+02  0.20000009463E+02 0.  0.
        -12    1    1    2    0    0 -0.38038366221E+02  0.76477147582E+01 -0.19447834017E+02  0.43400726880E+02  0.00000000000E+00 0.  1.
         11    1    3    3    0    0  0.16833852035E+02 -0.44441882452E+01  0.25121154118E+01  0.17590909801E+02  0.51100000000E-03 0. -1.
        -11    1    3    3    0    0  0.30423009629E+01 -0.57862246454E+01  0.31967296613E+01  0.72770235388E+01  0.51100000000E-03 0.  1.
        -12    1    3    3    0    0  0.18162213222E+02  0.25826981324E+01  0.13738988944E+02  0.22919339781E+02  0.00000000000E+00 0.  1.
</event>
<event>
 7    1  0.2294216E-010  0.4778729E+02  0.7816164E-02  0.1312668E+00
        -11   -1    0    0    0    0  0.00000000000E+00  0.00000000000E+00  0.45593999997E+02  0.45594000000E+02  0.51100000000E-03 0. -1.
         11   -1    0    0    0    0 -0.00000000000E+00 -0.00000000000E+00 -0.45593999997E+02  0.45594000000E+02  0.51100000000E-03 0.  1.
    9900012    2    1    2    0    0 -0.41649077473E+02  0.90155461744E+01  0.82277739679E+01  0.47787285816E+02  0.20000067350E+02 0.  0.
        -12    1    1    2    0    0  0.41649077473E+02 -0.90155461744E+01 -0.82277739679E+01  0.43400714184E+02  0.00000000000E+00 0.  1.
         11    1    3    3    0    0 -0.75600138072E+00  0.27259102526E+01  0.16655311169E+01  0.32826999491E+01  0.51100000000E-03 0.  1.
        -11    1    3    3    0    0 -0.16386295581E+02 -0.28519294097E+00  0.95300050909E+01  0.18958191242E+02  0.51100000000E-03 0. -1.
         12    1    3    3    0    0 -0.24506780512E+02  0.65748288627E+01 -0.29677622399E+01  0.25546394625E+02  0.00000000000E+00 0. -1.
</event>
<event>
 7    1  0.2294216E-010  0.4778728E+02  0.7816164E-02  0.1312668E+00
        -11   -1    0    0    0    0  0.00000000000E+00  0.00000000000E+00  0.45593999997E+02  0.45594000000E+02  0.51100000000E-03 0. -1.
         11   -1    0    0    0    0 -0.00000000000E+00 -0.00000000000E+00 -0.45593999997E+02  0.45594000000E+02  0.51100000000E-03 0.  1.
    9900012    2    1    2    0    0 -0.24563705856E+02 -0.14346204952E+02  0.32778555233E+02  0.47787275063E+02  0.20000018323E+02 0.  0.
        -12    1    1    2    0    0  0.24563705856E+02  0.14346204952E+02 -0.32778555233E+02  0.43400724937E+02  0.00000000000E+00 0.  1.
         11    1    3    3    0    0 -0.17693578457E+01 -0.53104781450E+01  0.13754381489E+02  0.14849741268E+02  0.51100000000E-03 0.  1.
        -11    1    3    3    0    0 -0.76939336155E+01 -0.16307094670E+01  0.12762730515E+02  0.14991434832E+02  0.51100000000E-03 0. -1.
         12    1    3    3    0    0 -0.15100414395E+02 -0.74050173396E+01  0.62614432279E+01  0.17946098963E+02  0.00000000000E+00 0. -1.
</event>
<event>
 7    1  0.2294216E-010  0.4778727E+02  0.7816164E-02  0.1312668E+00
        -11   -1    0    0    0    0  0.00000000000E+00  0.00000000000E+00  0.45593999997E+02  0.45594000000E+02  0.51100000000E-03 0.  1.
         11   -1    0    0    0    0 -0.00000000000E+00 -0.00000000000E+00 -0.45593999997E+02  0.45594000000E+02  0.51100000000E-03 0. -1.
    9900012    2    1    2    0    0  0.11034250407E+02 -0.11336216877E+02 -0.40414833471E+02  0.47787271209E+02  0.20000000748E+02 0.  0.
        -12    1    1    2    0    0 -0.11034250407E+02  0.11336216877E+02  0.40414833471E+02  0.43400728791E+02  0.00000000000E+00 0.  1.
         11    1    3    3    0    0 -0.10129035598E+01 -0.52633121341E+01 -0.13854895929E+02  0.14855523206E+02  0.51100000000E-03 0. -1.
        -11    1    3    3    0    0  0.10334156232E+01 -0.10250769452E+01  0.16679246438E+01  0.22137532546E+01  0.51100000000E-03 0.  1.
        -12    1    3    3    0    0  0.11013738343E+02 -0.50478277972E+01 -0.28227862186E+02  0.30717994748E+02  0.00000000000E+00 0.  1.
</event>
<event>
 7    1  0.2294216E-010  0.4778727E+02  0.7816164E-02  0.1312668E+00
        -11   -1    0    0    0    0  0.00000000000E+00  0.00000000000E+00  0.45593999997E+02  0.45594000000E+02  0.51100000000E-03 0. -1.
         11   -1    0    0    0    0 -0.00000000000E+00 -0.00000000000E+00 -0.45593999997E+02  0.45594000000E+02  0.51100000000E-03 0.  1.
    9900012    2    1    2    0    0  0.22402802942E+02 -0.32263269741E+02  0.18461279546E+02  0.47787274240E+02  0.20000014569E+02 0.  0.
        -12    1    1    2    0    0 -0.22402802942E+02  0.32263269741E+02 -0.18461279546E+02  0.43400725760E+02  0.00000000000E+00 0.  1.
         11    1    3    3    0    0  0.17307114124E+01  0.98505972424E+00  0.36031434801E+01  0.41168371176E+01  0.51100000000E-03 0. -1.
        -11    1    3    3    0    0  0.45236269838E+01 -0.21580377002E+01 -0.11658159743E+01  0.51458191720E+01  0.51100000000E-03 0.  1.
         12    1    3    3    0    0  0.16148464546E+02 -0.31090291765E+02  0.16023952040E+02  0.38524617950E+02  0.00000000000E+00 0. -1.
</event>
<event>
 7    1  0.2294216E-010  0.4778727E+02  0.7816164E-02  0.1312668E+00
        -11   -1    0    0    0    0  0.00000000000E+00  0.00000000000E+00  0.45593999997E+02  0.45594000000E+02  0.51100000000E-03 0.  1.
         11   -1    0    0    0    0 -0.00000000000E+00 -0.00000000000E+00 -0.45593999997E+02  0.45594000000E+02  0.51100000000E-03 0. -1.
    9900012    2    1    2    0    0 -0.33048189566E+02  0.98293899976E+01 -0.26359508955E+02  0.47787268973E+02  0.19999990555E+02 0.  0.
        -12    1    1    2    0    0  0.33048189566E+02 -0.98293899976E+01  0.26359508955E+02  0.43400731027E+02  0.00000000000E+00 0.  1.
         11    1    3    3    0    0 -0.15421507543E+02 -0.11136975254E+01 -0.27757391310E+01  0.15708849260E+02  0.51100000000E-03 0. -1.
        -11    1    3    3    0    0  0.22717708499E+00  0.13729694539E+01 -0.23552271425E+01  0.27356442939E+01  0.51100000000E-03 0.  1.
         12    1    3    3    0    0 -0.17853859108E+02  0.95701180691E+01 -0.21228542682E+02  0.29342775419E+02  0.00000000000E+00 0. -1.
</event>
<event>
 7    1  0.2294216E-010  0.4778726E+02  0.7816164E-02  0.1312668E+00
        -11   -1    0    0    0    0  0.00000000000E+00  0.00000000000E+00  0.45593999997E+02  0.45594000000E+02  0.51100000000E-03 0.  1.
         11   -1    0    0    0    0 -0.00000000000E+00 -0.00000000000E+00 -0.45593999997E+02  0.45594000000E+02  0.51100000000E-03 0. -1.
    9900012    2    1    2    0    0  0.18405691631E+02 -0.38508851202E+02 -0.78691104928E+01  0.47787262619E+02  0.19999961584E+02 0.  0.
        -12    1    1    2    0    0 -0.18405691631E+02  0.38508851202E+02  0.78691104928E+01  0.43400737381E+02  0.00000000000E+00 0.  1.
         11    1    3    3    0    0  0.20552312270E+01 -0.15518537511E+02 -0.62658689483E+01  0.16861497437E+02  0.51100000000E-03 0. -1.
        -11    1    3    3    0    0 -0.10600676756E+01 -0.67733595840E+00 -0.22930960749E+01  0.26154956217E+01  0.51100000000E-03 0.  1.
        -12    1    3    3    0    0  0.17410528080E+02 -0.22312977732E+02  0.68985453040E+00  0.28310269560E+02  0.00000000000E+00 0.  1.
</event>
<event>
 7    1  0.2294216E-010  0.4778727E+02  0.7816164E-02  0.1312668E+00
        -11   -1    0    0    0    0  0.00000000000E+00  0.00000000000E+00  0.45593999997E+02  0.45594000000E+02  0.51100000000E-03 0.  1.
         11   -1    0    0    0    0 -0.00000000000E+00 -0.00000000000E+00 -0.45593999997E+02  0.45594000000E+02  0.51100000000E-03 0. -1.
    9900012    2    1    2    0    0  0.61151626239E+01 -0.76382249682E+01 -0.42283392068E+02  0.47787274898E+02  0.20000017572E+02 0.  0.
        -12    1    1    2    0    0 -0.61151626239E+01  0.76382249682E+01  0.42283392068E+02  0.43400725102E+02  0.00000000000E+00 0.  1.
         11    1    3    3    0    0 -0.35303903317E+01  0.72003703118E+00 -0.92257434962E+01  0.99043653274E+01  0.51100000000E-03 0. -1.
        -11    1    3    3    0    0  0.81821135311E-01  0.32656426503E+01 -0.40587728203E+01  0.52100627334E+01  0.51100000000E-03 0.  1.
        -12    1    3    3    0    0  0.95637318203E+01 -0.11623904650E+02 -0.28998875751E+02  0.32672846838E+02  0.00000000000E+00 0.  1.
</event>
<event>
 7    1  0.2294216E-010  0.4778727E+02  0.7816164E-02  0.1312668E+00
        -11   -1    0    0    0    0  0.00000000000E+00  0.00000000000E+00  0.45593999997E+02  0.45594000000E+02  0.51100000000E-03 0.  1.
         11   -1    0    0    0    0 -0.00000000000E+00 -0.00000000000E+00 -0.45593999997E+02  0.45594000000E+02  0.51100000000E-03 0. -1.
    9900012    2    1    2    0    0 -0.17135260320E+02  0.27302652832E+01 -0.39781302604E+02  0.47787268075E+02  0.19999986462E+02 0.  0.
        -12    1    1    2    0    0  0.17135260320E+02 -0.27302652832E+01  0.39781302604E+02  0.43400731925E+02  0.00000000000E+00 0.  1.
         11    1    3    3    0    0 -0.83612472002E+01  0.57734350667E+01 -0.27809351182E+02  0.29607482511E+02  0.51100000000E-03 0. -1.
        -11    1    3    3    0    0  0.16902968190E+01 -0.14490793278E+01 -0.50862759341E+01  0.55522191396E+01  0.51100000000E-03 0.  1.
        -12    1    3    3    0    0 -0.10464309939E+02 -0.15940904556E+01 -0.68856754870E+01  0.12627566424E+02  0.00000000000E+00 0.  1.
</event>
<event>
 7    1  0.2294216E-010  0.4778726E+02  0.7816164E-02  0.1312668E+00
        -11   -1    0    0    0    0  0.00000000000E+00  0.00000000000E+00  0.45593999997E+02  0.45594000000E+02  0.51100000000E-03 0. -1.
         11   -1    0    0    0    0 -0.00000000000E+00 -0.00000000000E+00 -0.45593999997E+02  0.45594000000E+02  0.51100000000E-03 0.  1.
    9900012    2    1    2    0    0  0.30266214309E+02 -0.72349245735E+01  0.30252873031E+02  0.47787260504E+02  0.19999951942E+02 0.  0.
        -12    1    1    2    0    0 -0.30266214309E+02  0.72349245735E+01 -0.30252873031E+02  0.43400739496E+02  0.00000000000E+00 0.  1.
         11    1    3    3    0    0  0.95954729596E+01 -0.45018278993E+01  0.31962453891E+01  0.11070480595E+02  0.51100000000E-03 0.  1.
        -11    1    3    3    0    0 -0.18297326404E+01  0.43028972055E+00  0.35906399371E+01  0.40528713522E+01  0.51100000000E-03 0. -1.
         12    1    3    3    0    0  0.22500473989E+02 -0.31633863948E+01  0.23465987705E+02  0.32663908557E+02  0.00000000000E+00 0. -1.
</event>
<event>
 7    1  0.2294216E-010  0.4778727E+02  0.7816164E-02  0.1312668E+00
        -11   -1    0    0    0    0  0.00000000000E+00  0.00000000000E+00  0.45593999997E+02  0.45594000000E+02  0.51100000000E-03 0.  1.
         11   -1    0    0    0    0 -0.00000000000E+00 -0.00000000000E+00 -0.45593999997E+02  0.45594000000E+02  0.51100000000E-03 0. -1.
    9900012    2    1    2    0    0 -0.32481436650E+02 -0.20620268963E+02 -0.20084424407E+02  0.47787270482E+02  0.19999997434E+02 0.  0.
        -12    1    1    2    0    0  0.32481436650E+02  0.20620268963E+02  0.20084424407E+02  0.43400729518E+02  0.00000000000E+00 0.  1.
         11    1    3    3    0    0 -0.69873975450E+01  0.23854648314E+01 -0.88275116184E+01  0.11508220043E+02  0.51100000000E-03 0. -1.
        -11    1    3    3    0    0 -0.11470003796E+01 -0.61814582610E+00  0.10343595565E+00  0.13070628872E+01  0.51100000000E-03 0.  1.
         12    1    3    3    0    0 -0.24347038726E+02 -0.22387587968E+02 -0.11360348744E+02  0.34971987552E+02  0.00000000000E+00 0. -1.
</event>
<event>
 7    1  0.2294216E-010  0.4778727E+02  0.7816164E-02  0.1312668E+00
        -11   -1    0    0    0    0  0.00000000000E+00  0.00000000000E+00  0.45593999997E+02  0.45594000000E+02  0.51100000000E-03 0. -1.
         11   -1    0    0    0    0 -0.00000000000E+00 -0.00000000000E+00 -0.45593999997E+02  0.45594000000E+02  0.51100000000E-03 0.  1.
    9900012    2    1    2    0    0 -0.11057711627E+02  0.67616665302E+01  0.41420164974E+02  0.47787272044E+02  0.20000004555E+02 0.  0.
        -12    1    1    2    0    0  0.11057711627E+02 -0.67616665302E+01 -0.41420164974E+02  0.43400727956E+02  0.00000000000E+00 0.  1.
         11    1    3    3    0    0 -0.42857568074E+01  0.70608038697E+01  0.71210059863E+01  0.10905566891E+02  0.51100000000E-03 0. -1.
        -11    1    3    3    0    0 -0.76869191281E+01  0.42710173495E+01  0.24505330550E+02  0.26035390154E+02  0.51100000000E-03 0.  1.
        -12    1    3    3    0    0  0.91496430869E+00 -0.45701546889E+01  0.97938284381E+01  0.10846314998E+02  0.00000000000E+00 0.  1.
</event>
<event>
 7    1  0.2294216E-010  0.4778728E+02  0.7816164E-02  0.1312668E+00
        -11   -1    0    0    0    0  0.00000000000E+00  0.00000000000E+00  0.45593999997E+02  0.45594000000E+02  0.51100000000E-03 0.  1.
         11   -1    0    0    0    0 -0.00000000000E+00 -0.00000000000E+00 -0.45593999997E+02  0.45594000000E+02  0.51100000000E-03 0. -1.
    9900012    2    1    2    0    0 -0.31323564746E+02 -0.15940768123E+02 -0.25462689537E+02  0.47787281628E+02  0.20000048255E+02 0.  0.
        -12    1    1    2    0    0  0.31323564746E+02  0.15940768123E+02  0.25462689537E+02  0.43400718372E+02  0.00000000000E+00 0.  1.
         11    1    3    3    0    0  0.74611127461E+00  0.11013423330E+01 -0.86861957324E+00  0.15887533455E+01  0.51100000000E-03 0. -1.
        -11    1    3    3    0    0 -0.28929446044E+01 -0.77618301601E+01 -0.72625039724E+01  0.11016310641E+02  0.51100000000E-03 0.  1.
         12    1    3    3    0    0 -0.29176731416E+02 -0.92802802962E+01 -0.17331565991E+02  0.35182217642E+02  0.00000000000E+00 0. -1.
</event>
<event>
 7    1  0.2294216E-010  0.4778727E+02  0.7816164E-02  0.1312668E+00
        -11   -1    0    0    0    0  0.00000000000E+00  0.00000000000E+00  0.45593999997E+02  0.45594000000E+02  0.51100000000E-03 0. -1.
         11   -1    0    0    0    0 -0.00000000000E+00 -0.00000000000E+00 -0.45593999997E+02  0.45594000000E+02  0.51100000000E-03 0.  1.
    9900012    2    1    2    0    0  0.36588202836E+02 -0.22310676627E+02 -0.68673291068E+01  0.47787273193E+02  0.20000009797E+02 0.  0.
        -12    1    1    2    0    0 -0.36588202836E+02  0.22310676627E+02  0.68673291068E+01  0.43400726807E+02  0.00000000000E+00 0.  1.
         11    1    3    3    0    0  0.13500151356E+02 -0.23117051946E+01 -0.51600470846E+01  0.14636398250E+02  0.51100000000E-03 0. -1.
        -11    1    3    3    0    0  0.89645316872E+00 -0.13900656227E+00 -0.32066855327E+01  0.33325340921E+01  0.51100000000E-03 0.  1.
         12    1    3    3    0    0  0.22191598311E+02 -0.19859964870E+02  0.14994035106E+01  0.29818340851E+02  0.00000000000E+00 0. -1.
</event>
<event>
 7    1  0.2294216E-010  0.4778726E+02  0.7816164E-02  0.1312668E+00
        -11   -1    0    0    0    0  0.00000000000E+00  0.00000000000E+00  0.45593999997E+02  0.45594000000E+02  0.51100000000E-03 0. -1.
         11   -1    0    0    0    0 -0.00000000000E+00 -0.00000000000E+00 -0.45593999997E+02  0.45594000000E+02  0.51100000000E-03 0.  1.
    9900012    2    1    2    0    0  0.18052678842E+02  0.39425483544E+02 -0.18318988297E+01  0.47787264760E+02  0.19999971346E+02 0.  0.
        -12    1    1    2    0    0 -0.18052678842E+02 -0.39425483544E+02  0.18318988297E+01  0.43400735240E+02  0.00000000000E+00 0.  1.
         11    1    3    3    0    0  0.65227104969E+01  0.46719838560E+01  0.54211275172E+00  0.80415839157E+01  0.51100000000E-03 0. -1.
        -11    1    3    3    0    0 -0.37823179797E+01  0.76165642502E+01 -0.11183866591E+00  0.85047332954E+01  0.51100000000E-03 0.  1.
        -12    1    3    3    0    0  0.15312286325E+02  0.27136935438E+02 -0.22621729155E+01  0.31240947549E+02  0.00000000000E+00 0.  1.
</event>
<event>
 7    1  0.2294216E-010  0.4778727E+02  0.7816164E-02  0.1312668E+00
        -11   -1    0    0    0    0  0.00000000000E+00  0.00000000000E+00  0.45593999997E+02  0.45594000000E+02  0.51100000000E-03 0.  1.
         11   -1    0    0    0    0 -0.00000000000E+00 -0.00000000000E+00 -0.45593999997E+02  0.45594000000E+02  0.51100000000E-03 0. -1.
    9900012    2    1    2    0    0 -0.18007047922E+02  0.25203996872E+02 -0.30399473002E+02  0.47787271988E+02  0.20000004300E+02 0.  0.
        -12    1    1    2    0    0  0.18007047922E+02 -0.25203996872E+02  0.30399473002E+02  0.43400728012E+02  0.00000000000E+00 0.  1.
         11    1    3    3    0    0 -0.72223045332E+01  0.63981922863E+01 -0.21714031341E+02  0.23761264795E+02  0.51100000000E-03 0. -1.
        -11    1    3    3    0    0 -0.30345185396E+01  0.10891790875E+02 -0.39103354654E+01  0.11963700721E+02  0.51100000000E-03 0.  1.
        -12    1    3    3    0    0 -0.77502248497E+01  0.79140137113E+01 -0.47751061951E+01  0.12062306472E+02  0.00000000000E+00 0.  1.
</event>
<event>
 7    1  0.2294216E-010  0.4778727E+02  0.7816164E-02  0.1312668E+00
        -11   -1    0    0    0    0  0.00000000000E+00  0.00000000000E+00  0.45593999997E+02  0.45594000000E+02  0.51100000000E-03 0.  1.
         11   -1    0    0    0    0 -0.00000000000E+00 -0.00000000000E+00 -0.45593999997E+02  0.45594000000E+02  0.51100000000E-03 0. -1.
    9900012    2    1    2    0    0  0.48760866604E+01  0.43055013599E+02 -0.24724061767E+01  0.47787271787E+02  0.20000003386E+02 0.  0.
        -12    1    1    2    0    0 -0.48760866604E+01 -0.43055013599E+02  0.24724061767E+01  0.43400728213E+02  0.00000000000E+00 0.  1.
         11    1    3    3    0    0 -0.12771815203E+01  0.13260713230E+02 -0.52403146423E+01  0.14315676925E+02  0.51100000000E-03 0. -1.
        -11    1    3    3    0    0  0.70005372306E+01  0.14697418531E+02 -0.42151889648E+01  0.16816344765E+02  0.51100000000E-03 0.  1.
        -12    1    3    3    0    0 -0.84726904994E+00  0.15096881838E+02  0.69830974304E+01  0.16655250097E+02  0.00000000000E+00 0.  1.
</event>
<event>
 7    1  0.2294216E-010  0.4778728E+02  0.7816164E-02  0.1312668E+00
        -11   -1    0    0    0    0  0.00000000000E+00  0.00000000000E+00  0.45593999997E+02  0.45594000000E+02  0.51100000000E-03 0.  1.
         11   -1    0    0    0    0 -0.00000000000E+00 -0.00000000000E+00 -0.45593999997E+02  0.45594000000E+02  0.51100000000E-03 0. -1.
    9900012    2    1    2    0    0  0.16382398374E+02  0.25697188406E+02 -0.30901366014E+02  0.47787275467E+02  0.20000020162E+02 0.  0.
        -12    1    1    2    0    0 -0.16382398374E+02 -0.25697188406E+02  0.30901366014E+02  0.43400724533E+02  0.00000000000E+00 0.  1.
         11    1    3    3    0    0  0.11558569951E+02  0.13634280893E+02 -0.15082148671E+02  0.23387290642E+02  0.51100000000E-03 0. -1.
        -11    1    3    3    0    0  0.77425864462E+01  0.38636219333E+01 -0.35399488141E+01  0.93491420563E+01  0.51100000000E-03 0.  1.
         12    1    3    3    0    0 -0.29187580231E+01  0.81992855801E+01 -0.12279268530E+02  0.15050842769E+02  0.00000000000E+00 0. -1.
</event>
<event>
 7    1  0.2294216E-010  0.4778727E+02  0.7816164E-02  0.1312668E+00
        -11   -1    0    0    0    0  0.00000000000E+00  0.00000000000E+00  0.45593999997E+02  0.45594000000E+02  0.51100000000E-03 0.  1.
         11   -1    0    0    0    0 -0.00000000000E+00 -0.00000000000E+00 -0.45593999997E+02  0.45594000000E+02  0.51100000000E-03 0. -1.
    9900012    2    1    2    0    0  0.69666762909E+01 -0.38559409600E+02 -0.18661736573E+02  0.47787273518E+02  0.20000011279E+02 0.  0.
        -12    1    1    2    0    0 -0.69666762909E+01  0.38559409600E+02  0.18661736573E+02  0.43400726482E+02  0.00000000000E+00 0.  1.
         11    1    3    3    0    0  0.72200549720E+01 -0.10830916824E+02 -0.25440241960E+01  0.13263107193E+02  0.51100000000E-03 0. -1.
        -11    1    3    3    0    0 -0.35703574085E+01 -0.12031330081E+02 -0.11838960808E+01  0.12605632302E+02  0.51100000000E-03 0.  1.
        -12    1    3    3    0    0  0.33169787274E+01 -0.15697162695E+02 -0.14933816296E+02  0.21918534023E+02  0.00000000000E+00 0.  1.
</event>
<event>
 7    1  0.2294216E-010  0.4778727E+02  0.7816164E-02  0.1312668E+00
        -11   -1    0    0    0    0  0.00000000000E+00  0.00000000000E+00  0.45593999997E+02  0.45594000000E+02  0.51100000000E-03 0. -1.
         11   -1    0    0    0    0 -0.00000000000E+00 -0.00000000000E+00 -0.45593999997E+02  0.45594000000E+02  0.51100000000E-03 0.  1.
    9900012    2    1    2    0    0 -0.31916788521E+02  0.32899813246E+01  0.29225299654E+02  0.47787268365E+02  0.19999987782E+02 0.  0.
        -12    1    1    2    0    0  0.31916788521E+02 -0.32899813246E+01 -0.29225299654E+02  0.43400731635E+02  0.00000000000E+00 0.  1.
         11    1    3    3    0    0 -0.16804040606E+02 -0.80594522289E+01  0.11941554873E+02  0.22134391430E+02  0.51100000000E-03 0. -1.
        -11    1    3    3    0    0 -0.38863677667E+01  0.22259131603E+01  0.37122600155E+01  0.58171658476E+01  0.51100000000E-03 0.  1.
         12    1    3    3    0    0 -0.11226380149E+02  0.91235203932E+01  0.13571484765E+02  0.19835711088E+02  0.00000000000E+00 0. -1.
</event>
<event>
 7    1  0.2294216E-010  0.4778727E+02  0.7816164E-02  0.1312668E+00
        -11   -1    0    0    0    0  0.00000000000E+00  0.00000000000E+00  0.45593999997E+02  0.45594000000E+02  0.51100000000E-03 0.  1.
         11   -1    0    0    0    0 -0.00000000000E+00 -0.00000000000E+00 -0.45593999997E+02  0.45594000000E+02  0.51100000000E-03 0. -1.
    9900012    2    1    2    0    0  0.32215002760E+02  0.28469767642E+02 -0.59404986437E+01  0.47787267327E+02  0.19999983050E+02 0.  0.
        -12    1    1    2    0    0 -0.32215002760E+02 -0.28469767642E+02  0.59404986437E+01  0.43400732673E+02  0.00000000000E+00 0.  1.
         11    1    3    3    0    0  0.34570654740E+02  0.24619616143E+02 -0.52647698365E+01  0.42766499387E+02  0.51100000000E-03 0. -1.
        -11    1    3    3    0    0 -0.88899211839E+00  0.10982831116E+01  0.74124643994E+00  0.15956125237E+01  0.51100000000E-03 0.  1.
         12    1    3    3    0    0 -0.14666598613E+01  0.27518683877E+01 -0.14169752472E+01  0.34251554159E+01  0.00000000000E+00 0. -1.
</event>
<event>
 7    1  0.2294216E-010  0.4778727E+02  0.7816164E-02  0.1312668E+00
        -11   -1    0    0    0    0  0.00000000000E+00  0.00000000000E+00  0.45593999997E+02  0.45594000000E+02  0.51100000000E-03 0.  1.
         11   -1    0    0    0    0 -0.00000000000E+00 -0.00000000000E+00 -0.45593999997E+02  0.45594000000E+02  0.51100000000E-03 0. -1.
    9900012    2    1    2    0    0  0.26011797460E+02  0.34346248916E+02  0.52292635704E+01  0.47787267066E+02  0.19999981861E+02 0.  0.
        -12    1    1    2    0    0 -0.26011797460E+02 -0.34346248916E+02 -0.52292635704E+01  0.43400732934E+02  0.00000000000E+00 0.  1.
         11    1    3    3    0    0 -0.40495681258E+00  0.40614035015E+01 -0.47307401381E+01  0.62481109896E+01  0.51100000000E-03 0.  1.
        -11    1    3    3    0    0  0.11061442961E+02  0.14363361355E+02  0.31974151737E+01  0.18408833038E+02  0.51100000000E-03 0. -1.
        -12    1    3    3    0    0  0.15355311312E+02  0.15921484060E+02  0.67625885348E+01  0.23130323038E+02  0.00000000000E+00 0.  1.
</event>
<event>
 7    1  0.2294216E-010  0.4778727E+02  0.7816164E-02  0.1312668E+00
        -11   -1    0    0    0    0  0.00000000000E+00  0.00000000000E+00  0.45593999997E+02  0.45594000000E+02  0.51100000000E-03 0.  1.
         11   -1    0    0    0    0 -0.00000000000E+00 -0.00000000000E+00 -0.45593999997E+02  0.45594000000E+02  0.51100000000E-03 0. -1.
    9900012    2    1    2    0    0 -0.46662687720E+01 -0.32271246164E+02 -0.28642907059E+02  0.47787268232E+02  0.19999987176E+02 0.  0.
        -12    1    1    2    0    0  0.46662687720E+01  0.32271246164E+02  0.28642907059E+02  0.43400731768E+02  0.00000000000E+00 0.  1.
         11    1    3    3    0    0 -0.26255097373E+01 -0.12856040559E+02 -0.49370333307E+01  0.14019464277E+02  0.51100000000E-03 0. -1.
        -11    1    3    3    0    0 -0.29940975370E+01 -0.81925380240E+01 -0.14747246987E+01  0.88463050215E+01  0.51100000000E-03 0.  1.
         12    1    3    3    0    0  0.95333850226E+00 -0.11222667581E+02 -0.22231149029E+02  0.24921498934E+02  0.00000000000E+00 0. -1.
</event>
<event>
 7    1  0.2294216E-010  0.4778727E+02  0.7816164E-02  0.1312668E+00
        -11   -1    0    0    0    0  0.00000000000E+00  0.00000000000E+00  0.45593999997E+02  0.45594000000E+02  0.51100000000E-03 0.  1.
         11   -1    0    0    0    0 -0.00000000000E+00 -0.00000000000E+00 -0.45593999997E+02  0.45594000000E+02  0.51100000000E-03 0. -1.
    9900012    2    1    2    0    0  0.10937125590E+02 -0.40803537376E+02  0.99536074726E+01  0.47787266362E+02  0.19999978652E+02 0.  0.
        -12    1    1    2    0    0 -0.10937125590E+02  0.40803537376E+02 -0.99536074726E+01  0.43400733638E+02  0.00000000000E+00 0.  1.
         11    1    3    3    0    0  0.42126119187E+01 -0.19622184238E+02  0.10932661804E+01  0.20099040889E+02  0.51100000000E-03 0. -1.
        -11    1    3    3    0    0  0.40584480129E+01 -0.15659995533E+02 -0.85499783365E+00  0.16199922281E+02  0.51100000000E-03 0.  1.
         12    1    3    3    0    0  0.26660656587E+01 -0.55213576051E+01  0.97153391258E+01  0.11488303192E+02  0.00000000000E+00 0. -1.
</event>
<event>
 7    1  0.2294216E-010  0.4778727E+02  0.7816164E-02  0.1312668E+00
        -11   -1    0    0    0    0  0.00000000000E+00  0.00000000000E+00  0.45593999997E+02  0.45594000000E+02  0.51100000000E-03 0.  1.
         11   -1    0    0    0    0 -0.00000000000E+00 -0.00000000000E+00 -0.45593999997E+02  0.45594000000E+02  0.51100000000E-03 0. -1.
    9900012    2    1    2    0    0  0.23538301622E+02 -0.13165580617E+02 -0.34003512765E+02  0.47787273778E+02  0.20000012463E+02 0.  0.
        -12    1    1    2    0    0 -0.23538301622E+02  0.13165580617E+02  0.34003512765E+02  0.43400726222E+02  0.00000000000E+00 0.  1.
         11    1    3    3    0    0  0.67986541840E+00  0.19583700774E+01 -0.20607323012E+01  0.29230203943E+01  0.51100000000E-03 0. -1.
        -11    1    3    3    0    0  0.16096726270E+02 -0.10819258871E+02 -0.10680492467E+02  0.22141225774E+02  0.51100000000E-03 0.  1.
         12    1    3    3    0    0  0.67617099336E+01 -0.43046918227E+01 -0.21262287997E+02  0.22723027610E+02  0.00000000000E+00 0. -1.
</event>
<event>
 7    1  0.2294216E-010  0.4778728E+02  0.7816164E-02  0.1312668E+00
        -11   -1    0    0    0    0  0.00000000000E+00  0.00000000000E+00  0.45593999997E+02  0.45594000000E+02  0.51100000000E-03 0. -1.
         11   -1    0    0    0    0 -0.00000000000E+00 -0.00000000000E+00 -0.45593999997E+02  0.45594000000E+02  0.51100000000E-03 0.  1.
    9900012    2    1    2    0    0 -0.30372983543E+01 -0.54459376789E+01  0.42950427891E+02  0.47787277950E+02  0.20000031484E+02 0.  0.
        -12    1    1    2    0    0  0.30372983543E+01  0.54459376789E+01 -0.42950427891E+02  0.43400722050E+02  0.00000000000E+00 0.  1.
         11    1    3    3    0    0  0.77957283106E+00 -0.33473739052E+01  0.30313699626E+01  0.45827775390E+01  0.51100000000E-03 0.  1.
        -11    1    3    3    0    0  0.24207891056E+00 -0.42095193944E+01  0.38016494825E+02  0.38249608295E+02  0.51100000000E-03 0. -1.
        -12    1    3    3    0    0 -0.40589500959E+01  0.21109556207E+01  0.19025631032E+01  0.49548921154E+01  0.00000000000E+00 0.  1.
</event>
<event>
 7    1  0.2294216E-010  0.4778727E+02  0.7816164E-02  0.1312668E+00
        -11   -1    0    0    0    0  0.00000000000E+00  0.00000000000E+00  0.45593999997E+02  0.45594000000E+02  0.51100000000E-03 0. -1.
         11   -1    0    0    0    0 -0.00000000000E+00 -0.00000000000E+00 -0.45593999997E+02  0.45594000000E+02  0.51100000000E-03 0.  1.
    9900012    2    1    2    0    0  0.19032402028E+02 -0.33910477887E+02 -0.19273572329E+02  0.47787269272E+02  0.19999991917E+02 0.  0.
        -12    1    1    2    0    0 -0.19032402028E+02  0.33910477887E+02  0.19273572329E+02  0.43400730728E+02  0.00000000000E+00 0.  1.
         11    1    3    3    0    0  0.36949740150E+01 -0.85103018591E+01 -0.51685856379E+01  0.10620374215E+02  0.51100000000E-03 0. -1.
        -11    1    3    3    0    0  0.64078404003E+01 -0.42246967759E+01 -0.11791608634E+02  0.14069488828E+02  0.51100000000E-03 0.  1.
        -12    1    3    3    0    0  0.89295876127E+01 -0.21175479252E+02 -0.23133780569E+01  0.23097406229E+02  0.00000000000E+00 0.  1.
</event>
<event>
 7    1  0.2294216E-010  0.4778726E+02  0.7816164E-02  0.1312668E+00
        -11   -1    0    0    0    0  0.00000000000E+00  0.00000000000E+00  0.45593999997E+02  0.45594000000E+02  0.51100000000E-03 0.  1.
         11   -1    0    0    0    0 -0.00000000000E+00 -0.00000000000E+00 -0.45593999997E+02  0.45594000000E+02  0.51100000000E-03 0. -1.
    9900012    2    1    2    0    0  0.36076584808E+01  0.30486002943E+02 -0.30679186904E+02  0.47787261709E+02  0.19999957434E+02 0.  0.
        -12    1    1    2    0    0 -0.36076584808E+01 -0.30486002943E+02  0.30679186904E+02  0.43400738291E+02  0.00000000000E+00 0.  1.
         11    1    3    3    0    0  0.17666005852E+01  0.23595629284E+02 -0.24646230709E+02  0.34165937531E+02  0.51100000000E-03 0. -1.
        -11    1    3    3    0    0  0.76122571730E+00  0.40604567616E+01 -0.86708703934E+01  0.96047263025E+01  0.51100000000E-03 0.  1.
        -12    1    3    3    0    0  0.10798321783E+01  0.28299168967E+01  0.26379141978E+01  0.40165978752E+01  0.00000000000E+00 0.  1.
</event>
<event>
 7    1  0.2294216E-010  0.4778728E+02  0.7816164E-02  0.1312668E+00
        -11   -1    0    0    0    0  0.00000000000E+00  0.00000000000E+00  0.45593999997E+02  0.45594000000E+02  0.51100000000E-03 0. -1.
         11   -1    0    0    0    0 -0.00000000000E+00 -0.00000000000E+00 -0.45593999997E+02  0.45594000000E+02  0.51100000000E-03 0.  1.
    9900012    2    1    2    0    0 -0.17293363182E+02  0.27116877493E+02 -0.29141679042E+02  0.47787275208E+02  0.20000018982E+02 0.  0.
        -12    1    1    2    0    0  0.17293363182E+02 -0.27116877493E+02  0.29141679042E+02  0.43400724792E+02  0.00000000000E+00 0.  1.
         11    1    3    3    0    0  0.17939700858E+01  0.99904291443E-01 -0.14728706419E+01  0.23232859758E+01  0.51100000000E-03 0. -1.
        -11    1    3    3    0    0  0.23186989206E+01  0.24738717606E+01 -0.37621700737E+01  0.50646154935E+01  0.51100000000E-03 0.  1.
        -12    1    3    3    0    0 -0.21406032189E+02  0.24543101441E+02 -0.23906638326E+02  0.40399373738E+02  0.00000000000E+00 0.  1.
</event>
<event>
 7    1  0.2294216E-010  0.4778727E+02  0.7816164E-02  0.1312668E+00
        -11   -1    0    0    0    0  0.00000000000E+00  0.00000000000E+00  0.45593999997E+02  0.45594000000E+02  0.51100000000E-03 0.  1.
         11   -1    0    0    0    0 -0.00000000000E+00 -0.00000000000E+00 -0.45593999997E+02  0.45594000000E+02  0.51100000000E-03 0. -1.
    9900012    2    1    2    0    0  0.28946834690E+02 -0.40145218539E+01 -0.32087187427E+02  0.47787271651E+02  0.20000002765E+02 0.  0.
        -12    1    1    2    0    0 -0.28946834690E+02  0.40145218539E+01  0.32087187427E+02  0.43400728349E+02  0.00000000000E+00 0.  1.
         11    1    3    3    0    0  0.12232157171E+02  0.30428492172E+01 -0.14202356363E+02  0.18989247666E+02  0.51100000000E-03 0. -1.
        -11    1    3    3    0    0 -0.20720961343E+00  0.29049596993E+01 -0.27517510199E+01  0.40067269205E+01  0.51100000000E-03 0.  1.
         12    1    3    3    0    0  0.16921887133E+02 -0.99623307704E+01 -0.15133080044E+02  0.24791297064E+02  0.00000000000E+00 0. -1.
</event>
<event>
 7    1  0.2294216E-010  0.4778727E+02  0.7816164E-02  0.1312668E+00
        -11   -1    0    0    0    0  0.00000000000E+00  0.00000000000E+00  0.45593999997E+02  0.45594000000E+02  0.51100000000E-03 0. -1.
         11   -1    0    0    0    0 -0.00000000000E+00 -0.00000000000E+00 -0.45593999997E+02  0.45594000000E+02  0.51100000000E-03 0.  1.
    9900012    2    1    2    0    0 -0.35751262377E+02  0.82915735279E+01  0.23167221970E+02  0.47787272737E+02  0.20000007718E+02 0.  0.
        -12    1    1    2    0    0  0.35751262377E+02 -0.82915735279E+01 -0.23167221970E+02  0.43400727263E+02  0.00000000000E+00 0.  1.
         11    1    3    3    0    0 -0.21892787846E+01 -0.65968276118E+00 -0.88956162815E+00  0.24534553376E+01  0.51100000000E-03 0. -1.
        -11    1    3    3    0    0  0.85641259884E+00  0.37463123756E+00  0.49631868243E+01  0.50504469918E+01  0.51100000000E-03 0.  1.
         12    1    3    3    0    0 -0.34418396191E+02  0.85766250515E+01  0.19093596774E+02  0.40283370408E+02  0.00000000000E+00 0. -1.
</event>
<event>
 7    1  0.2294216E-010  0.4778727E+02  0.7816164E-02  0.1312668E+00
        -11   -1    0    0    0    0  0.00000000000E+00  0.00000000000E+00  0.45593999997E+02  0.45594000000E+02  0.51100000000E-03 0.  1.
         11   -1    0    0    0    0 -0.00000000000E+00 -0.00000000000E+00 -0.45593999997E+02  0.45594000000E+02  0.51100000000E-03 0. -1.
    9900012    2    1    2    0    0 -0.17797891139E+02  0.16719805094E+02 -0.35879054350E+02  0.47787270140E+02  0.19999995876E+02 0.  0.
        -12    1    1    2    0    0  0.17797891139E+02 -0.16719805094E+02  0.35879054350E+02  0.43400729860E+02  0.00000000000E+00 0.  1.
         11    1    3    3    0    0 -0.56207458718E+01 -0.14098434809E+01 -0.17815651433E+02  0.18734403622E+02  0.51100000000E-03 0. -1.
        -11    1    3    3    0    0 -0.44528460621E+01  0.22417649830E+01 -0.28725219114E+01  0.57536710616E+01  0.51100000000E-03 0.  1.
        -12    1    3    3    0    0 -0.77242992055E+01  0.15887883591E+02 -0.15190881005E+02  0.23299195457E+02  0.00000000000E+00 0.  1.
</event>
<event>
 7    1  0.2294216E-010  0.4778727E+02  0.7816164E-02  0.1312668E+00
        -11   -1    0    0    0    0  0.00000000000E+00  0.00000000000E+00  0.45593999997E+02  0.45594000000E+02  0.51100000000E-03 0.  1.
         11   -1    0    0    0    0 -0.00000000000E+00 -0.00000000000E+00 -0.45593999997E+02  0.45594000000E+02  0.51100000000E-03 0. -1.
    9900012    2    1    2    0    0 -0.12651237818E+02 -0.23585105363E+02 -0.34165949705E+02  0.47787272673E+02  0.20000007424E+02 0.  0.
        -12    1    1    2    0    0  0.12651237818E+02  0.23585105363E+02  0.34165949705E+02  0.43400727327E+02  0.00000000000E+00 0.  1.
         11    1    3    3    0    0 -0.65674991884E+00 -0.48127836805E+01 -0.11371552115E+01  0.49887202214E+01  0.51100000000E-03 0. -1.
        -11    1    3    3    0    0 -0.13601642272E+01  0.23542163533E+00  0.14592780593E+01  0.20087216797E+01  0.51100000000E-03 0.  1.
         12    1    3    3    0    0 -0.10634323672E+02 -0.19007743318E+02 -0.34488072552E+02  0.40789830772E+02  0.00000000000E+00 0. -1.
</event>
<event>
 7    1  0.2294216E-010  0.4778727E+02  0.7816164E-02  0.1312668E+00
        -11   -1    0    0    0    0  0.00000000000E+00  0.00000000000E+00  0.45593999997E+02  0.45594000000E+02  0.51100000000E-03 0.  1.
         11   -1    0    0    0    0 -0.00000000000E+00 -0.00000000000E+00 -0.45593999997E+02  0.45594000000E+02  0.51100000000E-03 0. -1.
    9900012    2    1    2    0    0  0.10380847619E+02 -0.36464669554E+02 -0.21123189315E+02  0.47787271321E+02  0.20000001262E+02 0.  0.
        -12    1    1    2    0    0 -0.10380847619E+02  0.36464669554E+02  0.21123189315E+02  0.43400728679E+02  0.00000000000E+00 0.  1.
         11    1    3    3    0    0  0.11456242685E+01 -0.28311067788E+02 -0.15242021168E+02  0.32173719459E+02  0.51100000000E-03 0.  1.
        -11    1    3    3    0    0 -0.42821670675E+00 -0.37277639545E+01 -0.81776940967E+00  0.38403568476E+01  0.51100000000E-03 0. -1.
        -12    1    3    3    0    0  0.96634400573E+01 -0.44258378114E+01 -0.50633987380E+01  0.11773195015E+02  0.00000000000E+00 0.  1.
</event>
<event>
 7    1  0.2294216E-010  0.4778727E+02  0.7816164E-02  0.1312668E+00
        -11   -1    0    0    0    0  0.00000000000E+00  0.00000000000E+00  0.45593999997E+02  0.45594000000E+02  0.51100000000E-03 0. -1.
         11   -1    0    0    0    0 -0.00000000000E+00 -0.00000000000E+00 -0.45593999997E+02  0.45594000000E+02  0.51100000000E-03 0.  1.
    9900012    2    1    2    0    0  0.26279091503E+02  0.34528554193E+02 -0.90102689802E+00  0.47787267813E+02  0.19999985267E+02 0.  0.
        -12    1    1    2    0    0 -0.26279091503E+02 -0.34528554193E+02  0.90102689802E+00  0.43400732187E+02  0.00000000000E+00 0.  1.
         11    1    3    3    0    0  0.58669480075E+01  0.16634031789E+02  0.58945834882E+00  0.17648216733E+02  0.51100000000E-03 0. -1.
        -11    1    3    3    0    0  0.27575762491E+01  0.10650926990E+02 -0.53832891131E-01  0.11002243896E+02  0.51100000000E-03 0.  1.
        -12    1    3    3    0    0  0.17654567246E+02  0.72435954154E+01 -0.14366523557E+01  0.19136807184E+02  0.00000000000E+00 0.  1.
</event>
<event>
 7    1  0.2294216E-010  0.4778727E+02  0.7816164E-02  0.1312668E+00
        -11   -1    0    0    0    0  0.00000000000E+00  0.00000000000E+00  0.45593999997E+02  0.45594000000E+02  0.51100000000E-03 0.  1.
         11   -1    0    0    0    0 -0.00000000000E+00 -0.00000000000E+00 -0.45593999997E+02  0.45594000000E+02  0.51100000000E-03 0. -1.
    9900012    2    1    2    0    0  0.93108995233E+01  0.19768911160E+02 -0.37498273062E+02  0.47787272114E+02  0.20000004877E+02 0.  0.
        -12    1    1    2    0    0 -0.93108995233E+01 -0.19768911160E+02  0.37498273062E+02  0.43400727886E+02  0.00000000000E+00 0.  1.
         11    1    3    3    0    0  0.31482482783E+01  0.66376472920E+01 -0.85990154500E+01  0.11309858344E+02  0.51100000000E-03 0. -1.
        -11    1    3    3    0    0  0.12028736174E+02  0.97286253753E+01 -0.19687968189E+02  0.25039024288E+02  0.51100000000E-03 0.  1.
        -12    1    3    3    0    0 -0.58660849285E+01  0.34026384922E+01 -0.92112894231E+01  0.11438389482E+02  0.00000000000E+00 0.  1.
</event>
<event>
 7    1  0.2294216E-010  0.4778727E+02  0.7816164E-02  0.1312668E+00
        -11   -1    0    0    0    0  0.00000000000E+00  0.00000000000E+00  0.45593999997E+02  0.45594000000E+02  0.51100000000E-03 0. -1.
         11   -1    0    0    0    0 -0.00000000000E+00 -0.00000000000E+00 -0.45593999997E+02  0.45594000000E+02  0.51100000000E-03 0.  1.
    9900012    2    1    2    0    0 -0.27246656648E+01  0.96090505998E+01  0.42235833246E+02  0.47787271130E+02  0.20000000391E+02 0.  0.
        -12    1    1    2    0    0  0.27246656648E+01 -0.96090505998E+01 -0.42235833246E+02  0.43400728870E+02  0.00000000000E+00 0.  1.
         11    1    3    3    0    0  0.39778318050E+01  0.65526932151E+00  0.27581690644E+01  0.48846720055E+01  0.51100000000E-03 0. -1.
        -11    1    3    3    0    0 -0.30883467168E+01  0.65924501932E+01  0.68679324825E+01  0.10008335618E+02  0.51100000000E-03 0.  1.
        -12    1    3    3    0    0 -0.36141507529E+01  0.23613310851E+01  0.32609731699E+02  0.32894263507E+02  0.00000000000E+00 0.  1.
</event>
<event>
 7    1  0.2294216E-010  0.4778728E+02  0.7816164E-02  0.1312668E+00
        -11   -1    0    0    0    0  0.00000000000E+00  0.00000000000E+00  0.45593999997E+02  0.45594000000E+02  0.51100000000E-03 0. -1.
         11   -1    0    0    0    0 -0.00000000000E+00 -0.00000000000E+00 -0.45593999997E+02  0.45594000000E+02  0.51100000000E-03 0.  1.
    9900012    2    1    2    0    0 -0.81413614567E+00 -0.38185934942E+02  0.20610536933E+02  0.47787277913E+02  0.20000031315E+02 0.  0.
        -12    1    1    2    0    0  0.81413614567E+00  0.38185934942E+02 -0.20610536933E+02  0.43400722087E+02  0.00000000000E+00 0.  1.
         11    1    3    3    0    0 -0.54980949543E+01 -0.12698898408E+02  0.39504600338E+01  0.14390872234E+02  0.51100000000E-03 0. -1.
        -11    1    3    3    0    0  0.18636549787E+01 -0.56746828597E+00 -0.14785332776E+01  0.24456678125E+01  0.51100000000E-03 0.  1.
         12    1    3    3    0    0  0.28203038300E+01 -0.24919568247E+02  0.18138610176E+02  0.30950737866E+02  0.00000000000E+00 0. -1.
</event>
<event>
 7    1  0.2294216E-010  0.4778727E+02  0.7816164E-02  0.1312668E+00
        -11   -1    0    0    0    0  0.00000000000E+00  0.00000000000E+00  0.45593999997E+02  0.45594000000E+02  0.51100000000E-03 0. -1.
         11   -1    0    0    0    0 -0.00000000000E+00 -0.00000000000E+00 -0.45593999997E+02  0.45594000000E+02  0.51100000000E-03 0.  1.
    9900012    2    1    2    0    0  0.33381450730E+02 -0.24708365407E+02 -0.12601532499E+02  0.47787271950E+02  0.20000004129E+02 0.  0.
        -12    1    1    2    0    0 -0.33381450730E+02  0.24708365407E+02  0.12601532499E+02  0.43400728050E+02  0.00000000000E+00 0.  1.
         11    1    3    3    0    0  0.13365989011E+02 -0.12921699977E+02 -0.49141867416E+00  0.18597351562E+02  0.51100000000E-03 0. -1.
        -11    1    3    3    0    0  0.15782972630E+02 -0.60868137632E+01 -0.22870753178E+01  0.17069922103E+02  0.51100000000E-03 0.  1.
        -12    1    3    3    0    0  0.42324890887E+01 -0.56998516673E+01 -0.98230385073E+01  0.12119998285E+02  0.00000000000E+00 0.  1.
</event>
<event>
 7    1  0.2294216E-010  0.4778727E+02  0.7816164E-02  0.1312668E+00
        -11   -1    0    0    0    0  0.00000000000E+00  0.00000000000E+00  0.45593999997E+02  0.45594000000E+02  0.51100000000E-03 0.  1.
         11   -1    0    0    0    0 -0.00000000000E+00 -0.00000000000E+00 -0.45593999997E+02  0.45594000000E+02  0.51100000000E-03 0. -1.
    9900012    2    1    2    0    0  0.11876894001E+02  0.13645769797E+02 -0.39450679516E+02  0.47787265458E+02  0.19999974531E+02 0.  0.
        -12    1    1    2    0    0 -0.11876894001E+02 -0.13645769797E+02  0.39450679516E+02  0.43400734542E+02  0.00000000000E+00 0.  1.
         11    1    3    3    0    0  0.12588952171E+01  0.44875861801E+01 -0.20723827510E+02  0.21241475321E+02  0.51100000000E-03 0. -1.
        -11    1    3    3    0    0 -0.20742132116E+01  0.37714694238E+01 -0.16791424452E+01  0.46201581871E+01  0.51100000000E-03 0.  1.
        -12    1    3    3    0    0  0.12692211996E+02  0.53867141934E+01 -0.17047709561E+02  0.21925631951E+02  0.00000000000E+00 0.  1.
</event>
<event>
 7    1  0.2294216E-010  0.4778727E+02  0.7816164E-02  0.1312668E+00
        -11   -1    0    0    0    0  0.00000000000E+00  0.00000000000E+00  0.45593999997E+02  0.45594000000E+02  0.51100000000E-03 0.  1.
         11   -1    0    0    0    0 -0.00000000000E+00 -0.00000000000E+00 -0.45593999997E+02  0.45594000000E+02  0.51100000000E-03 0. -1.
    9900012    2    1    2    0    0 -0.27521768713E+02 -0.16318911416E+02 -0.29323524747E+02  0.47787265830E+02  0.19999976224E+02 0.  0.
        -12    1    1    2    0    0  0.27521768713E+02  0.16318911416E+02  0.29323524747E+02  0.43400734170E+02  0.00000000000E+00 0.  1.
         11    1    3    3    0    0 -0.10146392426E+02 -0.73527559960E+01 -0.22391326891E+02  0.25658991020E+02  0.51100000000E-03 0. -1.
        -11    1    3    3    0    0 -0.32228813562E+01 -0.49794142256E+01 -0.14280998809E+00  0.59331210354E+01  0.51100000000E-03 0.  1.
        -12    1    3    3    0    0 -0.14152494931E+02 -0.39867411945E+01 -0.67893878682E+01  0.16195153774E+02  0.00000000000E+00 0.  1.
</event>
<event>
 7    1  0.2294216E-010  0.4778727E+02  0.7816164E-02  0.1312668E+00
        -11   -1    0    0    0    0  0.00000000000E+00  0.00000000000E+00  0.45593999997E+02  0.45594000000E+02  0.51100000000E-03 0. -1.
         11   -1    0    0    0    0 -0.00000000000E+00 -0.00000000000E+00 -0.45593999997E+02  0.45594000000E+02  0.51100000000E-03 0.  1.
    9900012    2    1    2    0    0 -0.33883333656E+02 -0.19141587046E+02  0.19213089867E+02  0.47787268710E+02  0.19999989355E+02 0.  0.
        -12    1    1    2    0    0  0.33883333656E+02  0.19141587046E+02 -0.19213089867E+02  0.43400731290E+02  0.00000000000E+00 0.  1.
         11    1    3    3    0    0 -0.99951037466E+01 -0.66894381393E+01  0.17799311739E+01  0.12158077018E+02  0.51100000000E-03 0. -1.
        -11    1    3    3    0    0 -0.98940801512E+01 -0.13784905542E+02  0.85534118034E+01  0.19002034011E+02  0.51100000000E-03 0.  1.
        -12    1    3    3    0    0 -0.13994149759E+02  0.13327566351E+01  0.88797468894E+01  0.16627157681E+02  0.00000000000E+00 0.  1.
</event>
<event>
 7    1  0.2294216E-010  0.4778727E+02  0.7816164E-02  0.1312668E+00
        -11   -1    0    0    0    0  0.00000000000E+00  0.00000000000E+00  0.45593999997E+02  0.45594000000E+02  0.51100000000E-03 0. -1.
         11   -1    0    0    0    0 -0.00000000000E+00 -0.00000000000E+00 -0.45593999997E+02  0.45594000000E+02  0.51100000000E-03 0.  1.
    9900012    2    1    2    0    0 -0.83099586894E+01  0.38212238420E+02 -0.18825316168E+02  0.47787272964E+02  0.20000008751E+02 0.  0.
        -12    1    1    2    0    0  0.83099586894E+01 -0.38212238420E+02  0.18825316168E+02  0.43400727036E+02  0.00000000000E+00 0.  1.
         11    1    3    3    0    0 -0.57833947072E+01  0.75544042869E+01 -0.54880765854E+01  0.10983426758E+02  0.51100000000E-03 0. -1.
        -11    1    3    3    0    0 -0.80163312217E+01  0.11153156553E+02 -0.78127936695E+01  0.15801715493E+02  0.51100000000E-03 0.  1.
         12    1    3    3    0    0  0.54897672395E+01  0.19504677580E+02 -0.55244459128E+01  0.21002130713E+02  0.00000000000E+00 0. -1.
</event>
<event>
 7    1  0.2294216E-010  0.4778734E+02  0.7816164E-02  0.1312667E+00
        -11   -1    0    0    0    0  0.00000000000E+00  0.00000000000E+00  0.45593999997E+02  0.45594000000E+02  0.51100000000E-03 0.  1.
         11   -1    0    0    0    0 -0.00000000000E+00 -0.00000000000E+00 -0.45593999997E+02  0.45594000000E+02  0.51100000000E-03 0. -1.
    9900012    2    1    2    0    0 -0.40389321655E+02 -0.13327241012E+02 -0.86432065414E+01  0.47787335534E+02  0.20000294032E+02 0.  0.
        -12    1    1    2    0    0  0.40389321655E+02  0.13327241012E+02  0.86432065414E+01  0.43400664466E+02  0.00000000000E+00 0.  1.
         11    1    3    3    0    0 -0.25539166033E+02 -0.21156107768E+01  0.25801351645E+01  0.25756201357E+02  0.51100000000E-03 0. -1.
        -11    1    3    3    0    0 -0.13891462350E+01 -0.19953204616E+01 -0.42716405958E+00  0.24685016511E+01  0.51100000000E-03 0.  1.
         12    1    3    3    0    0 -0.13461009387E+02 -0.92163097736E+01 -0.10796177646E+02  0.19562632526E+02  0.00000000000E+00 0. -1.
</event>
<event>
 7    1  0.2294216E-010  0.4778728E+02  0.7816164E-02  0.1312668E+00
        -11   -1    0    0    0    0  0.00000000000E+00  0.00000000000E+00  0.45593999997E+02  0.45594000000E+02  0.51100000000E-03 0.  1.
         11   -1    0    0    0    0 -0.00000000000E+00 -0.00000000000E+00 -0.45593999997E+02  0.45594000000E+02  0.51100000000E-03 0. -1.
    9900012    2    1    2    0    0 -0.21734822161E+02  0.91618426185E+01 -0.36431864239E+02  0.47787278964E+02  0.20000036107E+02 0.  0.
        -12    1    1    2    0    0  0.21734822161E+02 -0.91618426185E+01  0.36431864239E+02  0.43400721036E+02  0.00000000000E+00 0.  1.
         11    1    3    3    0    0 -0.28522106292E+01  0.19424043353E+01 -0.43950495152E+01  0.55878887406E+01  0.51100000000E-03 0. -1.
        -11    1    3    3    0    0 -0.28837751633E+01  0.71482057459E+01 -0.16864509254E+01  0.78903182169E+01  0.51100000000E-03 0.  1.
        -12    1    3    3    0    0 -0.15998836368E+02  0.71232537287E-01 -0.30350363799E+02  0.34309072006E+02  0.00000000000E+00 0.  1.
</event>
<event>
 7    1  0.2294216E-010  0.4778727E+02  0.7816164E-02  0.1312668E+00
        -11   -1    0    0    0    0  0.00000000000E+00  0.00000000000E+00  0.45593999997E+02  0.45594000000E+02  0.51100000000E-03 0.  1.
         11   -1    0    0    0    0 -0.00000000000E+00 -0.00000000000E+00 -0.45593999997E+02  0.45594000000E+02  0.51100000000E-03 0. -1.
    9900012    2    1    2    0    0 -0.91757964679E+01 -0.41184414373E+02 -0.10162289208E+02  0.47787270167E+02  0.19999995999E+02 0.  0.
        -12    1    1    2    0    0  0.91757964679E+01  0.41184414373E+02  0.10162289208E+02  0.43400729833E+02  0.00000000000E+00 0.  1.
         11    1    3    3    0    0 -0.42083666957E+01 -0.93431333054E+01  0.25419001508E+01  0.10557733982E+02  0.51100000000E-03 0.  1.
        -11    1    3    3    0    0 -0.35084243246E+01 -0.26847077879E+02 -0.44007453672E+01  0.27430661529E+02  0.51100000000E-03 0. -1.
         12    1    3    3    0    0 -0.14590054476E+01 -0.49942031887E+01 -0.83034439916E+01  0.97988746552E+01  0.00000000000E+00 0. -1.
</event>
<event>
 7    1  0.2294216E-010  0.4778727E+02  0.7816164E-02  0.1312668E+00
        -11   -1    0    0    0    0  0.00000000000E+00  0.00000000000E+00  0.45593999997E+02  0.45594000000E+02  0.51100000000E-03 0.  1.
         11   -1    0    0    0    0 -0.00000000000E+00 -0.00000000000E+00 -0.45593999997E+02  0.45594000000E+02  0.51100000000E-03 0. -1.
    9900012    2    1    2    0    0  0.22057965506E+02  0.36668246235E+02  0.72463303037E+01  0.47787269280E+02  0.19999991953E+02 0.  0.
        -12    1    1    2    0    0 -0.22057965506E+02 -0.36668246235E+02 -0.72463303037E+01  0.43400730720E+02  0.00000000000E+00 0.  1.
         11    1    3    3    0    0  0.18383216103E+02  0.16339417202E+02  0.44645969695E+01  0.24997036127E+02  0.51100000000E-03 0. -1.
        -11    1    3    3    0    0  0.35291736895E+01  0.17143690379E+02  0.57605884673E+01  0.18426762236E+02  0.51100000000E-03 0.  1.
        -12    1    3    3    0    0  0.14557571307E+00  0.31851386538E+01 -0.29788551330E+01  0.43634709161E+01  0.00000000000E+00 0.  1.
</event>
<event>
 7    1  0.2294216E-010  0.4778727E+02  0.7816164E-02  0.1312668E+00
        -11   -1    0    0    0    0  0.00000000000E+00  0.00000000000E+00  0.45593999997E+02  0.45594000000E+02  0.51100000000E-03 0.  1.
         11   -1    0    0    0    0 -0.00000000000E+00 -0.00000000000E+00 -0.45593999997E+02  0.45594000000E+02  0.51100000000E-03 0. -1.
    9900012    2    1    2    0    0  0.41876110455E+02  0.78393238448E+01 -0.82800602424E+01  0.47787273937E+02  0.20000013189E+02 0.  0.
        -12    1    1    2    0    0 -0.41876110455E+02 -0.78393238448E+01  0.82800602424E+01  0.43400726063E+02  0.00000000000E+00 0.  1.
         11    1    3    3    0    0  0.11296532456E+02 -0.17440303999E+01  0.21415654832E+01  0.11629255804E+02  0.51100000000E-03 0. -1.
        -11    1    3    3    0    0  0.12147400102E+02 -0.26047249753E+01 -0.24234060854E+01  0.12657678252E+02  0.51100000000E-03 0.  1.
         12    1    3    3    0    0  0.18432177897E+02  0.12188079220E+02 -0.79982196401E+01  0.23500339881E+02  0.00000000000E+00 0. -1.
</event>
<event>
 7    1  0.2294216E-010  0.4778727E+02  0.7816164E-02  0.1312668E+00
        -11   -1    0    0    0    0  0.00000000000E+00  0.00000000000E+00  0.45593999997E+02  0.45594000000E+02  0.51100000000E-03 0.  1.
         11   -1    0    0    0    0 -0.00000000000E+00 -0.00000000000E+00 -0.45593999997E+02  0.45594000000E+02  0.51100000000E-03 0. -1.
    9900012    2    1    2    0    0  0.20163798881E+02 -0.21244179694E+02 -0.32027004441E+02  0.47787274549E+02  0.20000015980E+02 0.  0.
        -12    1    1    2    0    0 -0.20163798881E+02  0.21244179694E+02  0.32027004441E+02  0.43400725451E+02  0.00000000000E+00 0.  1.
         11    1    3    3    0    0 -0.93169626075E+00 -0.21087402193E+01  0.13353822178E+01  0.26642239327E+01  0.51100000000E-03 0. -1.
        -11    1    3    3    0    0  0.31823191091E+00 -0.22808811189E+01 -0.77528698753E+01  0.80876870484E+01  0.51100000000E-03 0.  1.
         12    1    3    3    0    0  0.20777263231E+02 -0.16854558356E+02 -0.25609516784E+02  0.37035363568E+02  0.00000000000E+00 0. -1.
</event>
<event>
 7    1  0.2294216E-010  0.4778727E+02  0.7816164E-02  0.1312668E+00
        -11   -1    0    0    0    0  0.00000000000E+00  0.00000000000E+00  0.45593999997E+02  0.45594000000E+02  0.51100000000E-03 0. -1.
         11   -1    0    0    0    0 -0.00000000000E+00 -0.00000000000E+00 -0.45593999997E+02  0.45594000000E+02  0.51100000000E-03 0.  1.
    9900012    2    1    2    0    0 -0.38076930100E+02 -0.19977184441E+02  0.58892308519E+01  0.47787267932E+02  0.19999985808E+02 0.  0.
        -12    1    1    2    0    0  0.38076930100E+02  0.19977184441E+02 -0.58892308519E+01  0.43400732068E+02  0.00000000000E+00 0.  1.
         11    1    3    3    0    0 -0.56763506767E+01 -0.28618634056E+01  0.57653713536E+01  0.85820001319E+01  0.51100000000E-03 0. -1.
        -11    1    3    3    0    0 -0.20530165116E+02 -0.48960059678E+01  0.45782783849E+01  0.21596740202E+02  0.51100000000E-03 0.  1.
         12    1    3    3    0    0 -0.11870414307E+02 -0.12219315067E+02 -0.44544188866E+01  0.17608527598E+02  0.00000000000E+00 0. -1.
</event>
<event>
 7    1  0.2294216E-010  0.4778727E+02  0.7816164E-02  0.1312668E+00
        -11   -1    0    0    0    0  0.00000000000E+00  0.00000000000E+00  0.45593999997E+02  0.45594000000E+02  0.51100000000E-03 0.  1.
         11   -1    0    0    0    0 -0.00000000000E+00 -0.00000000000E+00 -0.45593999997E+02  0.45594000000E+02  0.51100000000E-03 0. -1.
    9900012    2    1    2    0    0 -0.78313733002E+01  0.10972906214E+02 -0.41253948986E+02  0.47787269759E+02  0.19999994139E+02 0.  0.
        -12    1    1    2    0    0  0.78313733002E+01 -0.10972906214E+02  0.41253948986E+02  0.43400730241E+02  0.00000000000E+00 0.  1.
         11    1    3    3    0    0 -0.59956961206E+00  0.54228120997E+01 -0.16241544793E+02  0.17133422084E+02  0.51100000000E-03 0. -1.
        -11    1    3    3    0    0  0.34827511239E+01  0.38000107312E+01 -0.26510307121E+01  0.57963437654E+01  0.51100000000E-03 0.  1.
         12    1    3    3    0    0 -0.10714554812E+02  0.17500833834E+01 -0.22361373480E+02  0.24857503909E+02  0.00000000000E+00 0. -1.
</event>
<event>
 7    1  0.2294216E-010  0.4778732E+02  0.7816164E-02  0.1312668E+00
        -11   -1    0    0    0    0  0.00000000000E+00  0.00000000000E+00  0.45593999997E+02  0.45594000000E+02  0.51100000000E-03 0.  1.
         11   -1    0    0    0    0 -0.00000000000E+00 -0.00000000000E+00 -0.45593999997E+02  0.45594000000E+02  0.51100000000E-03 0. -1.
    9900012    2    1    2    0    0 -0.27542735805E+02  0.18516106422E+02 -0.27967317861E+02  0.47787316123E+02  0.20000205532E+02 0.  0.
        -12    1    1    2    0    0  0.27542735805E+02 -0.18516106422E+02  0.27967317861E+02  0.43400683877E+02  0.00000000000E+00 0.  1.
         11    1    3    3    0    0 -0.61757458859E+01  0.95048649484E+01 -0.12723588280E+02  0.17040304983E+02  0.51100000000E-03 0.  1.
        -11    1    3    3    0    0 -0.12907672205E+02  0.11692913533E+02 -0.12570041645E+02  0.21478784320E+02  0.51100000000E-03 0. -1.
        -12    1    3    3    0    0 -0.84593177136E+01 -0.26816720594E+01 -0.26736879356E+01  0.92682268202E+01  0.00000000000E+00 0.  1.
</event>
<event>
 7    1  0.2294216E-010  0.4778728E+02  0.7816164E-02  0.1312668E+00
        -11   -1    0    0    0    0  0.00000000000E+00  0.00000000000E+00  0.45593999997E+02  0.45594000000E+02  0.51100000000E-03 0.  1.
         11   -1    0    0    0    0 -0.00000000000E+00 -0.00000000000E+00 -0.45593999997E+02  0.45594000000E+02  0.51100000000E-03 0. -1.
    9900012    2    1    2    0    0 -0.14896806518E+02 -0.40606253403E+02  0.35832809721E+01  0.47787279242E+02  0.20000037374E+02 0.  0.
        -12    1    1    2    0    0  0.14896806518E+02  0.40606253403E+02 -0.35832809721E+01  0.43400720758E+02  0.00000000000E+00 0.  1.
         11    1    3    3    0    0 -0.51311078956E+01 -0.30494854588E+02 -0.25616631454E+01  0.31029446385E+02  0.51100000000E-03 0. -1.
        -11    1    3    3    0    0 -0.59391101421E+01 -0.83839049774E+01  0.13149945759E+01  0.10358190139E+02  0.51100000000E-03 0.  1.
        -12    1    3    3    0    0 -0.38265884801E+01 -0.17274938368E+01  0.48299495415E+01  0.63996427186E+01  0.00000000000E+00 0.  1.
</event>
<event>
 7    1  0.2294216E-010  0.4778727E+02  0.7816164E-02  0.1312668E+00
        -11   -1    0    0    0    0  0.00000000000E+00  0.00000000000E+00  0.45593999997E+02  0.45594000000E+02  0.51100000000E-03 0.  1.
         11   -1    0    0    0    0 -0.00000000000E+00 -0.00000000000E+00 -0.45593999997E+02  0.45594000000E+02  0.51100000000E-03 0. -1.
    9900012    2    1    2    0    0 -0.14444631271E+02 -0.29926967805E+02 -0.27916888497E+02  0.47787269154E+02  0.19999991382E+02 0.  0.
        -12    1    1    2    0    0  0.14444631271E+02  0.29926967805E+02  0.27916888497E+02  0.43400730846E+02  0.00000000000E+00 0.  1.
         11    1    3    3    0    0  0.96207342281E+00 -0.16875994318E+01  0.13400506722E+01  0.23599392319E+01  0.51100000000E-03 0. -1.
        -11    1    3    3    0    0 -0.89441040805E+01 -0.45954595235E+01 -0.10703027045E+02  0.14685708503E+02  0.51100000000E-03 0.  1.
         12    1    3    3    0    0 -0.64626006135E+01 -0.23643908850E+02 -0.18553912124E+02  0.30741621420E+02  0.00000000000E+00 0. -1.
</event>
<event>
 7    1  0.2294216E-010  0.4778726E+02  0.7816164E-02  0.1312668E+00
        -11   -1    0    0    0    0  0.00000000000E+00  0.00000000000E+00  0.45593999997E+02  0.45594000000E+02  0.51100000000E-03 0.  1.
         11   -1    0    0    0    0 -0.00000000000E+00 -0.00000000000E+00 -0.45593999997E+02  0.45594000000E+02  0.51100000000E-03 0. -1.
    9900012    2    1    2    0    0 -0.28013294894E+02  0.30273987674E+02  0.13504256104E+02  0.47787263215E+02  0.19999964304E+02 0.  0.
        -12    1    1    2    0    0  0.28013294894E+02 -0.30273987674E+02 -0.13504256104E+02  0.43400736785E+02  0.00000000000E+00 0.  1.
         11    1    3    3    0    0 -0.73007555972E+01  0.56137072168E+01  0.85098505790E+01  0.12539230365E+02  0.51100000000E-03 0. -1.
        -11    1    3    3    0    0 -0.15763030647E+02  0.98584044141E+01  0.61887097801E+01  0.19594933064E+02  0.51100000000E-03 0.  1.
         12    1    3    3    0    0 -0.49495086494E+01  0.14801876043E+02 -0.11943042548E+01  0.15653099787E+02  0.00000000000E+00 0. -1.
</event>
<event>
 7    1  0.2294216E-010  0.4778727E+02  0.7816164E-02  0.1312668E+00
        -11   -1    0    0    0    0  0.00000000000E+00  0.00000000000E+00  0.45593999997E+02  0.45594000000E+02  0.51100000000E-03 0. -1.
         11   -1    0    0    0    0 -0.00000000000E+00 -0.00000000000E+00 -0.45593999997E+02  0.45594000000E+02  0.51100000000E-03 0.  1.
    9900012    2    1    2    0    0  0.28896916250E+02 -0.16626190792E+02  0.27787786705E+02  0.47787273290E+02  0.20000010237E+02 0.  0.
        -12    1    1    2    0    0 -0.28896916250E+02  0.16626190792E+02 -0.27787786705E+02  0.43400726710E+02  0.00000000000E+00 0.  1.
         11    1    3    3    0    0  0.21883835957E+02 -0.11383179557E+02  0.21549700449E+02  0.32754673601E+02  0.51100000000E-03 0. -1.
        -11    1    3    3    0    0  0.59397620866E+01 -0.84155892649E+01  0.51101897359E+01  0.11498563202E+02  0.51100000000E-03 0.  1.
        -12    1    3    3    0    0  0.10733182060E+01  0.31725780296E+01  0.11278965206E+01  0.35340364863E+01  0.00000000000E+00 0.  1.
</event>
<event>
 7    1  0.2294216E-010  0.4778727E+02  0.7816164E-02  0.1312668E+00
        -11   -1    0    0    0    0  0.00000000000E+00  0.00000000000E+00  0.45593999997E+02  0.45594000000E+02  0.51100000000E-03 0.  1.
         11   -1    0    0    0    0 -0.00000000000E+00 -0.00000000000E+00 -0.45593999997E+02  0.45594000000E+02  0.51100000000E-03 0. -1.
    9900012    2    1    2    0    0 -0.95157554399E+01 -0.85124885708E+01 -0.41480251642E+02  0.47787270288E+02  0.19999996550E+02 0.  0.
        -12    1    1    2    0    0  0.95157554399E+01  0.85124885708E+01  0.41480251642E+02  0.43400729712E+02  0.00000000000E+00 0.  1.
         11    1    3    3    0    0  0.55921047889E+00  0.80662446480E+00 -0.16768348087E+02  0.16797049062E+02  0.51100000000E-03 0. -1.
        -11    1    3    3    0    0  0.16142977188E+01  0.12543330430E+01 -0.50790313672E+00  0.21064838867E+01  0.51100000000E-03 0.  1.
        -12    1    3    3    0    0 -0.11689263638E+02 -0.10573446079E+02 -0.24204000419E+02  0.28883737339E+02  0.00000000000E+00 0.  1.
</event>
<event>
 7    1  0.2294216E-010  0.4778727E+02  0.7816164E-02  0.1312668E+00
        -11   -1    0    0    0    0  0.00000000000E+00  0.00000000000E+00  0.45593999997E+02  0.45594000000E+02  0.51100000000E-03 0.  1.
         11   -1    0    0    0    0 -0.00000000000E+00 -0.00000000000E+00 -0.45593999997E+02  0.45594000000E+02  0.51100000000E-03 0. -1.
    9900012    2    1    2    0    0  0.18172682240E+02 -0.26025215121E+02 -0.29598397639E+02  0.47787270229E+02  0.19999996281E+02 0.  0.
        -12    1    1    2    0    0 -0.18172682240E+02  0.26025215121E+02  0.29598397639E+02  0.43400729771E+02  0.00000000000E+00 0.  1.
         11    1    3    3    0    0  0.73601858498E+01 -0.47665438360E+01 -0.80229775609E+01  0.11885303744E+02  0.51100000000E-03 0. -1.
        -11    1    3    3    0    0  0.80861101671E+01 -0.16680681723E+02 -0.60687550685E+01  0.19505386659E+02  0.51100000000E-03 0.  1.
        -12    1    3    3    0    0  0.27263862232E+01 -0.45779895623E+01 -0.15506665009E+02  0.16396579826E+02  0.00000000000E+00 0.  1.
</event>
<event>
 7    1  0.2294216E-010  0.4778727E+02  0.7816164E-02  0.1312668E+00
        -11   -1    0    0    0    0  0.00000000000E+00  0.00000000000E+00  0.45593999997E+02  0.45594000000E+02  0.51100000000E-03 0.  1.
         11   -1    0    0    0    0 -0.00000000000E+00 -0.00000000000E+00 -0.45593999997E+02  0.45594000000E+02  0.51100000000E-03 0. -1.
    9900012    2    1    2    0    0 -0.21954947860E+02  0.24041428832E+02 -0.28698663115E+02  0.47787270738E+02  0.19999998605E+02 0.  0.
        -12    1    1    2    0    0  0.21954947860E+02 -0.24041428832E+02  0.28698663115E+02  0.43400729262E+02  0.00000000000E+00 0.  1.
         11    1    3    3    0    0  0.18565487008E+01 -0.63889811129E-01 -0.24842773913E+01  0.31020137660E+01  0.51100000000E-03 0.  1.
        -11    1    3    3    0    0 -0.46398110661E+00  0.45761456330E+01 -0.79582611052E+01  0.91918609324E+01  0.51100000000E-03 0. -1.
         12    1    3    3    0    0 -0.23347515455E+02  0.19529173010E+02 -0.18256124619E+02  0.35493396040E+02  0.00000000000E+00 0. -1.
</event>
<event>
 7    1  0.2294216E-010  0.4778727E+02  0.7816164E-02  0.1312668E+00
        -11   -1    0    0    0    0  0.00000000000E+00  0.00000000000E+00  0.45593999997E+02  0.45594000000E+02  0.51100000000E-03 0.  1.
         11   -1    0    0    0    0 -0.00000000000E+00 -0.00000000000E+00 -0.45593999997E+02  0.45594000000E+02  0.51100000000E-03 0. -1.
    9900012    2    1    2    0    0  0.85654969413E+00  0.43119883191E+02 -0.48544043233E+01  0.47787271376E+02  0.20000001510E+02 0.  0.
        -12    1    1    2    0    0 -0.85654969413E+00 -0.43119883191E+02  0.48544043233E+01  0.43400728624E+02  0.00000000000E+00 0.  1.
         11    1    3    3    0    0 -0.10519816959E+01  0.10046681193E+02 -0.49318919193E+01  0.11241264459E+02  0.51100000000E-03 0. -1.
        -11    1    3    3    0    0  0.13791934333E+01  0.35122461351E+01 -0.52891798398E+01  0.64971894754E+01  0.51100000000E-03 0.  1.
         12    1    3    3    0    0  0.52933795676E+00  0.29560955864E+02  0.53666674359E+01  0.30048817441E+02  0.00000000000E+00 0. -1.
</event>
<event>
 7    1  0.2294216E-010  0.4778727E+02  0.7816164E-02  0.1312668E+00
        -11   -1    0    0    0    0  0.00000000000E+00  0.00000000000E+00  0.45593999997E+02  0.45594000000E+02  0.51100000000E-03 0. -1.
         11   -1    0    0    0    0 -0.00000000000E+00 -0.00000000000E+00 -0.45593999997E+02  0.45594000000E+02  0.51100000000E-03 0.  1.
    9900012    2    1    2    0    0  0.33423542308E+02  0.58240689259E+01  0.27066035104E+02  0.47787271716E+02  0.20000003062E+02 0.  0.
        -12    1    1    2    0    0 -0.33423542308E+02 -0.58240689259E+01 -0.27066035104E+02  0.43400728284E+02  0.00000000000E+00 0.  1.
         11    1    3    3    0    0  0.17027883103E+02 -0.46665623242E-01  0.13977631571E+02  0.22030096806E+02  0.51100000000E-03 0. -1.
        -11    1    3    3    0    0  0.37385179021E+01 -0.39679971631E+01  0.63446258172E+01  0.83651535916E+01  0.51100000000E-03 0.  1.
         12    1    3    3    0    0  0.12657141303E+02  0.98387317123E+01  0.67437777158E+01  0.17392021319E+02  0.00000000000E+00 0. -1.
</event>
<event>
 7    1  0.2294216E-010  0.4778727E+02  0.7816164E-02  0.1312668E+00
        -11   -1    0    0    0    0  0.00000000000E+00  0.00000000000E+00  0.45593999997E+02  0.45594000000E+02  0.51100000000E-03 0.  1.
         11   -1    0    0    0    0 -0.00000000000E+00 -0.00000000000E+00 -0.45593999997E+02  0.45594000000E+02  0.51100000000E-03 0. -1.
    9900012    2    1    2    0    0  0.39721550240E+02 -0.28635049287E+01 -0.17251716740E+02  0.47787274840E+02  0.20000017305E+02 0.  0.
        -12    1    1    2    0    0 -0.39721550240E+02  0.28635049287E+01  0.17251716740E+02  0.43400725160E+02  0.00000000000E+00 0.  1.
         11    1    3    3    0    0  0.12551759513E+02 -0.40455088505E+01 -0.85180719289E+01  0.15699374458E+02  0.51100000000E-03 0. -1.
        -11    1    3    3    0    0  0.12336191994E+00 -0.22087016718E+01 -0.37852266832E+01  0.43842356851E+01  0.51100000000E-03 0.  1.
         12    1    3    3    0    0  0.27046428808E+02  0.33907055935E+01 -0.49484181279E+01  0.27703664697E+02  0.00000000000E+00 0. -1.
</event>
<event>
 7    1  0.2294216E-010  0.4778728E+02  0.7816164E-02  0.1312668E+00
        -11   -1    0    0    0    0  0.00000000000E+00  0.00000000000E+00  0.45593999997E+02  0.45594000000E+02  0.51100000000E-03 0.  1.
         11   -1    0    0    0    0 -0.00000000000E+00 -0.00000000000E+00 -0.45593999997E+02  0.45594000000E+02  0.51100000000E-03 0. -1.
    9900012    2    1    2    0    0 -0.40790715418E+02  0.55443583112E+01  0.13747744337E+02  0.47787275954E+02  0.20000022385E+02 0.  0.
        -12    1    1    2    0    0  0.40790715418E+02 -0.55443583112E+01 -0.13747744337E+02  0.43400724046E+02  0.00000000000E+00 0.  1.
         11    1    3    3    0    0 -0.10303573011E+02 -0.11537420475E+01  0.12504230324E+01  0.10443097985E+02  0.51100000000E-03 0. -1.
        -11    1    3    3    0    0 -0.27482314355E+02  0.11100028672E+02  0.90240339187E+01  0.30982598781E+02  0.51100000000E-03 0.  1.
         12    1    3    3    0    0 -0.30048280520E+01 -0.44019283135E+01  0.34732873854E+01  0.63615791876E+01  0.00000000000E+00 0. -1.
</event>
<event>
 7    1  0.2294216E-010  0.4778727E+02  0.7816164E-02  0.1312668E+00
        -11   -1    0    0    0    0  0.00000000000E+00  0.00000000000E+00  0.45593999997E+02  0.45594000000E+02  0.51100000000E-03 0.  1.
         11   -1    0    0    0    0 -0.00000000000E+00 -0.00000000000E+00 -0.45593999997E+02  0.45594000000E+02  0.51100000000E-03 0. -1.
    9900012    2    1    2    0    0  0.15356106582E+01 -0.12135093665E+02 -0.41641383408E+02  0.47787269471E+02  0.19999992825E+02 0.  0.
        -12    1    1    2    0    0 -0.15356106582E+01  0.12135093665E+02  0.41641383408E+02  0.43400730529E+02  0.00000000000E+00 0.  1.
         11    1    3    3    0    0  0.57808096532E+01 -0.56318626257E+01 -0.12885907125E+02  0.15204678214E+02  0.51100000000E-03 0. -1.
        -11    1    3    3    0    0  0.36291473510E+01 -0.20609180085E+01 -0.26204847136E+01  0.49279847736E+01  0.51100000000E-03 0.  1.
        -12    1    3    3    0    0 -0.78743463461E+01 -0.44423130309E+01 -0.26134991569E+02  0.27654606483E+02  0.00000000000E+00 0.  1.
</event>
<event>
 7    1  0.2294216E-010  0.4778728E+02  0.7816164E-02  0.1312668E+00
        -11   -1    0    0    0    0  0.00000000000E+00  0.00000000000E+00  0.45593999997E+02  0.45594000000E+02  0.51100000000E-03 0.  1.
         11   -1    0    0    0    0 -0.00000000000E+00 -0.00000000000E+00 -0.45593999997E+02  0.45594000000E+02  0.51100000000E-03 0. -1.
    9900012    2    1    2    0    0 -0.33361415060E+02 -0.51230444048E+01 -0.27283569619E+02  0.47787276850E+02  0.20000026471E+02 0.  0.
        -12    1    1    2    0    0  0.33361415060E+02  0.51230444048E+01  0.27283569619E+02  0.43400723150E+02  0.00000000000E+00 0.  1.
         11    1    3    3    0    0 -0.95989575976E+01 -0.47324254619E+01 -0.41614028480E+01  0.11482731018E+02  0.51100000000E-03 0. -1.
        -11    1    3    3    0    0 -0.16807506341E+02  0.37283958042E+01 -0.76313876452E+01  0.18831656389E+02  0.51100000000E-03 0.  1.
        -12    1    3    3    0    0 -0.69549511208E+01 -0.41190147471E+01 -0.15490779126E+02  0.17472889444E+02  0.00000000000E+00 0.  1.
</event>
<event>
 7    1  0.2294216E-010  0.4778727E+02  0.7816164E-02  0.1312668E+00
        -11   -1    0    0    0    0  0.00000000000E+00  0.00000000000E+00  0.45593999997E+02  0.45594000000E+02  0.51100000000E-03 0.  1.
         11   -1    0    0    0    0 -0.00000000000E+00 -0.00000000000E+00 -0.45593999997E+02  0.45594000000E+02  0.51100000000E-03 0. -1.
    9900012    2    1    2    0    0  0.15555443916E+02  0.21741344023E+02 -0.34190134521E+02  0.47787272197E+02  0.20000005253E+02 0.  0.
        -12    1    1    2    0    0 -0.15555443916E+02 -0.21741344023E+02  0.34190134521E+02  0.43400727803E+02  0.00000000000E+00 0.  1.
         11    1    3    3    0    0  0.15331539763E+01 -0.11047089710E+01  0.13645424386E+01  0.23308623627E+01  0.51100000000E-03 0. -1.
        -11    1    3    3    0    0  0.48943968217E+01  0.35269826010E+01 -0.36285183936E+01  0.70399483315E+01  0.51100000000E-03 0.  1.
         12    1    3    3    0    0  0.91278931177E+01  0.19319070393E+02 -0.31926158566E+02  0.38416461502E+02  0.00000000000E+00 0. -1.
</event>
<event>
 7    1  0.2294216E-010  0.4778728E+02  0.7816164E-02  0.1312668E+00
        -11   -1    0    0    0    0  0.00000000000E+00  0.00000000000E+00  0.45593999997E+02  0.45594000000E+02  0.51100000000E-03 0.  1.
         11   -1    0    0    0    0 -0.00000000000E+00 -0.00000000000E+00 -0.45593999997E+02  0.45594000000E+02  0.51100000000E-03 0. -1.
    9900012    2    1    2    0    0  0.25308138680E+02 -0.23417263868E+02 -0.26358156625E+02  0.47787279370E+02  0.20000037958E+02 0.  0.
        -12    1    1    2    0    0 -0.25308138680E+02  0.23417263868E+02  0.26358156625E+02  0.43400720630E+02  0.00000000000E+00 0.  1.
         11    1    3    3    0    0  0.35163640560E+01 -0.56819989876E+01 -0.49417622945E+01  0.83108930630E+01  0.51100000000E-03 0. -1.
        -11    1    3    3    0    0  0.18814451092E+02 -0.58980764275E+01 -0.78371938601E+01  0.21217739826E+02  0.51100000000E-03 0.  1.
        -12    1    3    3    0    0  0.29773235321E+01 -0.11837188453E+02 -0.13579200471E+02  0.18258646481E+02  0.00000000000E+00 0.  1.
</event>
<event>
 7    1  0.2294216E-010  0.4778727E+02  0.7816164E-02  0.1312668E+00
        -11   -1    0    0    0    0  0.00000000000E+00  0.00000000000E+00  0.45593999997E+02  0.45594000000E+02  0.51100000000E-03 0. -1.
         11   -1    0    0    0    0 -0.00000000000E+00 -0.00000000000E+00 -0.45593999997E+02  0.45594000000E+02  0.51100000000E-03 0.  1.
    9900012    2    1    2    0    0 -0.21080110062E+02  0.12876148817E+02  0.35685526296E+02  0.47787273789E+02  0.20000012514E+02 0.  0.
        -12    1    1    2    0    0  0.21080110062E+02 -0.12876148817E+02 -0.35685526296E+02  0.43400726211E+02  0.00000000000E+00 0.  1.
         11    1    3    3    0    0  0.20113937510E+01  0.43867677304E+01  0.12739858388E+02  0.13623267888E+02  0.51100000000E-03 0.  1.
        -11    1    3    3    0    0 -0.95281318814E+01  0.66435688049E+01  0.10950009191E+02  0.15963239181E+02  0.51100000000E-03 0. -1.
        -12    1    3    3    0    0 -0.13563371932E+02  0.18458122818E+01  0.11995658718E+02  0.18200766720E+02  0.00000000000E+00 0.  1.
</event>
<event>
 7    1  0.2294216E-010  0.4778727E+02  0.7816164E-02  0.1312668E+00
        -11   -1    0    0    0    0  0.00000000000E+00  0.00000000000E+00  0.45593999997E+02  0.45594000000E+02  0.51100000000E-03 0.  1.
         11   -1    0    0    0    0 -0.00000000000E+00 -0.00000000000E+00 -0.45593999997E+02  0.45594000000E+02  0.51100000000E-03 0. -1.
    9900012    2    1    2    0    0  0.11852146676E+01  0.12927738577E+02 -0.41413671064E+02  0.47787270634E+02  0.19999998128E+02 0.  0.
        -12    1    1    2    0    0 -0.11852146676E+01 -0.12927738577E+02  0.41413671064E+02  0.43400729366E+02  0.00000000000E+00 0.  1.
         11    1    3    3    0    0 -0.42097765296E+00  0.33013182560E+01 -0.19280556545E+02  0.19565678761E+02  0.51100000000E-03 0. -1.
        -11    1    3    3    0    0 -0.12706051039E+01 -0.32198949792E+01 -0.15593747435E+01  0.37965524965E+01  0.51100000000E-03 0.  1.
         12    1    3    3    0    0  0.28767974245E+01  0.12846315300E+02 -0.20573739775E+02  0.24425039376E+02  0.00000000000E+00 0. -1.
</event>
<event>
 7    1  0.2294216E-010  0.4778727E+02  0.7816164E-02  0.1312668E+00
        -11   -1    0    0    0    0  0.00000000000E+00  0.00000000000E+00  0.45593999997E+02  0.45594000000E+02  0.51100000000E-03 0. -1.
         11   -1    0    0    0    0 -0.00000000000E+00 -0.00000000000E+00 -0.45593999997E+02  0.45594000000E+02  0.51100000000E-03 0.  1.
    9900012    2    1    2    0    0 -0.60220700553E+01 -0.38369650903E+02  0.19368220119E+02  0.47787269721E+02  0.19999993964E+02 0.  0.
        -12    1    1    2    0    0  0.60220700553E+01  0.38369650903E+02 -0.19368220119E+02  0.43400730279E+02  0.00000000000E+00 0.  1.
         11    1    3    3    0    0  0.11576833667E+00 -0.40833144983E+01  0.24823608288E+01  0.47800601612E+01  0.51100000000E-03 0. -1.
        -11    1    3    3    0    0 -0.41974053880E+01 -0.21880578537E+01  0.85734269637E+01  0.97933374968E+01  0.51100000000E-03 0.  1.
         12    1    3    3    0    0 -0.19404330040E+01 -0.32098278551E+02  0.83124323269E+01  0.33213872063E+02  0.00000000000E+00 0. -1.
</event>
<event>
 7    1  0.2294216E-010  0.4778727E+02  0.7816164E-02  0.1312668E+00
        -11   -1    0    0    0    0  0.00000000000E+00  0.00000000000E+00  0.45593999997E+02  0.45594000000E+02  0.51100000000E-03 0. -1.
         11   -1    0    0    0    0 -0.00000000000E+00 -0.00000000000E+00 -0.45593999997E+02  0.45594000000E+02  0.51100000000E-03 0.  1.
    9900012    2    1    2    0    0 -0.37955055745E+02  0.22317849021E+01  0.20929783335E+02  0.47787274765E+02  0.20000016964E+02 0.  0.
        -12    1    1    2    0    0  0.37955055745E+02 -0.22317849021E+01 -0.20929783335E+02  0.43400725235E+02  0.00000000000E+00 0.  1.
         11    1    3    3    0    0 -0.89909180185E+01  0.34896769091E+01  0.15997701896E+01  0.97761810880E+01  0.51100000000E-03 0. -1.
        -11    1    3    3    0    0 -0.30362747532E+01 -0.21890781794E+01 -0.21604827092E+01  0.43218877184E+01  0.51100000000E-03 0.  1.
         12    1    3    3    0    0 -0.25927862974E+02  0.93118617242E+00  0.21490495854E+02  0.33689205959E+02  0.00000000000E+00 0. -1.
</event>
<event>
 7    1  0.2294216E-010  0.4778727E+02  0.7816164E-02  0.1312668E+00
        -11   -1    0    0    0    0  0.00000000000E+00  0.00000000000E+00  0.45593999997E+02  0.45594000000E+02  0.51100000000E-03 0. -1.
         11   -1    0    0    0    0 -0.00000000000E+00 -0.00000000000E+00 -0.45593999997E+02  0.45594000000E+02  0.51100000000E-03 0.  1.
    9900012    2    1    2    0    0  0.22639261439E+02 -0.32630620245E+02 -0.17502282619E+02  0.47787269212E+02  0.19999991645E+02 0.  0.
        -12    1    1    2    0    0 -0.22639261439E+02  0.32630620245E+02  0.17502282619E+02  0.43400730788E+02  0.00000000000E+00 0.  1.
         11    1    3    3    0    0  0.11895756904E+02 -0.15176618002E+02 -0.12522769171E+01  0.19323740943E+02  0.51100000000E-03 0. -1.
        -11    1    3    3    0    0  0.69895400987E+01 -0.18951026943E+01 -0.37490977118E+01  0.81548034266E+01  0.51100000000E-03 0.  1.
        -12    1    3    3    0    0  0.37539644361E+01 -0.15558899549E+02 -0.12500907990E+02  0.20308724842E+02  0.00000000000E+00 0.  1.
</event>
<event>
 7    1  0.2294216E-010  0.4778726E+02  0.7816164E-02  0.1312668E+00
        -11   -1    0    0    0    0  0.00000000000E+00  0.00000000000E+00  0.45593999997E+02  0.45594000000E+02  0.51100000000E-03 0.  1.
         11   -1    0    0    0    0 -0.00000000000E+00 -0.00000000000E+00 -0.45593999997E+02  0.45594000000E+02  0.51100000000E-03 0. -1.
    9900012    2    1    2    0    0 -0.63421356396E+01 -0.35493130006E+02 -0.24158619726E+02  0.47787264186E+02  0.19999968730E+02 0.  0.
        -12    1    1    2    0    0  0.63421356396E+01  0.35493130006E+02  0.24158619726E+02  0.43400735814E+02  0.00000000000E+00 0.  1.
         11    1    3    3    0    0  0.25258968790E+00 -0.67027941947E+01 -0.11981601113E+02  0.13731351611E+02  0.51100000000E-03 0. -1.
        -11    1    3    3    0    0 -0.99273177530E+00 -0.45088709951E+00  0.16907705066E+01  0.20118451037E+01  0.51100000000E-03 0.  1.
         12    1    3    3    0    0 -0.56019935522E+01 -0.28339448712E+02 -0.13867789120E+02  0.32044067472E+02  0.00000000000E+00 0. -1.
</event>
<event>
 7    1  0.2294216E-010  0.4778729E+02  0.7816164E-02  0.1312668E+00
        -11   -1    0    0    0    0  0.00000000000E+00  0.00000000000E+00  0.45593999997E+02  0.45594000000E+02  0.51100000000E-03 0.  1.
         11   -1    0    0    0    0 -0.00000000000E+00 -0.00000000000E+00 -0.45593999997E+02  0.45594000000E+02  0.51100000000E-03 0. -1.
    9900012    2    1    2    0    0 -0.54625249121E+01 -0.24166370909E+02 -0.35633812077E+02  0.47787294654E+02  0.20000107647E+02 0.  0.
        -12    1    1    2    0    0  0.54625249121E+01  0.24166370909E+02  0.35633812077E+02  0.43400705346E+02  0.00000000000E+00 0.  1.
         11    1    3    3    0    0  0.24172371774E+01 -0.37466010828E+01 -0.73007651713E+01  0.85546027139E+01  0.51100000000E-03 0.  1.
        -11    1    3    3    0    0  0.42956378054E+01 -0.86263784773E+01 -0.66416542488E+01  0.11703780638E+02  0.51100000000E-03 0. -1.
         12    1    3    3    0    0 -0.12175399895E+02 -0.11793391349E+02 -0.21691392657E+02  0.27528911303E+02  0.00000000000E+00 0. -1.
</event>
<event>
 7    1  0.2294216E-010  0.4778727E+02  0.7816164E-02  0.1312668E+00
        -11   -1    0    0    0    0  0.00000000000E+00  0.00000000000E+00  0.45593999997E+02  0.45594000000E+02  0.51100000000E-03 0.  1.
         11   -1    0    0    0    0 -0.00000000000E+00 -0.00000000000E+00 -0.45593999997E+02  0.45594000000E+02  0.51100000000E-03 0. -1.
    9900012    2    1    2    0    0 -0.40347174773E+02 -0.36815442305E+01  0.15561980807E+02  0.47787268132E+02  0.19999986720E+02 0.  0.
        -12    1    1    2    0    0  0.40347174773E+02  0.36815442305E+01 -0.15561980807E+02  0.43400731868E+02  0.00000000000E+00 0.  1.
         11    1    3    3    0    0 -0.28856493424E+02 -0.62603305004E+01  0.66314204129E+01  0.30263256396E+02  0.51100000000E-03 0. -1.
        -11    1    3    3    0    0 -0.29256138778E+00 -0.23306459398E+01 -0.56212181227E-01  0.23496090595E+01  0.51100000000E-03 0.  1.
         12    1    3    3    0    0 -0.11198119961E+02  0.49094322097E+01  0.89867725749E+01  0.15174402677E+02  0.00000000000E+00 0. -1.
</event>
<event>
 7    1  0.2294216E-010  0.4778727E+02  0.7816164E-02  0.1312668E+00
        -11   -1    0    0    0    0  0.00000000000E+00  0.00000000000E+00  0.45593999997E+02  0.45594000000E+02  0.51100000000E-03 0.  1.
         11   -1    0    0    0    0 -0.00000000000E+00 -0.00000000000E+00 -0.45593999997E+02  0.45594000000E+02  0.51100000000E-03 0. -1.
    9900012    2    1    2    0    0  0.31399476236E+02  0.87540539092E+01 -0.28654191862E+02  0.47787270985E+02  0.19999999729E+02 0.  0.
        -12    1    1    2    0    0 -0.31399476236E+02 -0.87540539092E+01  0.28654191862E+02  0.43400729015E+02  0.00000000000E+00 0.  1.
         11    1    3    3    0    0  0.17613208214E+02  0.10620048729E+02 -0.17703229288E+02  0.27136964939E+02  0.51100000000E-03 0. -1.
        -11    1    3    3    0    0  0.67200370171E+01  0.41274360903E+01 -0.29893197089E+01  0.84338993813E+01  0.51100000000E-03 0.  1.
        -12    1    3    3    0    0  0.70662310047E+01 -0.59934309099E+01 -0.79616428652E+01  0.12216406665E+02  0.00000000000E+00 0.  1.
</event>
<event>
 7    1  0.2294216E-010  0.4778727E+02  0.7816164E-02  0.1312668E+00
        -11   -1    0    0    0    0  0.00000000000E+00  0.00000000000E+00  0.45593999997E+02  0.45594000000E+02  0.51100000000E-03 0. -1.
         11   -1    0    0    0    0 -0.00000000000E+00 -0.00000000000E+00 -0.45593999997E+02  0.45594000000E+02  0.51100000000E-03 0.  1.
    9900012    2    1    2    0    0 -0.39737834623E+02 -0.15375680671E+02  0.82532648221E+01  0.47787269167E+02  0.19999991442E+02 0.  0.
        -12    1    1    2    0    0  0.39737834623E+02  0.15375680671E+02 -0.82532648221E+01  0.43400730833E+02  0.00000000000E+00 0.  1.
         11    1    3    3    0    0 -0.49453337586E+01  0.15546363932E+01  0.67532718121E+00  0.52277420902E+01  0.51100000000E-03 0.  1.
        -11    1    3    3    0    0 -0.33838620503E+02 -0.11100936037E+02  0.44921172849E+01  0.35895154776E+02  0.51100000000E-03 0. -1.
        -12    1    3    3    0    0 -0.95388036082E+00 -0.58293810265E+01  0.30858203560E+01  0.66643723008E+01  0.00000000000E+00 0.  1.
</event>
<event>
 7    1  0.2294216E-010  0.4778729E+02  0.7816164E-02  0.1312668E+00
        -11   -1    0    0    0    0  0.00000000000E+00  0.00000000000E+00  0.45593999997E+02  0.45594000000E+02  0.51100000000E-03 0. -1.
         11   -1    0    0    0    0 -0.00000000000E+00 -0.00000000000E+00 -0.45593999997E+02  0.45594000000E+02  0.51100000000E-03 0.  1.
    9900012    2    1    2    0    0 -0.37302321119E+02  0.88985092064E+01  0.20321793926E+02  0.47787286465E+02  0.20000070308E+02 0.  0.
        -12    1    1    2    0    0  0.37302321119E+02 -0.88985092064E+01 -0.20321793926E+02  0.43400713535E+02  0.00000000000E+00 0.  1.
         11    1    3    3    0    0 -0.19415813310E+02  0.43729204023E+01  0.10598289516E+02  0.22548170219E+02  0.51100000000E-03 0. -1.
        -11    1    3    3    0    0 -0.20315364151E+02  0.33993465144E+01  0.83027553977E+01  0.22208226512E+02  0.51100000000E-03 0.  1.
        -12    1    3    3    0    0  0.24288563417E+01  0.11262422897E+01  0.14207490122E+01  0.30308897340E+01  0.00000000000E+00 0.  1.
</event>
<event>
 7    1  0.2294216E-010  0.4778727E+02  0.7816164E-02  0.1312668E+00
        -11   -1    0    0    0    0  0.00000000000E+00  0.00000000000E+00  0.45593999997E+02  0.45594000000E+02  0.51100000000E-03 0.  1.
         11   -1    0    0    0    0 -0.00000000000E+00 -0.00000000000E+00 -0.45593999997E+02  0.45594000000E+02  0.51100000000E-03 0. -1.
    9900012    2    1    2    0    0  0.32730344787E+01 -0.31116343236E+02 -0.30077958666E+02  0.47787272257E+02  0.20000005529E+02 0.  0.
        -12    1    1    2    0    0 -0.32730344787E+01  0.31116343236E+02  0.30077958666E+02  0.43400727743E+02  0.00000000000E+00 0.  1.
         11    1    3    3    0    0  0.42498054521E+01 -0.27627084727E+02 -0.22754331192E+02  0.36042700303E+02  0.51100000000E-03 0. -1.
        -11    1    3    3    0    0  0.54884656882E+00 -0.51030806772E+01 -0.12569366705E+01  0.52841796912E+01  0.51100000000E-03 0.  1.
        -12    1    3    3    0    0 -0.15256175423E+01  0.16138221682E+01 -0.60666908038E+01  0.64603922625E+01  0.00000000000E+00 0.  1.
</event>
<event>
 7    1  0.2294216E-010  0.4778727E+02  0.7816164E-02  0.1312668E+00
        -11   -1    0    0    0    0  0.00000000000E+00  0.00000000000E+00  0.45593999997E+02  0.45594000000E+02  0.51100000000E-03 0. -1.
         11   -1    0    0    0    0 -0.00000000000E+00 -0.00000000000E+00 -0.45593999997E+02  0.45594000000E+02  0.51100000000E-03 0.  1.
    9900012    2    1    2    0    0  0.33551401466E+02  0.82082049836E+01  0.26278356834E+02  0.47787271812E+02  0.20000003498E+02 0.  0.
        -12    1    1    2    0    0 -0.33551401466E+02 -0.82082049836E+01 -0.26278356834E+02  0.43400728188E+02  0.00000000000E+00 0.  1.
         11    1    3    3    0    0  0.66750957441E+01 -0.78724510141E+00  0.55636758648E+01  0.87253164661E+01  0.51100000000E-03 0. -1.
        -11    1    3    3    0    0  0.96637546430E+01  0.85502072272E+01  0.10820666994E+01  0.12948554592E+02  0.51100000000E-03 0.  1.
        -12    1    3    3    0    0  0.17212551079E+02  0.44524285780E+00  0.19632614270E+02  0.26113400753E+02  0.00000000000E+00 0.  1.
</event>
<event>
 7    1  0.2294216E-010  0.4778727E+02  0.7816164E-02  0.1312668E+00
        -11   -1    0    0    0    0  0.00000000000E+00  0.00000000000E+00  0.45593999997E+02  0.45594000000E+02  0.51100000000E-03 0.  1.
         11   -1    0    0    0    0 -0.00000000000E+00 -0.00000000000E+00 -0.45593999997E+02  0.45594000000E+02  0.51100000000E-03 0. -1.
    9900012    2    1    2    0    0 -0.46161055287E+01 -0.12185429047E+02 -0.41398433608E+02  0.47787269401E+02  0.19999992505E+02 0.  0.
        -12    1    1    2    0    0  0.46161055287E+01  0.12185429047E+02  0.41398433608E+02  0.43400730599E+02  0.00000000000E+00 0.  1.
         11    1    3    3    0    0 -0.38916616073E+00 -0.10256870642E+02 -0.11727574779E+02  0.15584956083E+02  0.51100000000E-03 0. -1.
        -11    1    3    3    0    0 -0.66609395580E+01 -0.39328364109E+01 -0.26948323074E+02  0.28036537497E+02  0.51100000000E-03 0.  1.
        -12    1    3    3    0    0  0.24340001900E+01  0.20042780056E+01 -0.27225357556E+01  0.41657758208E+01  0.00000000000E+00 0.  1.
</event>
<event>
 7    1  0.2294216E-010  0.4778727E+02  0.7816164E-02  0.1312668E+00
        -11   -1    0    0    0    0  0.00000000000E+00  0.00000000000E+00  0.45593999997E+02  0.45594000000E+02  0.51100000000E-03 0.  1.
         11   -1    0    0    0    0 -0.00000000000E+00 -0.00000000000E+00 -0.45593999997E+02  0.45594000000E+02  0.51100000000E-03 0. -1.
    9900012    2    1    2    0    0  0.14115088264E+02 -0.38633126204E+02  0.13851679310E+02  0.47787272164E+02  0.20000005106E+02 0.  0.
        -12    1    1    2    0    0 -0.14115088264E+02  0.38633126204E+02 -0.13851679310E+02  0.43400727836E+02  0.00000000000E+00 0.  1.
         11    1    3    3    0    0  0.21216435961E+01 -0.67546193551E+01  0.48257986834E+01  0.85682312862E+01  0.51100000000E-03 0.  1.
        -11    1    3    3    0    0 -0.34264029166E+01 -0.44006992118E+01  0.49324554240E+01  0.74455024861E+01  0.51100000000E-03 0. -1.
         12    1    3    3    0    0  0.15419847585E+02 -0.27477807637E+02  0.40934252024E+01  0.31773538392E+02  0.00000000000E+00 0. -1.
</event>
<event>
 7    1  0.2294216E-010  0.4778727E+02  0.7816164E-02  0.1312668E+00
        -11   -1    0    0    0    0  0.00000000000E+00  0.00000000000E+00  0.45593999997E+02  0.45594000000E+02  0.51100000000E-03 0.  1.
         11   -1    0    0    0    0 -0.00000000000E+00 -0.00000000000E+00 -0.45593999997E+02  0.45594000000E+02  0.51100000000E-03 0. -1.
    9900012    2    1    2    0    0 -0.19634595289E+02  0.17061238931E+02 -0.34742195728E+02  0.47787269937E+02  0.19999994951E+02 0.  0.
        -12    1    1    2    0    0  0.19634595289E+02 -0.17061238931E+02  0.34742195728E+02  0.43400730063E+02  0.00000000000E+00 0.  1.
         11    1    3    3    0    0 -0.15242994578E+02  0.15497552604E+02 -0.22639269820E+02  0.31385658486E+02  0.51100000000E-03 0. -1.
        -11    1    3    3    0    0 -0.74272372777E+01  0.17708517631E+01 -0.10439848372E+02  0.12934071433E+02  0.51100000000E-03 0.  1.
        -12    1    3    3    0    0  0.30356365666E+01 -0.20716543538E+00 -0.16630775355E+01  0.34675400172E+01  0.00000000000E+00 0.  1.
</event>
<event>
 7    1  0.2294216E-010  0.4778727E+02  0.7816164E-02  0.1312668E+00
        -11   -1    0    0    0    0  0.00000000000E+00  0.00000000000E+00  0.45593999997E+02  0.45594000000E+02  0.51100000000E-03 0.  1.
         11   -1    0    0    0    0 -0.00000000000E+00 -0.00000000000E+00 -0.45593999997E+02  0.45594000000E+02  0.51100000000E-03 0. -1.
    9900012    2    1    2    0    0  0.24298258128E+02 -0.13253991108E+02 -0.33429769407E+02  0.47787272922E+02  0.20000008559E+02 0.  0.
        -12    1    1    2    0    0 -0.24298258128E+02  0.13253991108E+02  0.33429769407E+02  0.43400727078E+02  0.00000000000E+00 0.  1.
         11    1    3    3    0    0  0.15278124452E+00 -0.17327010185E+01  0.22164783027E-01  0.17395650224E+01  0.51100000000E-03 0. -1.
        -11    1    3    3    0    0  0.17266729901E+02 -0.66336207542E+01 -0.97943351044E+01  0.20930214671E+02  0.51100000000E-03 0.  1.
         12    1    3    3    0    0  0.68787469828E+01 -0.48876693352E+01 -0.23657599085E+02  0.25117493228E+02  0.00000000000E+00 0. -1.
</event>
<event>
 7    1  0.2294216E-010  0.4778727E+02  0.7816164E-02  0.1312668E+00
        -11   -1    0    0    0    0  0.00000000000E+00  0.00000000000E+00  0.45593999997E+02  0.45594000000E+02  0.51100000000E-03 0.  1.
         11   -1    0    0    0    0 -0.00000000000E+00 -0.00000000000E+00 -0.45593999997E+02  0.45594000000E+02  0.51100000000E-03 0. -1.
    9900012    2    1    2    0    0  0.17164785776E+02  0.44482408585E+01 -0.39613211977E+02  0.47787270967E+02  0.19999999647E+02 0.  0.
        -12    1    1    2    0    0 -0.17164785776E+02 -0.44482408585E+01  0.39613211977E+02  0.43400729033E+02  0.00000000000E+00 0.  1.
         11    1    3    3    0    0  0.59243760912E+01  0.35650130742E+01 -0.20174588530E+02  0.21326546202E+02  0.51100000000E-03 0. -1.
        -11    1    3    3    0    0  0.61173345129E+01  0.64106356820E+00 -0.20343234677E+02  0.21252763148E+02  0.51100000000E-03 0.  1.
        -12    1    3    3    0    0  0.51230751720E+01  0.24216421614E+00  0.90461123031E+00  0.52079616169E+01  0.00000000000E+00 0.  1.
</event>
<event>
 7    1  0.2294216E-010  0.4778727E+02  0.7816164E-02  0.1312668E+00
        -11   -1    0    0    0    0  0.00000000000E+00  0.00000000000E+00  0.45593999997E+02  0.45594000000E+02  0.51100000000E-03 0.  1.
         11   -1    0    0    0    0 -0.00000000000E+00 -0.00000000000E+00 -0.45593999997E+02  0.45594000000E+02  0.51100000000E-03 0. -1.
    9900012    2    1    2    0    0  0.38400991867E+02 -0.18942888743E+02 -0.70819898619E+01  0.47787265091E+02  0.19999972854E+02 0.  0.
        -12    1    1    2    0    0 -0.38400991867E+02  0.18942888743E+02  0.70819898619E+01  0.43400734909E+02  0.00000000000E+00 0.  1.
         11    1    3    3    0    0  0.93143684771E+01 -0.11518995360E+02 -0.48617689657E+01  0.15591071547E+02  0.51100000000E-03 0. -1.
        -11    1    3    3    0    0  0.23526913524E+02 -0.91038915018E+01 -0.50627702577E+01  0.25729907566E+02  0.51100000000E-03 0.  1.
        -12    1    3    3    0    0  0.55597098659E+01  0.16799981189E+01  0.28425493615E+01  0.64662859777E+01  0.00000000000E+00 0.  1.
</event>
<event>
 7    1  0.2294216E-010  0.4778727E+02  0.7816164E-02  0.1312668E+00
        -11   -1    0    0    0    0  0.00000000000E+00  0.00000000000E+00  0.45593999997E+02  0.45594000000E+02  0.51100000000E-03 0. -1.
         11   -1    0    0    0    0 -0.00000000000E+00 -0.00000000000E+00 -0.45593999997E+02  0.45594000000E+02  0.51100000000E-03 0.  1.
    9900012    2    1    2    0    0  0.38381577239E+02  0.15809244687E+02 -0.12670660935E+02  0.47787270312E+02  0.19999996661E+02 0.  0.
        -12    1    1    2    0    0 -0.38381577239E+02 -0.15809244687E+02  0.12670660935E+02  0.43400729688E+02  0.00000000000E+00 0.  1.
         11    1    3    3    0    0  0.14893909444E+02 -0.74406601486E+00 -0.85052553473E+01  0.17167455884E+02  0.51100000000E-03 0. -1.
        -11    1    3    3    0    0 -0.43047008337E+00  0.24006556992E+01 -0.10455705705E+01  0.26536145835E+01  0.51100000000E-03 0.  1.
         12    1    3    3    0    0  0.23918137878E+02  0.14152655003E+02 -0.31198350167E+01  0.27966199844E+02  0.00000000000E+00 0. -1.
</event>
<event>
 7    1  0.2294216E-010  0.4778727E+02  0.7816164E-02  0.1312668E+00
        -11   -1    0    0    0    0  0.00000000000E+00  0.00000000000E+00  0.45593999997E+02  0.45594000000E+02  0.51100000000E-03 0. -1.
         11   -1    0    0    0    0 -0.00000000000E+00 -0.00000000000E+00 -0.45593999997E+02  0.45594000000E+02  0.51100000000E-03 0.  1.
    9900012    2    1    2    0    0 -0.41772586520E+02  0.67919764928E+01  0.96199411395E+01  0.47787271933E+02  0.20000004049E+02 0.  0.
        -12    1    1    2    0    0  0.41772586520E+02 -0.67919764928E+01 -0.96199411395E+01  0.43400728067E+02  0.00000000000E+00 0.  1.
         11    1    3    3    0    0 -0.31632902520E+02  0.94833506602E+01  0.72909249798E+01  0.33819107749E+02  0.51100000000E-03 0. -1.
        -11    1    3    3    0    0 -0.50612806152E+01  0.29295177524E+01 -0.52867112284E+00  0.58718079962E+01  0.51100000000E-03 0.  1.
        -12    1    3    3    0    0 -0.50784033848E+01 -0.56208919198E+01  0.28576872826E+01  0.80963561877E+01  0.00000000000E+00 0.  1.
</event>
<event>
 7    1  0.2294216E-010  0.4778727E+02  0.7816164E-02  0.1312668E+00
        -11   -1    0    0    0    0  0.00000000000E+00  0.00000000000E+00  0.45593999997E+02  0.45594000000E+02  0.51100000000E-03 0. -1.
         11   -1    0    0    0    0 -0.00000000000E+00 -0.00000000000E+00 -0.45593999997E+02  0.45594000000E+02  0.51100000000E-03 0.  1.
    9900012    2    1    2    0    0 -0.38336226213E+02 -0.17989034913E+02 -0.95053505009E+01  0.47787270680E+02  0.19999998338E+02 0.  0.
        -12    1    1    2    0    0  0.38336226213E+02  0.17989034913E+02  0.95053505009E+01  0.43400729320E+02  0.00000000000E+00 0.  1.
         11    1    3    3    0    0 -0.13672997457E+02  0.22896484393E+01 -0.45124515495E+01  0.14579285603E+02  0.51100000000E-03 0. -1.
        -11    1    3    3    0    0 -0.19305752857E+00 -0.26352676647E+01 -0.83873919487E-01  0.26436607138E+01  0.51100000000E-03 0.  1.
         12    1    3    3    0    0 -0.24470171227E+02 -0.17643415688E+02 -0.49090250319E+01  0.30564324364E+02  0.00000000000E+00 0. -1.
</event>
<event>
 7    1  0.2294216E-010  0.4778728E+02  0.7816164E-02  0.1312668E+00
        -11   -1    0    0    0    0  0.00000000000E+00  0.00000000000E+00  0.45593999997E+02  0.45594000000E+02  0.51100000000E-03 0. -1.
         11   -1    0    0    0    0 -0.00000000000E+00 -0.00000000000E+00 -0.45593999997E+02  0.45594000000E+02  0.51100000000E-03 0.  1.
    9900012    2    1    2    0    0  0.12397304613E+01 -0.42183318678E+02  0.10131808879E+02  0.47787275842E+02  0.20000021873E+02 0.  0.
        -12    1    1    2    0    0 -0.12397304613E+01  0.42183318678E+02 -0.10131808879E+02  0.43400724158E+02  0.00000000000E+00 0.  1.
         11    1    3    3    0    0  0.41503952757E+01 -0.13422010746E+02  0.89623790219E+01  0.16664344914E+02  0.51100000000E-03 0. -1.
        -11    1    3    3    0    0  0.37160910036E+00 -0.43710001392E+01 -0.40442660124E+01  0.59665587553E+01  0.51100000000E-03 0.  1.
         12    1    3    3    0    0 -0.32822739148E+01 -0.24390307792E+02  0.52136958694E+01  0.25156372172E+02  0.00000000000E+00 0. -1.
</event>
<event>
 7    1  0.2294216E-010  0.4778723E+02  0.7816164E-02  0.1312668E+00
        -11   -1    0    0    0    0  0.00000000000E+00  0.00000000000E+00  0.45593999997E+02  0.45594000000E+02  0.51100000000E-03 0.  1.
         11   -1    0    0    0    0 -0.00000000000E+00 -0.00000000000E+00 -0.45593999997E+02  0.45594000000E+02  0.51100000000E-03 0. -1.
    9900012    2    1    2    0    0 -0.33097121460E+02 -0.20648495024E+02 -0.19022286126E+02  0.47787226215E+02  0.19999795605E+02 0.  0.
        -12    1    1    2    0    0  0.33097121460E+02  0.20648495024E+02  0.19022286126E+02  0.43400773785E+02  0.00000000000E+00 0.  1.
         11    1    3    3    0    0 -0.11071901875E+01 -0.12782485599E+01 -0.24077800569E+01  0.29423110909E+01  0.51100000000E-03 0.  1.
        -11    1    3    3    0    0 -0.82637503735E+01  0.32270014303E+01 -0.40656543186E+01  0.97587219331E+01  0.51100000000E-03 0. -1.
         12    1    3    3    0    0 -0.23726180898E+02 -0.22597247894E+02 -0.12548851750E+02  0.35086193191E+02  0.00000000000E+00 0. -1.
</event>
<event>
 7    1  0.2294216E-010  0.4778727E+02  0.7816164E-02  0.1312668E+00
        -11   -1    0    0    0    0  0.00000000000E+00  0.00000000000E+00  0.45593999997E+02  0.45594000000E+02  0.51100000000E-03 0.  1.
         11   -1    0    0    0    0 -0.00000000000E+00 -0.00000000000E+00 -0.45593999997E+02  0.45594000000E+02  0.51100000000E-03 0. -1.
    9900012    2    1    2    0    0 -0.45123618467E+01  0.18283444218E+02 -0.39102140878E+02  0.47787272320E+02  0.20000005814E+02 0.  0.
        -12    1    1    2    0    0  0.45123618467E+01 -0.18283444218E+02  0.39102140878E+02  0.43400727680E+02  0.00000000000E+00 0.  1.
         11    1    3    3    0    0 -0.74554828569E+00  0.63733783176E+01 -0.13962422673E+02  0.15366360682E+02  0.51100000000E-03 0. -1.
        -11    1    3    3    0    0  0.75171815343E+00 -0.38948436685E+01 -0.59792995264E+01  0.71754379986E+01  0.51100000000E-03 0.  1.
        -12    1    3    3    0    0 -0.45185317145E+01  0.15804909569E+02 -0.19160418678E+02  0.25245473639E+02  0.00000000000E+00 0.  1.
</event>
<event>
 7    1  0.2294216E-010  0.4778727E+02  0.7816164E-02  0.1312668E+00
        -11   -1    0    0    0    0  0.00000000000E+00  0.00000000000E+00  0.45593999997E+02  0.45594000000E+02  0.51100000000E-03 0.  1.
         11   -1    0    0    0    0 -0.00000000000E+00 -0.00000000000E+00 -0.45593999997E+02  0.45594000000E+02  0.51100000000E-03 0. -1.
    9900012    2    1    2    0    0 -0.10425577418E+02 -0.68795635394E+01 -0.41564433432E+02  0.47787272062E+02  0.20000004640E+02 0.  0.
        -12    1    1    2    0    0  0.10425577418E+02  0.68795635394E+01  0.41564433432E+02  0.43400727938E+02  0.00000000000E+00 0.  1.
         11    1    3    3    0    0 -0.94162690992E+01 -0.47999613050E+01 -0.17155423101E+02  0.20149796384E+02  0.51100000000E-03 0. -1.
        -11    1    3    3    0    0  0.76811258407E+00 -0.34616407448E+01 -0.45157445106E+00  0.35744752529E+01  0.51100000000E-03 0.  1.
        -12    1    3    3    0    0 -0.17774209033E+01  0.13820385105E+01 -0.23957435880E+02  0.24063000425E+02  0.00000000000E+00 0.  1.
</event>
<event>
 7    1  0.2294216E-010  0.4778727E+02  0.7816164E-02  0.1312668E+00
        -11   -1    0    0    0    0  0.00000000000E+00  0.00000000000E+00  0.45593999997E+02  0.45594000000E+02  0.51100000000E-03 0.  1.
         11   -1    0    0    0    0 -0.00000000000E+00 -0.00000000000E+00 -0.45593999997E+02  0.45594000000E+02  0.51100000000E-03 0. -1.
    9900012    2    1    2    0    0  0.89142728773E+01 -0.42466389243E+02  0.87444107722E+00  0.47787272778E+02  0.20000007902E+02 0.  0.
        -12    1    1    2    0    0 -0.89142728773E+01  0.42466389243E+02 -0.87444107722E+00  0.43400727222E+02  0.00000000000E+00 0.  1.
         11    1    3    3    0    0  0.67219893003E+01 -0.22906433365E+02 -0.10297403359E+01  0.23894564132E+02  0.51100000000E-03 0. -1.
        -11    1    3    3    0    0  0.64342616515E+01 -0.18235132897E+02  0.10366057016E+01  0.19364770756E+02  0.51100000000E-03 0.  1.
        -12    1    3    3    0    0 -0.42419780746E+01 -0.13248229804E+01  0.86757571154E+00  0.45279378893E+01  0.00000000000E+00 0.  1.
</event>
<event>
 7    1  0.2294216E-010  0.4778727E+02  0.7816164E-02  0.1312668E+00
        -11   -1    0    0    0    0  0.00000000000E+00  0.00000000000E+00  0.45593999997E+02  0.45594000000E+02  0.51100000000E-03 0.  1.
         11   -1    0    0    0    0 -0.00000000000E+00 -0.00000000000E+00 -0.45593999997E+02  0.45594000000E+02  0.51100000000E-03 0. -1.
    9900012    2    1    2    0    0 -0.13351239098E+02 -0.12823815390E+02 -0.39254521347E+02  0.47787271057E+02  0.20000000056E+02 0.  0.
        -12    1    1    2    0    0  0.13351239098E+02  0.12823815390E+02  0.39254521347E+02  0.43400728943E+02  0.00000000000E+00 0.  1.
         11    1    3    3    0    0 -0.22598877700E+01 -0.62798125118E+01 -0.14292285696E+02  0.15773793728E+02  0.51100000000E-03 0. -1.
        -11    1    3    3    0    0 -0.45709397920E+01 -0.79132431210E+01 -0.23469166890E+02  0.25185605056E+02  0.51100000000E-03 0.  1.
        -12    1    3    3    0    0 -0.65204115363E+01  0.13692402427E+01 -0.14930687618E+01  0.68278722727E+01  0.00000000000E+00 0.  1.
</event>
<event>
 7    1  0.2294216E-010  0.4778727E+02  0.7816164E-02  0.1312668E+00
        -11   -1    0    0    0    0  0.00000000000E+00  0.00000000000E+00  0.45593999997E+02  0.45594000000E+02  0.51100000000E-03 0.  1.
         11   -1    0    0    0    0 -0.00000000000E+00 -0.00000000000E+00 -0.45593999997E+02  0.45594000000E+02  0.51100000000E-03 0. -1.
    9900012    2    1    2    0    0 -0.23914289574E+02 -0.23651844821E+02 -0.27428451125E+02  0.47787274886E+02  0.20000017516E+02 0.  0.
        -12    1    1    2    0    0  0.23914289574E+02  0.23651844821E+02  0.27428451125E+02  0.43400725114E+02  0.00000000000E+00 0.  1.
         11    1    3    3    0    0  0.83790818393E+00  0.11949861181E+01  0.32676698708E+00  0.14956132094E+01  0.51100000000E-03 0.  1.
        -11    1    3    3    0    0 -0.90518896759E+01 -0.56822298464E+01 -0.15023164181E+02  0.18436916906E+02  0.51100000000E-03 0. -1.
         12    1    3    3    0    0 -0.15700308082E+02 -0.19164601093E+02 -0.12732053931E+02  0.27854744771E+02  0.00000000000E+00 0. -1.
</event>
<event>
 7    1  0.2497605E-010  0.4778727E+02  0.7816164E-02  0.1312668E+00
        -11   -1    0    0    0    0  0.00000000000E+00  0.00000000000E+00  0.45593999997E+02  0.45594000000E+02  0.51100000000E-03 0.  1.
         11   -1    0    0    0    0 -0.00000000000E+00 -0.00000000000E+00 -0.45593999997E+02  0.45594000000E+02  0.51100000000E-03 0. -1.
    9900012    2    1    2    0    0  0.20781493419E+02  0.32565648714E+02  0.19779576740E+02  0.47787267277E+02  0.19999982822E+02 0.  0.
        -12    1    1    2    0    0 -0.20781493419E+02 -0.32565648714E+02 -0.19779576740E+02  0.43400732723E+02  0.00000000000E+00 0.  1.
         11    1    3    3    0    0  0.10706864087E+02  0.20834460633E+02  0.11482694779E+02  0.26087620974E+02  0.51100000000E-03 0. -1.
        -11    1    3    3    0    0  0.83895900499E+01  0.10259466646E+02  0.15282199001E+00  0.13253876108E+02  0.51100000000E-03 0.  1.
        -12    1    3    3    0    0  0.16850392821E+01  0.14717214350E+01  0.81440599713E+01  0.84457701946E+01  0.00000000000E+00 0.  1.
</event>
<event>
 7    1  0.2294216E-010  0.4778726E+02  0.7816164E-02  0.1312668E+00
        -11   -1    0    0    0    0  0.00000000000E+00  0.00000000000E+00  0.45593999997E+02  0.45594000000E+02  0.51100000000E-03 0.  1.
         11   -1    0    0    0    0 -0.00000000000E+00 -0.00000000000E+00 -0.45593999997E+02  0.45594000000E+02  0.51100000000E-03 0. -1.
    9900012    2    1    2    0    0 -0.18997050353E+02  0.16371115039E+01 -0.38987895070E+02  0.47787262469E+02  0.19999960902E+02 0.  0.
        -12    1    1    2    0    0  0.18997050353E+02 -0.16371115039E+01  0.38987895070E+02  0.43400737531E+02  0.00000000000E+00 0.  1.
         11    1    3    3    0    0 -0.44477175518E+01 -0.39825188407E+01 -0.90030946375E+01  0.10802701562E+02  0.51100000000E-03 0. -1.
        -11    1    3    3    0    0 -0.10447643893E+02  0.10516298751E+02 -0.17300733471E+02  0.22782914239E+02  0.51100000000E-03 0.  1.
        -12    1    3    3    0    0 -0.41016889087E+01 -0.48966684063E+01 -0.12684066962E+02  0.14201646668E+02  0.00000000000E+00 0.  1.
</event>
<event>
 7    1  0.2294216E-010  0.4778727E+02  0.7816164E-02  0.1312668E+00
        -11   -1    0    0    0    0  0.00000000000E+00  0.00000000000E+00  0.45593999997E+02  0.45594000000E+02  0.51100000000E-03 0.  1.
         11   -1    0    0    0    0 -0.00000000000E+00 -0.00000000000E+00 -0.45593999997E+02  0.45594000000E+02  0.51100000000E-03 0. -1.
    9900012    2    1    2    0    0 -0.16308296102E+01 -0.43337263676E+02  0.16868546732E+01  0.47787268360E+02  0.19999987761E+02 0.  0.
        -12    1    1    2    0    0  0.16308296102E+01  0.43337263676E+02 -0.16868546732E+01  0.43400731640E+02  0.00000000000E+00 0.  1.
         11    1    3    3    0    0  0.19766972232E+01 -0.51354523754E+01 -0.83716104436E+00  0.55660616137E+01  0.51100000000E-03 0. -1.
        -11    1    3    3    0    0  0.51599210853E+00  0.10904969242E+01  0.24300171565E+01  0.27130084850E+01  0.51100000000E-03 0.  1.
        -12    1    3    3    0    0 -0.41235189418E+01 -0.39292308225E+02  0.93998561007E-01  0.39508198261E+02  0.00000000000E+00 0.  1.
</event>
<event>
 7    1  0.2294216E-010  0.4778727E+02  0.7816164E-02  0.1312668E+00
        -11   -1    0    0    0    0  0.00000000000E+00  0.00000000000E+00  0.45593999997E+02  0.45594000000E+02  0.51100000000E-03 0. -1.
         11   -1    0    0    0    0 -0.00000000000E+00 -0.00000000000E+00 -0.45593999997E+02  0.45594000000E+02  0.51100000000E-03 0.  1.
    9900012    2    1    2    0    0  0.48753017571E+01 -0.28065979144E+02  0.32743782396E+02  0.47787273761E+02  0.20000012384E+02 0.  0.
        -12    1    1    2    0    0 -0.48753017571E+01  0.28065979144E+02 -0.32743782396E+02  0.43400726239E+02  0.00000000000E+00 0.  1.
         11    1    3    3    0    0  0.42281991197E+01 -0.23326551769E+02  0.16781418135E+02  0.29045166209E+02  0.51100000000E-03 0. -1.
        -11    1    3    3    0    0 -0.28784323770E+01 -0.46447887711E+01  0.13120140828E+02  0.14212583554E+02  0.51100000000E-03 0.  1.
        -12    1    3    3    0    0  0.35255350143E+01 -0.94638603763E-01  0.28422234327E+01  0.45295239975E+01  0.00000000000E+00 0.  1.
</event>
<event>
 7    1  0.2294216E-010  0.4778727E+02  0.7816164E-02  0.1312668E+00
        -11   -1    0    0    0    0  0.00000000000E+00  0.00000000000E+00  0.45593999997E+02  0.45594000000E+02  0.51100000000E-03 0.  1.
         11   -1    0    0    0    0 -0.00000000000E+00 -0.00000000000E+00 -0.45593999997E+02  0.45594000000E+02  0.51100000000E-03 0. -1.
    9900012    2    1    2    0    0 -0.36795241510E+02  0.22626380594E+02 -0.42166771623E+01  0.47787271171E+02  0.20000000578E+02 0.  0.
        -12    1    1    2    0    0  0.36795241510E+02 -0.22626380594E+02  0.42166771623E+01  0.43400728829E+02  0.00000000000E+00 0.  1.
         11    1    3    3    0    0 -0.23100967741E+02  0.22846099548E+02 -0.34778562381E+01  0.32675594247E+02  0.51100000000E-03 0. -1.
        -11    1    3    3    0    0 -0.25726430456E+01  0.15556753662E+01 -0.22406334686E+01  0.37495408635E+01  0.51100000000E-03 0.  1.
        -12    1    3    3    0    0 -0.11121630724E+02 -0.17753943201E+01  0.15018125444E+01  0.11362136061E+02  0.00000000000E+00 0.  1.
</event>
<event>
 7    1  0.2294216E-010  0.4778727E+02  0.7816164E-02  0.1312668E+00
        -11   -1    0    0    0    0  0.00000000000E+00  0.00000000000E+00  0.45593999997E+02  0.45594000000E+02  0.51100000000E-03 0.  1.
         11   -1    0    0    0    0 -0.00000000000E+00 -0.00000000000E+00 -0.45593999997E+02  0.45594000000E+02  0.51100000000E-03 0. -1.
    9900012    2    1    2    0    0  0.42478616387E+01  0.19384326283E+02 -0.38598275210E+02  0.47787270938E+02  0.19999999514E+02 0.  0.
        -12    1    1    2    0    0 -0.42478616387E+01 -0.19384326283E+02  0.38598275210E+02  0.43400729062E+02  0.00000000000E+00 0.  1.
         11    1    3    3    0    0  0.42860883148E+00  0.11454999484E+02 -0.12734406758E+02  0.17133762998E+02  0.51100000000E-03 0. -1.
        -11    1    3    3    0    0 -0.24286794102E+01  0.53100199381E+01 -0.22192692198E+02  0.22947992999E+02  0.51100000000E-03 0.  1.
        -12    1    3    3    0    0  0.62479322175E+01  0.26193068610E+01 -0.36711762534E+01  0.77055149413E+01  0.00000000000E+00 0.  1.
</event>
<event>
 7    1  0.2294216E-010  0.4778727E+02  0.7816164E-02  0.1312668E+00
        -11   -1    0    0    0    0  0.00000000000E+00  0.00000000000E+00  0.45593999997E+02  0.45594000000E+02  0.51100000000E-03 0.  1.
         11   -1    0    0    0    0 -0.00000000000E+00 -0.00000000000E+00 -0.45593999997E+02  0.45594000000E+02  0.51100000000E-03 0. -1.
    9900012    2    1    2    0    0  0.16459683633E+02  0.39815828128E+02  0.52346814102E+01  0.47787271385E+02  0.20000001553E+02 0.  0.
        -12    1    1    2    0    0 -0.16459683633E+02 -0.39815828128E+02 -0.52346814102E+01  0.43400728615E+02  0.00000000000E+00 0.  1.
         11    1    3    3    0    0  0.25438470150E+01  0.10312800215E+02  0.29570445406E+01  0.11025838679E+02  0.51100000000E-03 0. -1.
        -11    1    3    3    0    0  0.10110709915E+02  0.44439749002E+01 -0.14625221014E+01  0.11140661518E+02  0.51100000000E-03 0.  1.
        -12    1    3    3    0    0  0.38051267033E+01  0.25059053013E+02  0.37401589711E+01  0.25620771188E+02  0.00000000000E+00 0.  1.
</event>
<event>
 7    1  0.2294216E-010  0.4778727E+02  0.7816164E-02  0.1312668E+00
        -11   -1    0    0    0    0  0.00000000000E+00  0.00000000000E+00  0.45593999997E+02  0.45594000000E+02  0.51100000000E-03 0.  1.
         11   -1    0    0    0    0 -0.00000000000E+00 -0.00000000000E+00 -0.45593999997E+02  0.45594000000E+02  0.51100000000E-03 0. -1.
    9900012    2    1    2    0    0 -0.32347563471E+02 -0.20945065819E+02 -0.19964034325E+02  0.47787270614E+02  0.19999998040E+02 0.  0.
        -12    1    1    2    0    0  0.32347563471E+02  0.20945065819E+02  0.19964034325E+02  0.43400729386E+02  0.00000000000E+00 0.  1.
         11    1    3    3    0    0 -0.30109568499E+02 -0.12812121308E+02 -0.14349279069E+02  0.35730076653E+02  0.51100000000E-03 0. -1.
        -11    1    3    3    0    0 -0.45232648632E+01 -0.57290032288E+01 -0.44110128738E+01  0.85286832425E+01  0.51100000000E-03 0.  1.
         12    1    3    3    0    0  0.22852698915E+01 -0.24039412825E+01 -0.12037423829E+01  0.35285107185E+01  0.00000000000E+00 0. -1.
</event>
<event>
 7    1  0.2294216E-010  0.4778727E+02  0.7816164E-02  0.1312668E+00
        -11   -1    0    0    0    0  0.00000000000E+00  0.00000000000E+00  0.45593999997E+02  0.45594000000E+02  0.51100000000E-03 0.  1.
         11   -1    0    0    0    0 -0.00000000000E+00 -0.00000000000E+00 -0.45593999997E+02  0.45594000000E+02  0.51100000000E-03 0. -1.
    9900012    2    1    2    0    0  0.24953660791E+02  0.19553542410E+02 -0.29641138258E+02  0.47787270917E+02  0.19999999421E+02 0.  0.
        -12    1    1    2    0    0 -0.24953660791E+02 -0.19553542410E+02  0.29641138258E+02  0.43400729083E+02  0.00000000000E+00 0.  1.
         11    1    3    3    0    0  0.87413425106E+01  0.12830659191E+02 -0.82603167368E+01  0.17586065991E+02  0.51100000000E-03 0. -1.
        -11    1    3    3    0    0  0.55764591698E+01  0.45033215970E+01 -0.11805112720E+01  0.72643244285E+01  0.51100000000E-03 0.  1.
        -12    1    3    3    0    0  0.10635859111E+02  0.22195616218E+01 -0.20200310249E+02  0.22936880498E+02  0.00000000000E+00 0.  1.
</event>
<event>
 7    1  0.2294216E-010  0.4778727E+02  0.7816164E-02  0.1312668E+00
        -11   -1    0    0    0    0  0.00000000000E+00  0.00000000000E+00  0.45593999997E+02  0.45594000000E+02  0.51100000000E-03 0. -1.
         11   -1    0    0    0    0 -0.00000000000E+00 -0.00000000000E+00 -0.45593999997E+02  0.45594000000E+02  0.51100000000E-03 0.  1.
    9900012    2    1    2    0    0 -0.71699425443E+01 -0.41618700248E+02  0.10004945837E+02  0.47787271577E+02  0.20000002430E+02 0.  0.
        -12    1    1    2    0    0  0.71699425443E+01  0.41618700248E+02 -0.10004945837E+02  0.43400728423E+02  0.00000000000E+00 0.  1.
         11    1    3    3    0    0 -0.75109434368E+01 -0.27357226036E+02  0.78986302179E+01  0.29448606881E+02  0.51100000000E-03 0. -1.
        -11    1    3    3    0    0 -0.34685177215E+01 -0.13873748506E+02  0.92174408812E+00  0.14330426553E+02  0.51100000000E-03 0.  1.
        -12    1    3    3    0    0  0.38095186140E+01 -0.38772570674E+00  0.11845715312E+01  0.40082381425E+01  0.00000000000E+00 0.  1.
</event>
<event>
 7    1  0.2294216E-010  0.4778727E+02  0.7816164E-02  0.1312668E+00
        -11   -1    0    0    0    0  0.00000000000E+00  0.00000000000E+00  0.45593999997E+02  0.45594000000E+02  0.51100000000E-03 0.  1.
         11   -1    0    0    0    0 -0.00000000000E+00 -0.00000000000E+00 -0.45593999997E+02  0.45594000000E+02  0.51100000000E-03 0. -1.
    9900012    2    1    2    0    0  0.40347691086E+02 -0.14949560580E+02 -0.56743147108E+01  0.47787269765E+02  0.19999994166E+02 0.  0.
        -12    1    1    2    0    0 -0.40347691086E+02  0.14949560580E+02  0.56743147108E+01  0.43400730235E+02  0.00000000000E+00 0.  1.
         11    1    3    3    0    0  0.75307118687E+01 -0.21876836328E+01 -0.63452353444E+01  0.10087595985E+02  0.51100000000E-03 0. -1.
        -11    1    3    3    0    0 -0.71746857238E-01 -0.12351684152E+01  0.25127951260E+01  0.28008799032E+01  0.51100000000E-03 0.  1.
         12    1    3    3    0    0  0.32888726074E+02 -0.11526708532E+02 -0.18418744924E+01  0.34898793876E+02  0.00000000000E+00 0. -1.
</event>
<event>
 7    1  0.2294216E-010  0.4778728E+02  0.7816164E-02  0.1312668E+00
        -11   -1    0    0    0    0  0.00000000000E+00  0.00000000000E+00  0.45593999997E+02  0.45594000000E+02  0.51100000000E-03 0.  1.
         11   -1    0    0    0    0 -0.00000000000E+00 -0.00000000000E+00 -0.45593999997E+02  0.45594000000E+02  0.51100000000E-03 0. -1.
    9900012    2    1    2    0    0 -0.49769882505E+01 -0.79526378714E+01 -0.42374611862E+02  0.47787278905E+02  0.20000035837E+02 0.  0.
        -12    1    1    2    0    0  0.49769882505E+01  0.79526378714E+01  0.42374611862E+02  0.43400721095E+02  0.00000000000E+00 0.  1.
         11    1    3    3    0    0  0.34878803136E+01  0.15550727908E+00 -0.28640302590E+01  0.45157680611E+01  0.51100000000E-03 0.  1.
        -11    1    3    3    0    0 -0.15236998189E+00 -0.92509954875E+01 -0.20409667730E+02  0.22408897144E+02  0.51100000000E-03 0. -1.
         12    1    3    3    0    0 -0.83124985823E+01  0.11428503371E+01 -0.19100913873E+02  0.20862613699E+02  0.00000000000E+00 0. -1.
</event>
<event>
 7    1  0.2294216E-010  0.4778727E+02  0.7816164E-02  0.1312668E+00
        -11   -1    0    0    0    0  0.00000000000E+00  0.00000000000E+00  0.45593999997E+02  0.45594000000E+02  0.51100000000E-03 0. -1.
         11   -1    0    0    0    0 -0.00000000000E+00 -0.00000000000E+00 -0.45593999997E+02  0.45594000000E+02  0.51100000000E-03 0.  1.
    9900012    2    1    2    0    0 -0.33146784529E+02 -0.27865442307E+02  0.29037125694E+01  0.47787265603E+02  0.19999975188E+02 0.  0.
        -12    1    1    2    0    0  0.33146784529E+02  0.27865442307E+02 -0.29037125694E+01  0.43400734397E+02  0.00000000000E+00 0.  1.
         11    1    3    3    0    0 -0.10184324940E+02 -0.18450709751E+02  0.10225246815E+01  0.21099637954E+02  0.51100000000E-03 0. -1.
        -11    1    3    3    0    0 -0.24526408722E+01 -0.21690014680E+00 -0.27988692982E+01  0.37277556962E+01  0.51100000000E-03 0.  1.
         12    1    3    3    0    0 -0.20509818716E+02 -0.91978324093E+01  0.46800571861E+01  0.22959871953E+02  0.00000000000E+00 0. -1.
</event>
<event>
 7    1  0.2294216E-010  0.4778727E+02  0.7816164E-02  0.1312668E+00
        -11   -1    0    0    0    0  0.00000000000E+00  0.00000000000E+00  0.45593999997E+02  0.45594000000E+02  0.51100000000E-03 0.  1.
         11   -1    0    0    0    0 -0.00000000000E+00 -0.00000000000E+00 -0.45593999997E+02  0.45594000000E+02  0.51100000000E-03 0. -1.
    9900012    2    1    2    0    0  0.29920234011E+02 -0.28387988332E+02 -0.13510187406E+02  0.47787269033E+02  0.19999990827E+02 0.  0.
        -12    1    1    2    0    0 -0.29920234011E+02  0.28387988332E+02  0.13510187406E+02  0.43400730967E+02  0.00000000000E+00 0.  1.
         11    1    3    3    0    0  0.38176339210E+01 -0.11280478169E+01  0.20377946249E+01  0.44720719835E+01  0.51100000000E-03 0. -1.
        -11    1    3    3    0    0  0.60014660279E+01  0.35068656131E-01  0.47521124119E-01  0.60017566440E+01  0.51100000000E-03 0.  1.
         12    1    3    3    0    0  0.20101134062E+02 -0.27295009171E+02 -0.15595503155E+02  0.37313440405E+02  0.00000000000E+00 0. -1.
</event>
<event>
 7    1  0.2294216E-010  0.4778726E+02  0.7816164E-02  0.1312668E+00
        -11   -1    0    0    0    0  0.00000000000E+00  0.00000000000E+00  0.45593999997E+02  0.45594000000E+02  0.51100000000E-03 0. -1.
         11   -1    0    0    0    0 -0.00000000000E+00 -0.00000000000E+00 -0.45593999997E+02  0.45594000000E+02  0.51100000000E-03 0.  1.
    9900012    2    1    2    0    0 -0.31365307971E+02 -0.33047766753E+01  0.29814761405E+02  0.47787261635E+02  0.19999957099E+02 0.  0.
        -12    1    1    2    0    0  0.31365307971E+02  0.33047766753E+01 -0.29814761405E+02  0.43400738365E+02  0.00000000000E+00 0.  1.
         11    1    3    3    0    0 -0.13196614213E+01  0.11773227628E+01  0.53850807496E+01  0.56680411163E+01  0.51100000000E-03 0. -1.
        -11    1    3    3    0    0 -0.29644013311E+00  0.33658914592E+01  0.37528978781E+01  0.50498856237E+01  0.51100000000E-03 0.  1.
         12    1    3    3    0    0 -0.29749206417E+02 -0.78479908972E+01  0.20676782777E+02  0.37069334895E+02  0.00000000000E+00 0. -1.
</event>
<event>
 7    1  0.2294216E-010  0.4778727E+02  0.7816164E-02  0.1312668E+00
        -11   -1    0    0    0    0  0.00000000000E+00  0.00000000000E+00  0.45593999997E+02  0.45594000000E+02  0.51100000000E-03 0.  1.
         11   -1    0    0    0    0 -0.00000000000E+00 -0.00000000000E+00 -0.45593999997E+02  0.45594000000E+02  0.51100000000E-03 0. -1.
    9900012    2    1    2    0    0  0.43112299094E+02 -0.49167984815E+01  0.88195566142E+00  0.47787273206E+02  0.20000009856E+02 0.  0.
        -12    1    1    2    0    0 -0.43112299094E+02  0.49167984815E+01 -0.88195566142E+00  0.43400726794E+02  0.00000000000E+00 0.  1.
         11    1    3    3    0    0  0.26464650133E+02 -0.58101973930E+01  0.19359456197E+01  0.27164020066E+02  0.51100000000E-03 0. -1.
        -11    1    3    3    0    0  0.77565385393E+01 -0.62670515070E+00  0.54520022202E+01  0.95016302774E+01  0.51100000000E-03 0.  1.
        -12    1    3    3    0    0  0.88911104211E+01  0.15201040622E+01 -0.65059921785E+01  0.11121622863E+02  0.00000000000E+00 0.  1.
</event>
<event>
 7    1  0.2294216E-010  0.4778727E+02  0.7816164E-02  0.1312668E+00
        -11   -1    0    0    0    0  0.00000000000E+00  0.00000000000E+00  0.45593999997E+02  0.45594000000E+02  0.51100000000E-03 0.  1.
         11   -1    0    0    0    0 -0.00000000000E+00 -0.00000000000E+00 -0.45593999997E+02  0.45594000000E+02  0.51100000000E-03 0. -1.
    9900012    2    1    2    0    0 -0.17281996651E+02  0.15892623695E+01 -0.39779772369E+02  0.47787268982E+02  0.19999990597E+02 0.  0.
        -12    1    1    2    0    0  0.17281996651E+02 -0.15892623695E+01  0.39779772369E+02  0.43400731018E+02  0.00000000000E+00 0.  1.
         11    1    3    3    0    0 -0.17812294974E+02  0.69288174616E+00 -0.18883569772E+02  0.25968194873E+02  0.51100000000E-03 0. -1.
        -11    1    3    3    0    0  0.11903098325E+01 -0.72063924698E+00 -0.71866632767E+00  0.15660906658E+01  0.51100000000E-03 0.  1.
         12    1    3    3    0    0 -0.66001150926E+00  0.16170198704E+01 -0.20177536270E+02  0.20252983444E+02  0.00000000000E+00 0. -1.
</event>
<event>
 7    1  0.2294216E-010  0.4778725E+02  0.7816164E-02  0.1312668E+00
        -11   -1    0    0    0    0  0.00000000000E+00  0.00000000000E+00  0.45593999997E+02  0.45594000000E+02  0.51100000000E-03 0.  1.
         11   -1    0    0    0    0 -0.00000000000E+00 -0.00000000000E+00 -0.45593999997E+02  0.45594000000E+02  0.51100000000E-03 0. -1.
    9900012    2    1    2    0    0 -0.73712358324E+01 -0.71776725069E+01 -0.42163619799E+02  0.47787251909E+02  0.19999912752E+02 0.  0.
        -12    1    1    2    0    0  0.73712358324E+01  0.71776725069E+01  0.42163619799E+02  0.43400748091E+02  0.00000000000E+00 0.  1.
         11    1    3    3    0    0  0.14984602049E+01 -0.28989360883E+01 -0.32002717625E+01  0.45706622107E+01  0.51100000000E-03 0. -1.
        -11    1    3    3    0    0 -0.25471017093E+01 -0.33844867953E+01 -0.54451750381E+00  0.42707115985E+01  0.51100000000E-03 0.  1.
         12    1    3    3    0    0 -0.63225943280E+01 -0.89424962338E+00 -0.38418830533E+02  0.38945878100E+02  0.00000000000E+00 0. -1.
</event>
<event>
 7    1  0.2294216E-010  0.4778727E+02  0.7816164E-02  0.1312668E+00
        -11   -1    0    0    0    0  0.00000000000E+00  0.00000000000E+00  0.45593999997E+02  0.45594000000E+02  0.51100000000E-03 0.  1.
         11   -1    0    0    0    0 -0.00000000000E+00 -0.00000000000E+00 -0.45593999997E+02  0.45594000000E+02  0.51100000000E-03 0. -1.
    9900012    2    1    2    0    0  0.11118273155E+01  0.43338353524E+02  0.20431204994E+01  0.47787269735E+02  0.19999994029E+02 0.  0.
        -12    1    1    2    0    0 -0.11118273155E+01 -0.43338353524E+02 -0.20431204994E+01  0.43400730265E+02  0.00000000000E+00 0.  1.
         11    1    3    3    0    0 -0.79689757095E+01  0.26490529178E+02  0.47799843554E+01  0.28073135926E+02  0.51100000000E-03 0. -1.
        -11    1    3    3    0    0 -0.73840648497E-01  0.15224864696E+01  0.43047539935E+00  0.15838960894E+01  0.51100000000E-03 0.  1.
         12    1    3    3    0    0  0.91546436736E+01  0.15325337876E+02 -0.31673392553E+01  0.18130237720E+02  0.00000000000E+00 0. -1.
</event>
<event>
 7    1  0.2294216E-010  0.4778727E+02  0.7816164E-02  0.1312668E+00
        -11   -1    0    0    0    0  0.00000000000E+00  0.00000000000E+00  0.45593999997E+02  0.45594000000E+02  0.51100000000E-03 0.  1.
         11   -1    0    0    0    0 -0.00000000000E+00 -0.00000000000E+00 -0.45593999997E+02  0.45594000000E+02  0.51100000000E-03 0. -1.
    9900012    2    1    2    0    0 -0.41519411380E+02 -0.12410201775E+02 -0.23976285352E+01  0.47787271296E+02  0.20000001147E+02 0.  0.
        -12    1    1    2    0    0  0.41519411380E+02  0.12410201775E+02  0.23976285352E+01  0.43400728704E+02  0.00000000000E+00 0.  1.
         11    1    3    3    0    0 -0.25999394159E+02 -0.59565545054E+01  0.42682487263E+01  0.27012348762E+02  0.51100000000E-03 0. -1.
        -11    1    3    3    0    0 -0.56783892005E+01  0.47388147507E-01  0.21262607083E+01  0.60636073760E+01  0.51100000000E-03 0.  1.
        -12    1    3    3    0    0 -0.98416280208E+01 -0.65010354176E+01 -0.87921379698E+01  0.14711315158E+02  0.00000000000E+00 0.  1.
</event>
<event>
 7    1  0.2294216E-010  0.4778727E+02  0.7816164E-02  0.1312668E+00
        -11   -1    0    0    0    0  0.00000000000E+00  0.00000000000E+00  0.45593999997E+02  0.45594000000E+02  0.51100000000E-03 0. -1.
         11   -1    0    0    0    0 -0.00000000000E+00 -0.00000000000E+00 -0.45593999997E+02  0.45594000000E+02  0.51100000000E-03 0.  1.
    9900012    2    1    2    0    0 -0.35463498082E+02 -0.10103723461E+02  0.22888388507E+02  0.47787271291E+02  0.20000001126E+02 0.  0.
        -12    1    1    2    0    0  0.35463498082E+02  0.10103723461E+02 -0.22888388507E+02  0.43400728709E+02  0.00000000000E+00 0.  1.
         11    1    3    3    0    0 -0.89547374393E+01 -0.56660835947E+01  0.39008654022E+01  0.11291969583E+02  0.51100000000E-03 0. -1.
        -11    1    3    3    0    0 -0.94741366896E+01  0.53916619245E+01  0.10291520838E+02  0.14991487109E+02  0.51100000000E-03 0.  1.
        -12    1    3    3    0    0 -0.17034623953E+02 -0.98293017904E+01  0.86960022669E+01  0.21503814600E+02  0.00000000000E+00 0.  1.
</event>
<event>
 7    1  0.2294216E-010  0.4778727E+02  0.7816164E-02  0.1312668E+00
        -11   -1    0    0    0    0  0.00000000000E+00  0.00000000000E+00  0.45593999997E+02  0.45594000000E+02  0.51100000000E-03 0.  1.
         11   -1    0    0    0    0 -0.00000000000E+00 -0.00000000000E+00 -0.45593999997E+02  0.45594000000E+02  0.51100000000E-03 0. -1.
    9900012    2    1    2    0    0  0.37652344979E+02  0.17865071349E+01 -0.21511221689E+02  0.47787270182E+02  0.19999996069E+02 0.  0.
        -12    1    1    2    0    0 -0.37652344979E+02 -0.17865071349E+01  0.21511221689E+02  0.43400729818E+02  0.00000000000E+00 0.  1.
         11    1    3    3    0    0  0.85808951182E+01  0.28409999302E+01 -0.31493109969E+01  0.95718964500E+01  0.51100000000E-03 0. -1.
        -11    1    3    3    0    0  0.58584294919E+01  0.25147754058E+00  0.30486739504E+01  0.66089976685E+01  0.51100000000E-03 0.  1.
         12    1    3    3    0    0  0.23213020369E+02 -0.13059703358E+01 -0.21410584642E+02  0.31606376064E+02  0.00000000000E+00 0. -1.
</event>
<event>
 7    1  0.2294216E-010  0.4778727E+02  0.7816164E-02  0.1312668E+00
        -11   -1    0    0    0    0  0.00000000000E+00  0.00000000000E+00  0.45593999997E+02  0.45594000000E+02  0.51100000000E-03 0.  1.
         11   -1    0    0    0    0 -0.00000000000E+00 -0.00000000000E+00 -0.45593999997E+02  0.45594000000E+02  0.51100000000E-03 0. -1.
    9900012    2    1    2    0    0 -0.11889173165E+02 -0.40498761025E+02 -0.10105508847E+02  0.47787269681E+02  0.19999993784E+02 0.  0.
        -12    1    1    2    0    0  0.11889173165E+02  0.40498761025E+02  0.10105508847E+02  0.43400730319E+02  0.00000000000E+00 0.  1.
         11    1    3    3    0    0 -0.86337874261E+01 -0.99863683836E+01 -0.49644283527E+00  0.13210461558E+02  0.51100000000E-03 0. -1.
        -11    1    3    3    0    0  0.13885708752E+01 -0.90062018066E+01  0.25180489915E+01  0.94541192632E+01  0.51100000000E-03 0.  1.
        -12    1    3    3    0    0 -0.46439566139E+01 -0.21506190835E+02 -0.12127115004E+02  0.25122688861E+02  0.00000000000E+00 0.  1.
</event>
<event>
 7    1  0.2294216E-010  0.4778727E+02  0.7816164E-02  0.1312668E+00
        -11   -1    0    0    0    0  0.00000000000E+00  0.00000000000E+00  0.45593999997E+02  0.45594000000E+02  0.51100000000E-03 0. -1.
         11   -1    0    0    0    0 -0.00000000000E+00 -0.00000000000E+00 -0.45593999997E+02  0.45594000000E+02  0.51100000000E-03 0.  1.
    9900012    2    1    2    0    0 -0.34684683628E+02  0.15601191217E+02  0.20909307192E+02  0.47787267598E+02  0.19999984285E+02 0.  0.
        -12    1    1    2    0    0  0.34684683628E+02 -0.15601191217E+02 -0.20909307192E+02  0.43400732402E+02  0.00000000000E+00 0.  1.
         11    1    3    3    0    0 -0.26397717714E+01  0.43306202607E+01  0.53547076901E+01  0.73753346740E+01  0.51100000000E-03 0. -1.
        -11    1    3    3    0    0 -0.47391378061E+01  0.72714045416E+01 -0.10776793694E+00  0.86801132102E+01  0.51100000000E-03 0.  1.
         12    1    3    3    0    0 -0.27305774051E+02  0.39991664148E+01  0.15662367439E+02  0.31731819713E+02  0.00000000000E+00 0. -1.
</event>
<event>
 7    1  0.2294216E-010  0.4778728E+02  0.7816164E-02  0.1312668E+00
        -11   -1    0    0    0    0  0.00000000000E+00  0.00000000000E+00  0.45593999997E+02  0.45594000000E+02  0.51100000000E-03 0.  1.
         11   -1    0    0    0    0 -0.00000000000E+00 -0.00000000000E+00 -0.45593999997E+02  0.45594000000E+02  0.51100000000E-03 0. -1.
    9900012    2    1    2    0    0  0.31477454897E+02 -0.53898837538E+01 -0.29389481361E+02  0.47787278482E+02  0.20000033909E+02 0.  0.
        -12    1    1    2    0    0 -0.31477454897E+02  0.53898837538E+01  0.29389481361E+02  0.43400721518E+02  0.00000000000E+00 0.  1.
         11    1    3    3    0    0  0.15223026469E+02  0.53699749183E+01 -0.12280323699E+02  0.20282591449E+02  0.51100000000E-03 0. -1.
        -11    1    3    3    0    0  0.40834382110E+01 -0.89708056696E+00  0.16629780344E+00  0.41841219375E+01  0.51100000000E-03 0.  1.
        -12    1    3    3    0    0  0.12170990217E+02 -0.98627781051E+01 -0.17275455465E+02  0.23320565095E+02  0.00000000000E+00 0.  1.
</event>
<event>
 7    1  0.2294216E-010  0.4778727E+02  0.7816164E-02  0.1312668E+00
        -11   -1    0    0    0    0  0.00000000000E+00  0.00000000000E+00  0.45593999997E+02  0.45594000000E+02  0.51100000000E-03 0. -1.
         11   -1    0    0    0    0 -0.00000000000E+00 -0.00000000000E+00 -0.45593999997E+02  0.45594000000E+02  0.51100000000E-03 0.  1.
    9900012    2    1    2    0    0 -0.19200636532E+02 -0.26343233975E+02  0.28652971110E+02  0.47787272208E+02  0.20000005304E+02 0.  0.
        -12    1    1    2    0    0  0.19200636532E+02  0.26343233975E+02 -0.28652971110E+02  0.43400727792E+02  0.00000000000E+00 0.  1.
         11    1    3    3    0    0 -0.43794476155E+01 -0.13517244830E+02  0.10248044927E+02  0.17519072302E+02  0.51100000000E-03 0. -1.
        -11    1    3    3    0    0 -0.15143506473E+01 -0.54002030768E+01  0.12898810141E+02  0.14065374310E+02  0.51100000000E-03 0.  1.
        -12    1    3    3    0    0 -0.13306838269E+02 -0.74257860680E+01  0.55061160411E+01  0.16202825596E+02  0.00000000000E+00 0.  1.
</event>
<event>
 7    1  0.2294216E-010  0.4778727E+02  0.7816164E-02  0.1312668E+00
        -11   -1    0    0    0    0  0.00000000000E+00  0.00000000000E+00  0.45593999997E+02  0.45594000000E+02  0.51100000000E-03 0. -1.
         11   -1    0    0    0    0 -0.00000000000E+00 -0.00000000000E+00 -0.45593999997E+02  0.45594000000E+02  0.51100000000E-03 0.  1.
    9900012    2    1    2    0    0 -0.30413589452E+02 -0.27173212164E+02  0.14840933987E+02  0.47787271846E+02  0.20000003655E+02 0.  0.
        -12    1    1    2    0    0  0.30413589452E+02  0.27173212164E+02 -0.14840933987E+02  0.43400728154E+02  0.00000000000E+00 0.  1.
         11    1    3    3    0    0 -0.10188138405E+02 -0.11594384085E+02  0.66157305690E+01  0.16792730501E+02  0.51100000000E-03 0. -1.
        -11    1    3    3    0    0 -0.17346465180E+02 -0.16662343016E+02  0.21048700787E+01  0.24144647592E+02  0.51100000000E-03 0.  1.
        -12    1    3    3    0    0 -0.28789858668E+01  0.10835149366E+01  0.61203333395E+01  0.68498937529E+01  0.00000000000E+00 0.  1.
</event>
<event>
 7    1  0.2294216E-010  0.4778727E+02  0.7816164E-02  0.1312668E+00
        -11   -1    0    0    0    0  0.00000000000E+00  0.00000000000E+00  0.45593999997E+02  0.45594000000E+02  0.51100000000E-03 0. -1.
         11   -1    0    0    0    0 -0.00000000000E+00 -0.00000000000E+00 -0.45593999997E+02  0.45594000000E+02  0.51100000000E-03 0.  1.
    9900012    2    1    2    0    0 -0.75329651504E+01 -0.24752842147E+01  0.42670256013E+02  0.47787270236E+02  0.19999996312E+02 0.  0.
        -12    1    1    2    0    0  0.75329651504E+01  0.24752842147E+01 -0.42670256013E+02  0.43400729764E+02  0.00000000000E+00 0.  1.
         11    1    3    3    0    0 -0.34997301322E+01  0.32907359659E+01  0.16634235796E+01  0.50837026331E+01  0.51100000000E-03 0. -1.
        -11    1    3    3    0    0 -0.24125010304E+00  0.10761434336E+01  0.15998825450E+00  0.11143979561E+01  0.51100000000E-03 0.  1.
         12    1    3    3    0    0 -0.37919849152E+01 -0.68421636142E+01  0.40846844179E+02  0.41589169646E+02  0.00000000000E+00 0. -1.
</event>
<event>
 7    1  0.2294216E-010  0.4778727E+02  0.7816164E-02  0.1312668E+00
        -11   -1    0    0    0    0  0.00000000000E+00  0.00000000000E+00  0.45593999997E+02  0.45594000000E+02  0.51100000000E-03 0.  1.
         11   -1    0    0    0    0 -0.00000000000E+00 -0.00000000000E+00 -0.45593999997E+02  0.45594000000E+02  0.51100000000E-03 0. -1.
    9900012    2    1    2    0    0  0.38419847349E+02 -0.61176105558E+01 -0.19238331400E+02  0.47787271615E+02  0.20000002603E+02 0.  0.
        -12    1    1    2    0    0 -0.38419847349E+02  0.61176105558E+01  0.19238331400E+02  0.43400728385E+02  0.00000000000E+00 0.  1.
         11    1    3    3    0    0  0.12668883361E+02 -0.74640022508E+01 -0.11914116379E+02  0.18925065510E+02  0.51100000000E-03 0. -1.
        -11    1    3    3    0    0  0.11959440335E+02 -0.16802219821E+01 -0.83855075335E+01  0.14702656083E+02  0.51100000000E-03 0.  1.
        -12    1    3    3    0    0  0.13791523654E+02  0.30266136770E+01  0.10612925129E+01  0.14159550022E+02  0.00000000000E+00 0.  1.
</event>
<event>
 7    1  0.2294216E-010  0.4778727E+02  0.7816164E-02  0.1312668E+00
        -11   -1    0    0    0    0  0.00000000000E+00  0.00000000000E+00  0.45593999997E+02  0.45594000000E+02  0.51100000000E-03 0. -1.
         11   -1    0    0    0    0 -0.00000000000E+00 -0.00000000000E+00 -0.45593999997E+02  0.45594000000E+02  0.51100000000E-03 0.  1.
    9900012    2    1    2    0    0 -0.17413359236E+02 -0.39695478922E+02  0.21603072355E+01  0.47787273577E+02  0.20000011546E+02 0.  0.
        -12    1    1    2    0    0  0.17413359236E+02  0.39695478922E+02 -0.21603072355E+01  0.43400726423E+02  0.00000000000E+00 0.  1.
         11    1    3    3    0    0 -0.16569198898E+01 -0.19956150824E+02  0.61869827324E+01  0.20958819023E+02  0.51100000000E-03 0. -1.
        -11    1    3    3    0    0  0.80210692559E+00 -0.51565866005E+00 -0.81435768917E+00  0.12539769060E+01  0.51100000000E-03 0.  1.
        -12    1    3    3    0    0 -0.16558546272E+02 -0.19223669438E+02 -0.32123178077E+01  0.25574477648E+02  0.00000000000E+00 0.  1.
</event>
<event>
 7    1  0.2294216E-010  0.4778728E+02  0.7816164E-02  0.1312668E+00
        -11   -1    0    0    0    0  0.00000000000E+00  0.00000000000E+00  0.45593999997E+02  0.45594000000E+02  0.51100000000E-03 0.  1.
         11   -1    0    0    0    0 -0.00000000000E+00 -0.00000000000E+00 -0.45593999997E+02  0.45594000000E+02  0.51100000000E-03 0. -1.
    9900012    2    1    2    0    0  0.72087285981E+01 -0.34245593231E+02 -0.25668979301E+02  0.47787275098E+02  0.20000018480E+02 0.  0.
        -12    1    1    2    0    0 -0.72087285981E+01  0.34245593231E+02  0.25668979301E+02  0.43400724902E+02  0.00000000000E+00 0.  1.
         11    1    3    3    0    0  0.11590955521E+02 -0.24435714201E+02 -0.16854053449E+02  0.31867122498E+02  0.51100000000E-03 0. -1.
        -11    1    3    3    0    0  0.63263551772E+00 -0.57042011667E+01 -0.72610500334E+01  0.92553220634E+01  0.51100000000E-03 0.  1.
        -12    1    3    3    0    0 -0.50148624406E+01 -0.41056778633E+01 -0.15538758184E+01  0.66648305360E+01  0.00000000000E+00 0.  1.
</event>
<event>
 7    1  0.2294216E-010  0.4778728E+02  0.7816164E-02  0.1312668E+00
        -11   -1    0    0    0    0  0.00000000000E+00  0.00000000000E+00  0.45593999997E+02  0.45594000000E+02  0.51100000000E-03 0.  1.
         11   -1    0    0    0    0 -0.00000000000E+00 -0.00000000000E+00 -0.45593999997E+02  0.45594000000E+02  0.51100000000E-03 0. -1.
    9900012    2    1    2    0    0  0.14331670092E+02 -0.40323248170E+02 -0.72292331269E+01  0.47787275096E+02  0.20000018473E+02 0.  0.
        -12    1    1    2    0    0 -0.14331670092E+02  0.40323248170E+02  0.72292331269E+01  0.43400724904E+02  0.00000000000E+00 0.  1.
         11    1    3    3    0    0 -0.15629000228E+01 -0.21312620615E+02 -0.53560396474E+00  0.21376560196E+02  0.51100000000E-03 0. -1.
        -11    1    3    3    0    0  0.14922047054E+01 -0.56114248459E+01 -0.71212490308E+00  0.58499475060E+01  0.51100000000E-03 0.  1.
        -12    1    3    3    0    0  0.14402365409E+02 -0.13399202709E+02 -0.59815042591E+01  0.20560767394E+02  0.00000000000E+00 0.  1.
</event>
<event>
 7    1  0.2294216E-010  0.4778727E+02  0.7816164E-02  0.1312668E+00
        -11   -1    0    0    0    0  0.00000000000E+00  0.00000000000E+00  0.45593999997E+02  0.45594000000E+02  0.51100000000E-03 0.  1.
         11   -1    0    0    0    0 -0.00000000000E+00 -0.00000000000E+00 -0.45593999997E+02  0.45594000000E+02  0.51100000000E-03 0. -1.
    9900012    2    1    2    0    0  0.29424886377E+02  0.23763015271E+02 -0.21286583121E+02  0.47787268969E+02  0.19999990538E+02 0.  0.
        -12    1    1    2    0    0 -0.29424886377E+02 -0.23763015271E+02  0.21286583121E+02  0.43400731031E+02  0.00000000000E+00 0.  1.
         11    1    3    3    0    0  0.26181735293E+02  0.24636988727E+02 -0.19446761674E+02  0.40873475707E+02  0.51100000000E-03 0.  1.
        -11    1    3    3    0    0  0.44645680256E+01  0.84214559164E-01 -0.26190773738E+01  0.51767775979E+01  0.51100000000E-03 0. -1.
        -12    1    3    3    0    0 -0.12214169424E+01 -0.95818801487E+00  0.77925592680E+00  0.17370156645E+01  0.00000000000E+00 0.  1.
</event>
<event>
 7    1  0.2294216E-010  0.4778730E+02  0.7816164E-02  0.1312668E+00
        -11   -1    0    0    0    0  0.00000000000E+00  0.00000000000E+00  0.45593999997E+02  0.45594000000E+02  0.51100000000E-03 0. -1.
         11   -1    0    0    0    0 -0.00000000000E+00 -0.00000000000E+00 -0.45593999997E+02  0.45594000000E+02  0.51100000000E-03 0.  1.
    9900012    2    1    2    0    0 -0.94627593543E+01  0.42231816888E+02  0.32481145841E+01  0.47787303916E+02  0.20000149872E+02 0.  0.
        -12    1    1    2    0    0  0.94627593543E+01 -0.42231816888E+02 -0.32481145841E+01  0.43400696084E+02  0.00000000000E+00 0.  1.
         11    1    3    3    0    0 -0.67388345406E+01  0.19801843430E+02  0.19727227645E+01  0.21009915030E+02  0.51100000000E-03 0. -1.
        -11    1    3    3    0    0  0.64222487782E+00  0.22306701041E+02 -0.15657072490E+01  0.22370802480E+02  0.51100000000E-03 0.  1.
        -12    1    3    3    0    0 -0.33661496915E+01  0.12327241639E+00  0.28410990686E+01  0.44065864058E+01  0.00000000000E+00 0.  1.
</event>
<event>
 7    1  0.2294216E-010  0.4778727E+02  0.7816164E-02  0.1312668E+00
        -11   -1    0    0    0    0  0.00000000000E+00  0.00000000000E+00  0.45593999997E+02  0.45594000000E+02  0.51100000000E-03 0.  1.
         11   -1    0    0    0    0 -0.00000000000E+00 -0.00000000000E+00 -0.45593999997E+02  0.45594000000E+02  0.51100000000E-03 0. -1.
    9900012    2    1    2    0    0  0.12281535066E+02  0.77809261529E+01 -0.40893088538E+02  0.47787267223E+02  0.19999982576E+02 0.  0.
        -12    1    1    2    0    0 -0.12281535066E+02 -0.77809261529E+01  0.40893088538E+02  0.43400732777E+02  0.00000000000E+00 0.  1.
         11    1    3    3    0    0  0.11417390214E+02  0.28478535293E+01 -0.27270727823E+02  0.29701172793E+02  0.51100000000E-03 0. -1.
        -11    1    3    3    0    0  0.44088349741E+01 -0.20277740496E+00 -0.98514268466E+01  0.10794885626E+02  0.51100000000E-03 0.  1.
        -12    1    3    3    0    0 -0.35446901223E+01  0.51358500286E+01 -0.37709338692E+01  0.72912088041E+01  0.00000000000E+00 0.  1.
</event>
<event>
 7    1  0.2294216E-010  0.4778727E+02  0.7816164E-02  0.1312668E+00
        -11   -1    0    0    0    0  0.00000000000E+00  0.00000000000E+00  0.45593999997E+02  0.45594000000E+02  0.51100000000E-03 0.  1.
         11   -1    0    0    0    0 -0.00000000000E+00 -0.00000000000E+00 -0.45593999997E+02  0.45594000000E+02  0.51100000000E-03 0. -1.
    9900012    2    1    2    0    0 -0.11020003890E+02  0.27382563915E+02 -0.31817890549E+02  0.47787269000E+02  0.19999990681E+02 0.  0.
        -12    1    1    2    0    0  0.11020003890E+02 -0.27382563915E+02  0.31817890549E+02  0.43400731000E+02  0.00000000000E+00 0.  1.
         11    1    3    3    0    0 -0.74781913981E+01  0.16079094953E+02 -0.10381805001E+02  0.20548540494E+02  0.51100000000E-03 0. -1.
        -11    1    3    3    0    0 -0.65200013161E+01  0.19110170148E+01 -0.69510884157E+01  0.97200840334E+01  0.51100000000E-03 0.  1.
        -12    1    3    3    0    0  0.29781888239E+01  0.93924519477E+01 -0.14484997132E+02  0.17518644473E+02  0.00000000000E+00 0.  1.
</event>
<event>
 7    1  0.2294216E-010  0.4778727E+02  0.7816164E-02  0.1312668E+00
        -11   -1    0    0    0    0  0.00000000000E+00  0.00000000000E+00  0.45593999997E+02  0.45594000000E+02  0.51100000000E-03 0.  1.
         11   -1    0    0    0    0 -0.00000000000E+00 -0.00000000000E+00 -0.45593999997E+02  0.45594000000E+02  0.51100000000E-03 0. -1.
    9900012    2    1    2    0    0 -0.29339704001E+02  0.21508784216E+02  0.23668065044E+02  0.47787270372E+02  0.19999996934E+02 0.  0.
        -12    1    1    2    0    0  0.29339704001E+02 -0.21508784216E+02 -0.23668065044E+02  0.43400729628E+02  0.00000000000E+00 0.  1.
         11    1    3    3    0    0 -0.51479790230E+00  0.27189816211E+01 -0.41346427534E+00  0.27980048078E+01  0.51100000000E-03 0.  1.
        -11    1    3    3    0    0 -0.17710653951E+02  0.18888319628E+02  0.21309737192E+02  0.33534173334E+02  0.51100000000E-03 0. -1.
        -12    1    3    3    0    0 -0.11114252148E+02 -0.98517032476E-01  0.27717921268E+01  0.11455092230E+02  0.00000000000E+00 0.  1.
</event>
<event>
 7    1  0.2294216E-010  0.4778727E+02  0.7816164E-02  0.1312668E+00
        -11   -1    0    0    0    0  0.00000000000E+00  0.00000000000E+00  0.45593999997E+02  0.45594000000E+02  0.51100000000E-03 0.  1.
         11   -1    0    0    0    0 -0.00000000000E+00 -0.00000000000E+00 -0.45593999997E+02  0.45594000000E+02  0.51100000000E-03 0. -1.
    9900012    2    1    2    0    0 -0.53214935884E+01 -0.35303665381E+02 -0.24677048057E+02  0.47787265165E+02  0.19999973194E+02 0.  0.
        -12    1    1    2    0    0  0.53214935884E+01  0.35303665381E+02  0.24677048057E+02  0.43400734835E+02  0.00000000000E+00 0.  1.
         11    1    3    3    0    0 -0.69030912314E+01 -0.21975343742E+02 -0.24814142763E+02  0.33857201338E+02  0.51100000000E-03 0. -1.
        -11    1    3    3    0    0  0.12443318180E+01 -0.41725557758E+01 -0.15349217170E+01  0.46167703337E+01  0.51100000000E-03 0.  1.
         12    1    3    3    0    0  0.33726582499E+00 -0.91557658632E+01  0.16720164222E+01  0.93132934934E+01  0.00000000000E+00 0. -1.
</event>
<event>
 7    1  0.2294216E-010  0.4778727E+02  0.7816164E-02  0.1312668E+00
        -11   -1    0    0    0    0  0.00000000000E+00  0.00000000000E+00  0.45593999997E+02  0.45594000000E+02  0.51100000000E-03 0.  1.
         11   -1    0    0    0    0 -0.00000000000E+00 -0.00000000000E+00 -0.45593999997E+02  0.45594000000E+02  0.51100000000E-03 0. -1.
    9900012    2    1    2    0    0  0.84437045631E+01  0.52063051991E+01 -0.42251881305E+02  0.47787271499E+02  0.20000002073E+02 0.  0.
        -12    1    1    2    0    0 -0.84437045631E+01 -0.52063051991E+01  0.42251881305E+02  0.43400728501E+02  0.00000000000E+00 0.  1.
         11    1    3    3    0    0 -0.10787627889E+01  0.10568617833E+02 -0.17830032580E+02  0.20754986729E+02  0.51100000000E-03 0. -1.
        -11    1    3    3    0    0  0.36200208893E+01 -0.22406661267E+01 -0.14186677585E+02  0.14811716885E+02  0.51100000000E-03 0.  1.
         12    1    3    3    0    0  0.59024464627E+01 -0.31216465071E+01 -0.10235171141E+02  0.12220567886E+02  0.00000000000E+00 0. -1.
</event>
<event>
 7    1  0.2294216E-010  0.4778729E+02  0.7816164E-02  0.1312668E+00
        -11   -1    0    0    0    0  0.00000000000E+00  0.00000000000E+00  0.45593999997E+02  0.45594000000E+02  0.51100000000E-03 0.  1.
         11   -1    0    0    0    0 -0.00000000000E+00 -0.00000000000E+00 -0.45593999997E+02  0.45594000000E+02  0.51100000000E-03 0. -1.
    9900012    2    1    2    0    0  0.43253971724E+02 -0.35576007094E+01 -0.24368580900E+00  0.47787286003E+02  0.20000068200E+02 0.  0.
        -12    1    1    2    0    0 -0.43253971724E+02  0.35576007094E+01  0.24368580900E+00  0.43400713997E+02  0.00000000000E+00 0.  1.
         11    1    3    3    0    0  0.27795950107E+02 -0.12737306611E+01  0.39194513697E+01  0.28099810167E+02  0.51100000000E-03 0. -1.
        -11    1    3    3    0    0  0.11270250651E+02 -0.63059938737E+01 -0.71479889027E+00  0.12934258625E+02  0.51100000000E-03 0.  1.
        -12    1    3    3    0    0  0.41877709663E+01  0.40221238254E+01 -0.34483382884E+01  0.67532172099E+01  0.00000000000E+00 0.  1.
</event>
<event>
 7    1  0.2294216E-010  0.4778722E+02  0.7816164E-02  0.1312668E+00
        -11   -1    0    0    0    0  0.00000000000E+00  0.00000000000E+00  0.45593999997E+02  0.45594000000E+02  0.51100000000E-03 0.  1.
         11   -1    0    0    0    0 -0.00000000000E+00 -0.00000000000E+00 -0.45593999997E+02  0.45594000000E+02  0.51100000000E-03 0. -1.
    9900012    2    1    2    0    0  0.37881456959E+02 -0.18950419782E+02 -0.94606811747E+01  0.47787220288E+02  0.19999768582E+02 0.  0.
        -12    1    1    2    0    0 -0.37881456959E+02  0.18950419782E+02  0.94606811747E+01  0.43400779712E+02  0.00000000000E+00 0.  1.
         11    1    3    3    0    0  0.14052630352E+01 -0.14785971363E+01 -0.53349296740E+01  0.57116099812E+01  0.51100000000E-03 0. -1.
        -11    1    3    3    0    0  0.77267324344E+01  0.75840954356E+00 -0.16948601724E+01  0.79467056328E+01  0.51100000000E-03 0.  1.
         12    1    3    3    0    0  0.28749461490E+02 -0.18230232189E+02 -0.24308913283E+01  0.34128904674E+02  0.00000000000E+00 0. -1.
</event>
<event>
 7    1  0.2294216E-010  0.4778727E+02  0.7816164E-02  0.1312668E+00
        -11   -1    0    0    0    0  0.00000000000E+00  0.00000000000E+00  0.45593999997E+02  0.45594000000E+02  0.51100000000E-03 0.  1.
         11   -1    0    0    0    0 -0.00000000000E+00 -0.00000000000E+00 -0.45593999997E+02  0.45594000000E+02  0.51100000000E-03 0. -1.
    9900012    2    1    2    0    0 -0.38580168104E+02 -0.76238367802E+01 -0.18359489513E+02  0.47787272894E+02  0.20000008434E+02 0.  0.
        -12    1    1    2    0    0  0.38580168104E+02  0.76238367802E+01  0.18359489513E+02  0.43400727106E+02  0.00000000000E+00 0.  1.
         11    1    3    3    0    0 -0.78037322588E+01  0.52270272345E+01 -0.38246839291E+01  0.10141413032E+02  0.51100000000E-03 0. -1.
        -11    1    3    3    0    0 -0.67413726940E+01 -0.68581198010E+01 -0.17654682737E+01  0.97773611722E+01  0.51100000000E-03 0.  1.
         12    1    3    3    0    0 -0.24035063151E+02 -0.59927442136E+01 -0.12769337310E+02  0.27868498689E+02  0.00000000000E+00 0. -1.
</event>
<event>
 7    1  0.2294216E-010  0.4778725E+02  0.7816164E-02  0.1312668E+00
        -11   -1    0    0    0    0  0.00000000000E+00  0.00000000000E+00  0.45593999997E+02  0.45594000000E+02  0.51100000000E-03 0. -1.
         11   -1    0    0    0    0 -0.00000000000E+00 -0.00000000000E+00 -0.45593999997E+02  0.45594000000E+02  0.51100000000E-03 0.  1.
    9900012    2    1    2    0    0  0.11521323028E+02  0.10533455370E+02  0.40496052735E+02  0.47787252847E+02  0.19999917028E+02 0.  0.
        -12    1    1    2    0    0 -0.11521323028E+02 -0.10533455370E+02 -0.40496052735E+02  0.43400747153E+02  0.00000000000E+00 0.  1.
         11    1    3    3    0    0  0.42683555808E+01  0.71979224877E+01  0.71344478872E+01  0.10996785640E+02  0.51100000000E-03 0. -1.
        -11    1    3    3    0    0  0.66525097588E+01 -0.10563623138E+01  0.58425309166E+01  0.89166672699E+01  0.51100000000E-03 0.  1.
        -12    1    3    3    0    0  0.60045768840E+00  0.43918951957E+01  0.27519073931E+02  0.27873799936E+02  0.00000000000E+00 0.  1.
</event>
<event>
 7    1  0.2294216E-010  0.4778727E+02  0.7816164E-02  0.1312668E+00
        -11   -1    0    0    0    0  0.00000000000E+00  0.00000000000E+00  0.45593999997E+02  0.45594000000E+02  0.51100000000E-03 0.  1.
         11   -1    0    0    0    0 -0.00000000000E+00 -0.00000000000E+00 -0.45593999997E+02  0.45594000000E+02  0.51100000000E-03 0. -1.
    9900012    2    1    2    0    0  0.30948325572E+02 -0.23260739549E+02 -0.19615358380E+02  0.47787272536E+02  0.20000006799E+02 0.  0.
        -12    1    1    2    0    0 -0.30948325572E+02  0.23260739549E+02  0.19615358380E+02  0.43400727464E+02  0.00000000000E+00 0.  1.
         11    1    3    3    0    0  0.61887017164E+01 -0.46113909348E+01 -0.62557518314E+00  0.77431453466E+01  0.51100000000E-03 0. -1.
        -11    1    3    3    0    0  0.20782070968E+02 -0.21531905858E+02 -0.18316991194E+02  0.35086031555E+02  0.51100000000E-03 0.  1.
        -12    1    3    3    0    0  0.39775528876E+01  0.28825572441E+01 -0.67279200227E+00  0.49580956341E+01  0.00000000000E+00 0.  1.
</event>
<event>
 7    1  0.2294216E-010  0.4778727E+02  0.7816164E-02  0.1312668E+00
        -11   -1    0    0    0    0  0.00000000000E+00  0.00000000000E+00  0.45593999997E+02  0.45594000000E+02  0.51100000000E-03 0.  1.
         11   -1    0    0    0    0 -0.00000000000E+00 -0.00000000000E+00 -0.45593999997E+02  0.45594000000E+02  0.51100000000E-03 0. -1.
    9900012    2    1    2    0    0 -0.15114946495E+02  0.25341820299E+02 -0.31826935626E+02  0.47787270802E+02  0.19999998893E+02 0.  0.
        -12    1    1    2    0    0  0.15114946495E+02 -0.25341820299E+02  0.31826935626E+02  0.43400729198E+02  0.00000000000E+00 0.  1.
         11    1    3    3    0    0 -0.16037454004E+02  0.16583613604E+02 -0.19641973356E+02  0.30298899133E+02  0.51100000000E-03 0.  1.
        -11    1    3    3    0    0 -0.16326587057E+01  0.87818035263E+01 -0.59029824246E+01  0.10706579724E+02  0.51100000000E-03 0. -1.
        -12    1    3    3    0    0  0.25551662157E+01 -0.23596830912E-01 -0.62819798451E+01  0.67817919442E+01  0.00000000000E+00 0.  1.
</event>
<event>
 7    1  0.2294216E-010  0.4778727E+02  0.7816164E-02  0.1312668E+00
        -11   -1    0    0    0    0  0.00000000000E+00  0.00000000000E+00  0.45593999997E+02  0.45594000000E+02  0.51100000000E-03 0.  1.
         11   -1    0    0    0    0 -0.00000000000E+00 -0.00000000000E+00 -0.45593999997E+02  0.45594000000E+02  0.51100000000E-03 0. -1.
    9900012    2    1    2    0    0 -0.11658793136E+02  0.23047951195E+02 -0.34878185413E+02  0.47787270405E+02  0.19999997083E+02 0.  0.
        -12    1    1    2    0    0  0.11658793136E+02 -0.23047951195E+02  0.34878185413E+02  0.43400729595E+02  0.00000000000E+00 0.  1.
         11    1    3    3    0    0  0.15483988017E+01  0.41676200040E+01 -0.12231553979E+02  0.13014511453E+02  0.51100000000E-03 0. -1.
        -11    1    3    3    0    0 -0.61565544027E+01  0.92902647125E+01 -0.19501065746E+02  0.22461160834E+02  0.51100000000E-03 0.  1.
        -12    1    3    3    0    0 -0.70506375346E+01  0.95900664787E+01 -0.31455656887E+01  0.12311598118E+02  0.00000000000E+00 0.  1.
</event>
<event>
 7    1  0.2294216E-010  0.4778727E+02  0.7816164E-02  0.1312668E+00
        -11   -1    0    0    0    0  0.00000000000E+00  0.00000000000E+00  0.45593999997E+02  0.45594000000E+02  0.51100000000E-03 0.  1.
         11   -1    0    0    0    0 -0.00000000000E+00 -0.00000000000E+00 -0.45593999997E+02  0.45594000000E+02  0.51100000000E-03 0. -1.
    9900012    2    1    2    0    0  0.16342102341E+02 -0.36365555175E+01 -0.40041656235E+02  0.47787273289E+02  0.20000010235E+02 0.  0.
        -12    1    1    2    0    0 -0.16342102341E+02  0.36365555175E+01  0.40041656235E+02  0.43400726711E+02  0.00000000000E+00 0.  1.
         11    1    3    3    0    0  0.98990791397E+00 -0.64274555199E+00 -0.84959368868E+01  0.85775278121E+01  0.51100000000E-03 0. -1.
        -11    1    3    3    0    0 -0.39099331507E+00  0.29467691236E+01 -0.16089192344E+02  0.16361492432E+02  0.51100000000E-03 0.  1.
         12    1    3    3    0    0  0.15743187742E+02 -0.59405790891E+01 -0.15456527004E+02  0.22848253045E+02  0.00000000000E+00 0. -1.
</event>
<event>
 7    1  0.2294216E-010  0.4778727E+02  0.7816164E-02  0.1312668E+00
        -11   -1    0    0    0    0  0.00000000000E+00  0.00000000000E+00  0.45593999997E+02  0.45594000000E+02  0.51100000000E-03 0. -1.
         11   -1    0    0    0    0 -0.00000000000E+00 -0.00000000000E+00 -0.45593999997E+02  0.45594000000E+02  0.51100000000E-03 0.  1.
    9900012    2    1    2    0    0 -0.39387600205E+02  0.74759307457E+01  0.16623807225E+02  0.47787267781E+02  0.19999985122E+02 0.  0.
        -12    1    1    2    0    0  0.39387600205E+02 -0.74759307457E+01 -0.16623807225E+02  0.43400732219E+02  0.00000000000E+00 0.  1.
         11    1    3    3    0    0 -0.12112284205E+02  0.44939694812E+01  0.54044700466E+01  0.14003981117E+02  0.51100000000E-03 0. -1.
        -11    1    3    3    0    0 -0.72443903943E+01 -0.15641287824E+01  0.10973116351E+02  0.13241486840E+02  0.51100000000E-03 0.  1.
        -12    1    3    3    0    0 -0.20030925606E+02  0.45460900469E+01  0.24622082805E+00  0.20541799824E+02  0.00000000000E+00 0.  1.
</event>
<event>
 7    1  0.2294216E-010  0.4778727E+02  0.7816164E-02  0.1312668E+00
        -11   -1    0    0    0    0  0.00000000000E+00  0.00000000000E+00  0.45593999997E+02  0.45594000000E+02  0.51100000000E-03 0.  1.
         11   -1    0    0    0    0 -0.00000000000E+00 -0.00000000000E+00 -0.45593999997E+02  0.45594000000E+02  0.51100000000E-03 0. -1.
    9900012    2    1    2    0    0  0.21769349649E+02 -0.35513571524E+02 -0.12186261418E+02  0.47787270584E+02  0.19999997900E+02 0.  0.
        -12    1    1    2    0    0 -0.21769349649E+02  0.35513571524E+02  0.12186261418E+02  0.43400729416E+02  0.00000000000E+00 0.  1.
         11    1    3    3    0    0  0.24454130412E+01 -0.29430587474E+00 -0.22073282202E+01  0.33074097150E+01  0.51100000000E-03 0. -1.
        -11    1    3    3    0    0  0.11605574062E+01 -0.69560724450E+01 -0.82296985492E+01  0.10837978401E+02  0.51100000000E-03 0.  1.
         12    1    3    3    0    0  0.18163379201E+02 -0.28263193204E+02 -0.17492346482E+01  0.33641882468E+02  0.00000000000E+00 0. -1.
</event>
<event>
 7    1  0.2294216E-010  0.4778728E+02  0.7816164E-02  0.1312668E+00
        -11   -1    0    0    0    0  0.00000000000E+00  0.00000000000E+00  0.45593999997E+02  0.45594000000E+02  0.51100000000E-03 0. -1.
         11   -1    0    0    0    0 -0.00000000000E+00 -0.00000000000E+00 -0.45593999997E+02  0.45594000000E+02  0.51100000000E-03 0.  1.
    9900012    2    1    2    0    0  0.28096956870E+02 -0.31966685005E+02  0.85037994756E+01  0.47787279487E+02  0.20000038492E+02 0.  0.
        -12    1    1    2    0    0 -0.28096956870E+02  0.31966685005E+02 -0.85037994756E+01  0.43400720513E+02  0.00000000000E+00 0.  1.
         11    1    3    3    0    0  0.61656696614E+01 -0.17310422166E+02  0.56310336243E+01  0.19219124274E+02  0.51100000000E-03 0. -1.
        -11    1    3    3    0    0  0.36300428306E+01 -0.67024275797E+01  0.39483917020E+01  0.85842613956E+01  0.51100000000E-03 0.  1.
         12    1    3    3    0    0  0.18301244378E+02 -0.79538352593E+01 -0.10756258507E+01  0.19983893817E+02  0.00000000000E+00 0. -1.
</event>
<event>
 7    1  0.2294216E-010  0.4778727E+02  0.7816164E-02  0.1312668E+00
        -11   -1    0    0    0    0  0.00000000000E+00  0.00000000000E+00  0.45593999997E+02  0.45594000000E+02  0.51100000000E-03 0. -1.
         11   -1    0    0    0    0 -0.00000000000E+00 -0.00000000000E+00 -0.45593999997E+02  0.45594000000E+02  0.51100000000E-03 0.  1.
    9900012    2    1    2    0    0  0.17753014886E+02  0.28529234610E+02  0.27468831203E+02  0.47787268985E+02  0.19999990610E+02 0.  0.
        -12    1    1    2    0    0 -0.17753014886E+02 -0.28529234610E+02 -0.27468831203E+02  0.43400731015E+02  0.00000000000E+00 0.  1.
         11    1    3    3    0    0  0.94709115648E+01  0.23908981897E+02  0.99306734065E+01  0.27567296853E+02  0.51100000000E-03 0. -1.
        -11    1    3    3    0    0 -0.75633385708E-02 -0.32187831669E+00  0.12169983316E+01  0.12588677671E+01  0.51100000000E-03 0.  1.
         12    1    3    3    0    0  0.82896666599E+01  0.49421310295E+01  0.16321159465E+02  0.18961104365E+02  0.00000000000E+00 0. -1.
</event>
<event>
 7    1  0.2294216E-010  0.4778728E+02  0.7816164E-02  0.1312668E+00
        -11   -1    0    0    0    0  0.00000000000E+00  0.00000000000E+00  0.45593999997E+02  0.45594000000E+02  0.51100000000E-03 0. -1.
         11   -1    0    0    0    0 -0.00000000000E+00 -0.00000000000E+00 -0.45593999997E+02  0.45594000000E+02  0.51100000000E-03 0.  1.
    9900012    2    1    2    0    0 -0.29495613612E+02  0.29301704324E+02 -0.12451562028E+02  0.47787280011E+02  0.20000040883E+02 0.  0.
        -12    1    1    2    0    0  0.29495613612E+02 -0.29301704324E+02  0.12451562028E+02  0.43400719989E+02  0.00000000000E+00 0.  1.
         11    1    3    3    0    0 -0.73383552786E+01  0.14456782608E+02 -0.10412539728E+02  0.19268393950E+02  0.51100000000E-03 0. -1.
        -11    1    3    3    0    0  0.29598838515E+00  0.47083291993E+00  0.15234502522E+01  0.16217871916E+01  0.51100000000E-03 0.  1.
        -12    1    3    3    0    0 -0.22453246718E+02  0.14374088796E+02 -0.35624725521E+01  0.26897098869E+02  0.00000000000E+00 0.  1.
</event>
<event>
 7    1  0.2294216E-010  0.4778730E+02  0.7816164E-02  0.1312668E+00
        -11   -1    0    0    0    0  0.00000000000E+00  0.00000000000E+00  0.45593999997E+02  0.45594000000E+02  0.51100000000E-03 0.  1.
         11   -1    0    0    0    0 -0.00000000000E+00 -0.00000000000E+00 -0.45593999997E+02  0.45594000000E+02  0.51100000000E-03 0. -1.
    9900012    2    1    2    0    0  0.12312208236E+02  0.34169874709E+02 -0.23758153992E+02  0.47787300808E+02  0.20000135701E+02 0.  0.
        -12    1    1    2    0    0 -0.12312208236E+02 -0.34169874709E+02  0.23758153992E+02  0.43400699192E+02  0.00000000000E+00 0.  1.
         11    1    3    3    0    0  0.41175223700E+01  0.38294964402E+01 -0.62614009374E+01  0.84157100362E+01  0.51100000000E-03 0. -1.
        -11    1    3    3    0    0 -0.46537433172E+01  0.90024937478E+01 -0.30767261972E+01  0.10590961472E+02  0.51100000000E-03 0.  1.
         12    1    3    3    0    0  0.12848429183E+02  0.21337884521E+02 -0.14420026858E+02  0.28780629300E+02  0.00000000000E+00 0. -1.
</event>
<event>
 7    1  0.2294216E-010  0.4778727E+02  0.7816164E-02  0.1312668E+00
        -11   -1    0    0    0    0  0.00000000000E+00  0.00000000000E+00  0.45593999997E+02  0.45594000000E+02  0.51100000000E-03 0. -1.
         11   -1    0    0    0    0 -0.00000000000E+00 -0.00000000000E+00 -0.45593999997E+02  0.45594000000E+02  0.51100000000E-03 0.  1.
    9900012    2    1    2    0    0 -0.15071695493E+02 -0.33409982395E+02 -0.23243075034E+02  0.47787268835E+02  0.19999989925E+02 0.  0.
        -12    1    1    2    0    0  0.15071695493E+02  0.33409982395E+02  0.23243075034E+02  0.43400731165E+02  0.00000000000E+00 0.  1.
         11    1    3    3    0    0 -0.37848930686E+01 -0.12233760474E+02 -0.28626180577E+01  0.13121924146E+02  0.51100000000E-03 0. -1.
        -11    1    3    3    0    0 -0.76275059247E+01 -0.22755416910E+02 -0.18216980088E+02  0.30130486375E+02  0.51100000000E-03 0.  1.
        -12    1    3    3    0    0 -0.36592964995E+01  0.15791949895E+01 -0.21634768881E+01  0.45348583143E+01  0.00000000000E+00 0.  1.
</event>
<event>
 7    1  0.2294216E-010  0.4778727E+02  0.7816164E-02  0.1312668E+00
        -11   -1    0    0    0    0  0.00000000000E+00  0.00000000000E+00  0.45593999997E+02  0.45594000000E+02  0.51100000000E-03 0.  1.
         11   -1    0    0    0    0 -0.00000000000E+00 -0.00000000000E+00 -0.45593999997E+02  0.45594000000E+02  0.51100000000E-03 0. -1.
    9900012    2    1    2    0    0  0.13228087238E+02  0.35286907657E+02 -0.21528468140E+02  0.47787273227E+02  0.20000009950E+02 0.  0.
        -12    1    1    2    0    0 -0.13228087238E+02 -0.35286907657E+02  0.21528468140E+02  0.43400726773E+02  0.00000000000E+00 0.  1.
         11    1    3    3    0    0  0.70161755820E+01  0.77889801988E+01 -0.46567089392E+01  0.11470826942E+02  0.51100000000E-03 0. -1.
        -11    1    3    3    0    0 -0.67605782113E+00  0.38238441222E+01  0.27894800961E+01  0.47812171584E+01  0.51100000000E-03 0.  1.
         12    1    3    3    0    0  0.68879694774E+01  0.23674083336E+02 -0.19661239297E+02  0.31535229126E+02  0.00000000000E+00 0. -1.
</event>
<event>
 7    1  0.2294216E-010  0.4778727E+02  0.7816164E-02  0.1312668E+00
        -11   -1    0    0    0    0  0.00000000000E+00  0.00000000000E+00  0.45593999997E+02  0.45594000000E+02  0.51100000000E-03 0.  1.
         11   -1    0    0    0    0 -0.00000000000E+00 -0.00000000000E+00 -0.45593999997E+02  0.45594000000E+02  0.51100000000E-03 0. -1.
    9900012    2    1    2    0    0 -0.22778606354E+02  0.55259237664E+01 -0.36527017130E+02  0.47787265889E+02  0.19999976496E+02 0.  0.
        -12    1    1    2    0    0  0.22778606354E+02 -0.55259237664E+01  0.36527017130E+02  0.43400734111E+02  0.00000000000E+00 0.  1.
         11    1    3    3    0    0 -0.94562946336E+01  0.57424924970E+01 -0.19339868683E+02  0.22280669856E+02  0.51100000000E-03 0. -1.
        -11    1    3    3    0    0 -0.11146580708E+02 -0.69004158422E+00 -0.19388862273E+02  0.22375218420E+02  0.51100000000E-03 0.  1.
        -12    1    3    3    0    0 -0.21757310130E+01  0.47347285365E+00  0.22017138262E+01  0.31313776132E+01  0.00000000000E+00 0.  1.
</event>
<event>
 7    1  0.2294216E-010  0.4778727E+02  0.7816164E-02  0.1312668E+00
        -11   -1    0    0    0    0  0.00000000000E+00  0.00000000000E+00  0.45593999997E+02  0.45594000000E+02  0.51100000000E-03 0. -1.
         11   -1    0    0    0    0 -0.00000000000E+00 -0.00000000000E+00 -0.45593999997E+02  0.45594000000E+02  0.51100000000E-03 0.  1.
    9900012    2    1    2    0    0 -0.17121006501E+02  0.83452221560E+01  0.38998095346E+02  0.47787273773E+02  0.20000012439E+02 0.  0.
        -12    1    1    2    0    0  0.17121006501E+02 -0.83452221560E+01 -0.38998095346E+02  0.43400726227E+02  0.00000000000E+00 0.  1.
         11    1    3    3    0    0  0.19432488222E+01  0.80267991066E+00  0.10194312071E+02  0.10408866888E+02  0.51100000000E-03 0. -1.
        -11    1    3    3    0    0 -0.66718609896E+01  0.90179532675E+01  0.15547289664E+02  0.19171735090E+02  0.51100000000E-03 0.  1.
         12    1    3    3    0    0 -0.12392394333E+02 -0.14754110222E+01  0.13256493611E+02  0.18206671795E+02  0.00000000000E+00 0. -1.
</event>
<event>
 7    1  0.2294216E-010  0.4778727E+02  0.7816164E-02  0.1312668E+00
        -11   -1    0    0    0    0  0.00000000000E+00  0.00000000000E+00  0.45593999997E+02  0.45594000000E+02  0.51100000000E-03 0. -1.
         11   -1    0    0    0    0 -0.00000000000E+00 -0.00000000000E+00 -0.45593999997E+02  0.45594000000E+02  0.51100000000E-03 0.  1.
    9900012    2    1    2    0    0  0.33643546654E+01  0.39231617320E+02  0.18253341867E+02  0.47787272251E+02  0.20000005499E+02 0.  0.
        -12    1    1    2    0    0 -0.33643546654E+01 -0.39231617320E+02 -0.18253341867E+02  0.43400727749E+02  0.00000000000E+00 0.  1.
         11    1    3    3    0    0 -0.40577316131E+01  0.23539118148E+02  0.17971062513E+02  0.29891710509E+02  0.51100000000E-03 0. -1.
        -11    1    3    3    0    0 -0.20964416981E+00  0.69007006687E+00 -0.73900697288E+00  0.10326078356E+01  0.51100000000E-03 0.  1.
        -12    1    3    3    0    0  0.76317304483E+01  0.15002429105E+02  0.10212863276E+01  0.16862953906E+02  0.00000000000E+00 0.  1.
</event>
<event>
 7    1  0.2294216E-010  0.4778727E+02  0.7816164E-02  0.1312668E+00
        -11   -1    0    0    0    0  0.00000000000E+00  0.00000000000E+00  0.45593999997E+02  0.45594000000E+02  0.51100000000E-03 0.  1.
         11   -1    0    0    0    0 -0.00000000000E+00 -0.00000000000E+00 -0.45593999997E+02  0.45594000000E+02  0.51100000000E-03 0. -1.
    9900012    2    1    2    0    0  0.94129556652E+01 -0.24358409149E+02 -0.34665359658E+02  0.47787274305E+02  0.20000014868E+02 0.  0.
        -12    1    1    2    0    0 -0.94129556652E+01  0.24358409149E+02  0.34665359658E+02  0.43400725695E+02  0.00000000000E+00 0.  1.
         11    1    3    3    0    0 -0.33392475785E+00 -0.88088846367E+01 -0.95601612069E+01  0.13004023871E+02  0.51100000000E-03 0. -1.
        -11    1    3    3    0    0 -0.79802017993E+00 -0.21712116788E+01  0.18053716226E+01  0.29343420589E+01  0.51100000000E-03 0.  1.
         12    1    3    3    0    0  0.10544900603E+02 -0.13378312833E+02 -0.26910570074E+02  0.31848908375E+02  0.00000000000E+00 0. -1.
</event>
<event>
 7    1  0.2294216E-010  0.4778727E+02  0.7816164E-02  0.1312668E+00
        -11   -1    0    0    0    0  0.00000000000E+00  0.00000000000E+00  0.45593999997E+02  0.45594000000E+02  0.51100000000E-03 0.  1.
         11   -1    0    0    0    0 -0.00000000000E+00 -0.00000000000E+00 -0.45593999997E+02  0.45594000000E+02  0.51100000000E-03 0. -1.
    9900012    2    1    2    0    0 -0.68714627577E+01 -0.15348694226E+02 -0.40010303341E+02  0.47787265117E+02  0.19999972976E+02 0.  0.
        -12    1    1    2    0    0  0.68714627577E+01  0.15348694226E+02  0.40010303341E+02  0.43400734883E+02  0.00000000000E+00 0.  1.
         11    1    3    3    0    0 -0.35038156462E+01 -0.44404070274E+01 -0.16099035879E+02  0.17063789003E+02  0.51100000000E-03 0. -1.
        -11    1    3    3    0    0 -0.70712221647E+01 -0.13151437783E+02 -0.19233497673E+02  0.24349331236E+02  0.51100000000E-03 0.  1.
        -12    1    3    3    0    0  0.37035750532E+01  0.22431505843E+01 -0.46777697899E+01  0.63741448780E+01  0.00000000000E+00 0.  1.
</event>
<event>
 7    1  0.2294216E-010  0.4778727E+02  0.7816164E-02  0.1312668E+00
        -11   -1    0    0    0    0  0.00000000000E+00  0.00000000000E+00  0.45593999997E+02  0.45594000000E+02  0.51100000000E-03 0.  1.
         11   -1    0    0    0    0 -0.00000000000E+00 -0.00000000000E+00 -0.45593999997E+02  0.45594000000E+02  0.51100000000E-03 0. -1.
    9900012    2    1    2    0    0  0.27812491089E+02 -0.11920165340E+02 -0.31112668328E+02  0.47787272669E+02  0.20000007409E+02 0.  0.
        -12    1    1    2    0    0 -0.27812491089E+02  0.11920165340E+02  0.31112668328E+02  0.43400727331E+02  0.00000000000E+00 0.  1.
         11    1    3    3    0    0  0.12525732394E+02 -0.39735022945E+01 -0.12371869402E+02  0.18048430548E+02  0.51100000000E-03 0. -1.
        -11    1    3    3    0    0  0.14185105678E+02 -0.18499597320E+01 -0.58857252006E+01  0.15468721199E+02  0.51100000000E-03 0.  1.
        -12    1    3    3    0    0  0.11016530170E+01 -0.60967033135E+01 -0.12855073725E+02  0.14270120922E+02  0.00000000000E+00 0.  1.
</event>
<event>
 7    1  0.2294216E-010  0.4778729E+02  0.7816164E-02  0.1312668E+00
        -11   -1    0    0    0    0  0.00000000000E+00  0.00000000000E+00  0.45593999997E+02  0.45594000000E+02  0.51100000000E-03 0. -1.
         11   -1    0    0    0    0 -0.00000000000E+00 -0.00000000000E+00 -0.45593999997E+02  0.45594000000E+02  0.51100000000E-03 0.  1.
    9900012    2    1    2    0    0  0.20466548654E+02  0.38271938876E+02  0.27094746997E-01  0.47787289715E+02  0.20000085125E+02 0.  0.
        -12    1    1    2    0    0 -0.20466548654E+02 -0.38271938876E+02 -0.27094746997E-01  0.43400710285E+02  0.00000000000E+00 0.  1.
         11    1    3    3    0    0  0.11426586540E+02  0.27275469181E+02 -0.38462688560E+01  0.29821332690E+02  0.51100000000E-03 0. -1.
        -11    1    3    3    0    0  0.10176392278E+02  0.60425492903E+01  0.46107904425E+00  0.11844152813E+02  0.51100000000E-03 0.  1.
        -12    1    3    3    0    0 -0.11364301644E+01  0.49539204046E+01  0.34122845587E+01  0.61218042115E+01  0.00000000000E+00 0.  1.
</event>
<event>
 7    1  0.2294216E-010  0.4778727E+02  0.7816164E-02  0.1312668E+00
        -11   -1    0    0    0    0  0.00000000000E+00  0.00000000000E+00  0.45593999997E+02  0.45594000000E+02  0.51100000000E-03 0.  1.
         11   -1    0    0    0    0 -0.00000000000E+00 -0.00000000000E+00 -0.45593999997E+02  0.45594000000E+02  0.51100000000E-03 0. -1.
    9900012    2    1    2    0    0  0.64266403367E+01  0.28393622250E+02 -0.32188876455E+02  0.47787271229E+02  0.20000000840E+02 0.  0.
        -12    1    1    2    0    0 -0.64266403367E+01 -0.28393622250E+02  0.32188876455E+02  0.43400728771E+02  0.00000000000E+00 0.  1.
         11    1    3    3    0    0  0.57532407025E+01  0.13657280703E+02 -0.22488735576E+02  0.26932588491E+02  0.51100000000E-03 0.  1.
        -11    1    3    3    0    0  0.42869088800E+01  0.13957189216E+02 -0.88089263719E+01  0.17052211078E+02  0.51100000000E-03 0. -1.
         12    1    3    3    0    0 -0.36135092459E+01  0.77915233059E+00 -0.89121450715E+00  0.38024716596E+01  0.00000000000E+00 0. -1.
</event>
<event>
 7    1  0.2294216E-010  0.4778728E+02  0.7816164E-02  0.1312668E+00
        -11   -1    0    0    0    0  0.00000000000E+00  0.00000000000E+00  0.45593999997E+02  0.45594000000E+02  0.51100000000E-03 0. -1.
         11   -1    0    0    0    0 -0.00000000000E+00 -0.00000000000E+00 -0.45593999997E+02  0.45594000000E+02  0.51100000000E-03 0.  1.
    9900012    2    1    2    0    0 -0.18961384636E+02 -0.20842531553E+02  0.33010261628E+02  0.47787278789E+02  0.20000035310E+02 0.  0.
        -12    1    1    2    0    0  0.18961384636E+02  0.20842531553E+02 -0.33010261628E+02  0.43400721211E+02  0.00000000000E+00 0.  1.
         11    1    3    3    0    0 -0.46681676736E+01 -0.57943085322E+01  0.15725836351E+02  0.17397348361E+02  0.51100000000E-03 0. -1.
        -11    1    3    3    0    0 -0.75042374184E+01 -0.15414332134E+02  0.16041106759E+02  0.23478337263E+02  0.51100000000E-03 0.  1.
        -12    1    3    3    0    0 -0.67889795439E+01  0.36610911235E+00  0.12433185187E+01  0.69115931643E+01  0.00000000000E+00 0.  1.
</event>
<event>
 7    1  0.2294216E-010  0.4778727E+02  0.7816164E-02  0.1312668E+00
        -11   -1    0    0    0    0  0.00000000000E+00  0.00000000000E+00  0.45593999997E+02  0.45594000000E+02  0.51100000000E-03 0.  1.
         11   -1    0    0    0    0 -0.00000000000E+00 -0.00000000000E+00 -0.45593999997E+02  0.45594000000E+02  0.51100000000E-03 0. -1.
    9900012    2    1    2    0    0 -0.57806373679E+01  0.27953828206E+02 -0.32692367948E+02  0.47787271875E+02  0.20000003787E+02 0.  0.
        -12    1    1    2    0    0  0.57806373679E+01 -0.27953828206E+02  0.32692367948E+02  0.43400728125E+02  0.00000000000E+00 0.  1.
         11    1    3    3    0    0  0.70327007623E+00  0.15989404563E+02 -0.21105820575E+02  0.26487946494E+02  0.51100000000E-03 0. -1.
        -11    1    3    3    0    0  0.29603957575E+01  0.12008407846E+01 -0.59966560063E+00  0.32504708466E+01  0.51100000000E-03 0.  1.
        -12    1    3    3    0    0 -0.94443032017E+01  0.10763582858E+02 -0.10986881772E+02  0.18048854534E+02  0.00000000000E+00 0.  1.
</event>
<event>
 7    1  0.2294216E-010  0.4778727E+02  0.7816164E-02  0.1312668E+00
        -11   -1    0    0    0    0  0.00000000000E+00  0.00000000000E+00  0.45593999997E+02  0.45594000000E+02  0.51100000000E-03 0.  1.
         11   -1    0    0    0    0 -0.00000000000E+00 -0.00000000000E+00 -0.45593999997E+02  0.45594000000E+02  0.51100000000E-03 0. -1.
    9900012    2    1    2    0    0 -0.22440282813E+02 -0.23733367421E+01 -0.37073226677E+02  0.47787272400E+02  0.20000006179E+02 0.  0.
        -12    1    1    2    0    0  0.22440282813E+02  0.23733367421E+01  0.37073226677E+02  0.43400727600E+02  0.00000000000E+00 0.  1.
         11    1    3    3    0    0 -0.17347157631E+02  0.23287652364E+01 -0.24976364438E+02  0.30498619742E+02  0.51100000000E-03 0. -1.
        -11    1    3    3    0    0  0.22247659499E+00  0.21498093928E+01 -0.67807422509E+01  0.71168561876E+01  0.51100000000E-03 0.  1.
        -12    1    3    3    0    0 -0.53156017771E+01 -0.68519113714E+01 -0.53161199880E+01  0.10171796470E+02  0.00000000000E+00 0.  1.
</event>
<event>
 7    1  0.2294216E-010  0.4778727E+02  0.7816164E-02  0.1312668E+00
        -11   -1    0    0    0    0  0.00000000000E+00  0.00000000000E+00  0.45593999997E+02  0.45594000000E+02  0.51100000000E-03 0.  1.
         11   -1    0    0    0    0 -0.00000000000E+00 -0.00000000000E+00 -0.45593999997E+02  0.45594000000E+02  0.51100000000E-03 0. -1.
    9900012    2    1    2    0    0  0.33791365181E+02 -0.22342890023E+02 -0.15574400661E+02  0.47787273608E+02  0.20000011687E+02 0.  0.
        -12    1    1    2    0    0 -0.33791365181E+02  0.22342890023E+02  0.15574400661E+02  0.43400726392E+02  0.00000000000E+00 0.  1.
         11    1    3    3    0    0  0.50100362085E+01 -0.19125850396E+01 -0.67213543072E+01  0.85985491990E+01  0.51100000000E-03 0. -1.
        -11    1    3    3    0    0  0.17079070772E+02 -0.10381685370E+02 -0.12185105405E+02  0.23408349868E+02  0.51100000000E-03 0.  1.
        -12    1    3    3    0    0  0.11702258201E+02 -0.10048619613E+02  0.33320590504E+01  0.15780374541E+02  0.00000000000E+00 0.  1.
</event>
<event>
 7    1  0.2294216E-010  0.4778729E+02  0.7816164E-02  0.1312668E+00
        -11   -1    0    0    0    0  0.00000000000E+00  0.00000000000E+00  0.45593999997E+02  0.45594000000E+02  0.51100000000E-03 0. -1.
         11   -1    0    0    0    0 -0.00000000000E+00 -0.00000000000E+00 -0.45593999997E+02  0.45594000000E+02  0.51100000000E-03 0.  1.
    9900012    2    1    2    0    0  0.19386088414E+02 -0.17321485468E+02  0.34752948757E+02  0.47787288830E+02  0.20000081090E+02 0.  0.
        -12    1    1    2    0    0 -0.19386088414E+02  0.17321485468E+02 -0.34752948757E+02  0.43400711170E+02  0.00000000000E+00 0.  1.
         11    1    3    3    0    0  0.84053226555E+01 -0.14585855640E+02  0.17299217456E+02  0.24138342084E+02  0.51100000000E-03 0. -1.
        -11    1    3    3    0    0  0.33435806549E+01 -0.53773923661E+01  0.28190307693E+01  0.69312924476E+01  0.51100000000E-03 0.  1.
        -12    1    3    3    0    0  0.76371851038E+01  0.26417625380E+01  0.14634700531E+02  0.16717654298E+02  0.00000000000E+00 0.  1.
</event>
<event>
 7    1  0.2294216E-010  0.4778727E+02  0.7816164E-02  0.1312668E+00
        -11   -1    0    0    0    0  0.00000000000E+00  0.00000000000E+00  0.45593999997E+02  0.45594000000E+02  0.51100000000E-03 0.  1.
         11   -1    0    0    0    0 -0.00000000000E+00 -0.00000000000E+00 -0.45593999997E+02  0.45594000000E+02  0.51100000000E-03 0. -1.
    9900012    2    1    2    0    0  0.15776065819E+01 -0.24030826343E+02 -0.36106144513E+02  0.47787272715E+02  0.20000007616E+02 0.  0.
        -12    1    1    2    0    0 -0.15776065819E+01  0.24030826343E+02  0.36106144513E+02  0.43400727285E+02  0.00000000000E+00 0.  1.
         11    1    3    3    0    0  0.11072233871E+01  0.78926768690E+00  0.95299526971E+00  0.16604479383E+01  0.51100000000E-03 0. -1.
        -11    1    3    3    0    0 -0.20893810524E+01 -0.86883406938E+01 -0.52367736647E+01  0.10357440604E+02  0.51100000000E-03 0.  1.
         12    1    3    3    0    0  0.25597642473E+01 -0.16131753336E+02 -0.31822366118E+02  0.35769384172E+02  0.00000000000E+00 0. -1.
</event>
<event>
 7    1  0.2294216E-010  0.4778727E+02  0.7816164E-02  0.1312668E+00
        -11   -1    0    0    0    0  0.00000000000E+00  0.00000000000E+00  0.45593999997E+02  0.45594000000E+02  0.51100000000E-03 0.  1.
         11   -1    0    0    0    0 -0.00000000000E+00 -0.00000000000E+00 -0.45593999997E+02  0.45594000000E+02  0.51100000000E-03 0. -1.
    9900012    2    1    2    0    0  0.32227321589E+02 -0.25384546644E+02 -0.14165018809E+02  0.47787271631E+02  0.20000002672E+02 0.  0.
        -12    1    1    2    0    0 -0.32227321589E+02  0.25384546644E+02  0.14165018809E+02  0.43400728369E+02  0.00000000000E+00 0.  1.
         11    1    3    3    0    0  0.88410080893E+01 -0.61094397454E+01 -0.45402244129E+01  0.11666289728E+02  0.51100000000E-03 0. -1.
        -11    1    3    3    0    0  0.20362380880E+02 -0.60406213408E+01 -0.58518748381E+01  0.22030889693E+02  0.51100000000E-03 0.  1.
         12    1    3    3    0    0  0.30239326195E+01 -0.13234485558E+02 -0.37729195582E+01  0.14090092209E+02  0.00000000000E+00 0. -1.
</event>
<event>
 7    1  0.2294216E-010  0.4778727E+02  0.7816164E-02  0.1312668E+00
        -11   -1    0    0    0    0  0.00000000000E+00  0.00000000000E+00  0.45593999997E+02  0.45594000000E+02  0.51100000000E-03 0. -1.
         11   -1    0    0    0    0 -0.00000000000E+00 -0.00000000000E+00 -0.45593999997E+02  0.45594000000E+02  0.51100000000E-03 0.  1.
    9900012    2    1    2    0    0  0.53168922328E+01  0.12273277768E+02  0.41288261712E+02  0.47787271373E+02  0.20000001497E+02 0.  0.
        -12    1    1    2    0    0 -0.53168922328E+01 -0.12273277768E+02 -0.41288261712E+02  0.43400728627E+02  0.00000000000E+00 0.  1.
         11    1    3    3    0    0  0.51390606179E+01 -0.19051312271E+01  0.15331575787E+02  0.16281789993E+02  0.51100000000E-03 0. -1.
        -11    1    3    3    0    0 -0.42540184228E+01  0.17561271624E+01  0.79357184340E+01  0.91736733470E+01  0.51100000000E-03 0.  1.
         12    1    3    3    0    0  0.44318500377E+01  0.12422281832E+02  0.18020967491E+02  0.22331808032E+02  0.00000000000E+00 0. -1.
</event>
<event>
 7    1  0.2294216E-010  0.4778727E+02  0.7816164E-02  0.1312668E+00
        -11   -1    0    0    0    0  0.00000000000E+00  0.00000000000E+00  0.45593999997E+02  0.45594000000E+02  0.51100000000E-03 0.  1.
         11   -1    0    0    0    0 -0.00000000000E+00 -0.00000000000E+00 -0.45593999997E+02  0.45594000000E+02  0.51100000000E-03 0. -1.
    9900012    2    1    2    0    0  0.35967572507E+00  0.45609027238E+01 -0.43158916556E+02  0.47787270990E+02  0.19999999754E+02 0.  0.
        -12    1    1    2    0    0 -0.35967572507E+00 -0.45609027238E+01  0.43158916556E+02  0.43400729010E+02  0.00000000000E+00 0.  1.
         11    1    3    3    0    0  0.76893298168E+00 -0.63625369033E+00  0.23220914613E+00  0.10246941190E+01  0.51100000000E-03 0.  1.
        -11    1    3    3    0    0  0.56727960178E+01  0.20101853710E+01 -0.36647526563E+02  0.37138425698E+02  0.51100000000E-03 0. -1.
         12    1    3    3    0    0 -0.60820532744E+01  0.31869710432E+01 -0.67435991394E+01  0.96241511738E+01  0.00000000000E+00 0. -1.
</event>
<event>
 7    1  0.2294216E-010  0.4778727E+02  0.7816164E-02  0.1312668E+00
        -11   -1    0    0    0    0  0.00000000000E+00  0.00000000000E+00  0.45593999997E+02  0.45594000000E+02  0.51100000000E-03 0.  1.
         11   -1    0    0    0    0 -0.00000000000E+00 -0.00000000000E+00 -0.45593999997E+02  0.45594000000E+02  0.51100000000E-03 0. -1.
    9900012    2    1    2    0    0 -0.10833635097E+01  0.82343965160E+01 -0.42598641957E+02  0.47787271215E+02  0.20000000776E+02 0.  0.
        -12    1    1    2    0    0  0.10833635097E+01 -0.82343965160E+01  0.42598641957E+02  0.43400728785E+02  0.00000000000E+00 0.  1.
         11    1    3    3    0    0 -0.21553645842E+00  0.10868455761E+02 -0.37867398933E+02  0.39396823334E+02  0.51100000000E-03 0. -1.
        -11    1    3    3    0    0  0.35067473566E+00  0.96195177740E+00  0.10547132516E+01  0.14699470387E+01  0.51100000000E-03 0.  1.
         12    1    3    3    0    0 -0.12185017869E+01 -0.35960110224E+01 -0.57859562760E+01  0.69205008421E+01  0.00000000000E+00 0. -1.
</event>
<event>
 7    1  0.2294216E-010  0.4778727E+02  0.7816164E-02  0.1312668E+00
        -11   -1    0    0    0    0  0.00000000000E+00  0.00000000000E+00  0.45593999997E+02  0.45594000000E+02  0.51100000000E-03 0. -1.
         11   -1    0    0    0    0 -0.00000000000E+00 -0.00000000000E+00 -0.45593999997E+02  0.45594000000E+02  0.51100000000E-03 0.  1.
    9900012    2    1    2    0    0  0.16837649521E+02  0.15668911296E+02  0.36804916143E+02  0.47787273337E+02  0.20000010453E+02 0.  0.
        -12    1    1    2    0    0 -0.16837649521E+02 -0.15668911296E+02 -0.36804916143E+02  0.43400726663E+02  0.00000000000E+00 0.  1.
         11    1    3    3    0    0  0.52285226479E+01  0.96483176984E+01  0.12193056234E+02  0.16404209950E+02  0.51100000000E-03 0. -1.
        -11    1    3    3    0    0  0.85345349221E+01  0.48709709941E+01  0.41625763060E+01  0.10672004804E+02  0.51100000000E-03 0.  1.
         12    1    3    3    0    0  0.30745919512E+01  0.11496226035E+01  0.20449283602E+02  0.20711058583E+02  0.00000000000E+00 0. -1.
</event>
<event>
 7    1  0.2294216E-010  0.4778728E+02  0.7816164E-02  0.1312668E+00
        -11   -1    0    0    0    0  0.00000000000E+00  0.00000000000E+00  0.45593999997E+02  0.45594000000E+02  0.51100000000E-03 0.  1.
         11   -1    0    0    0    0 -0.00000000000E+00 -0.00000000000E+00 -0.45593999997E+02  0.45594000000E+02  0.51100000000E-03 0. -1.
    9900012    2    1    2    0    0  0.40263754173E+02  0.42770953705E+01 -0.15625578956E+02  0.47787283846E+02  0.20000058369E+02 0.  0.
        -12    1    1    2    0    0 -0.40263754173E+02 -0.42770953705E+01  0.15625578956E+02  0.43400716154E+02  0.00000000000E+00 0.  1.
         11    1    3    3    0    0  0.16337474389E+02  0.55457223029E+01 -0.14518452237E+02  0.22548914850E+02  0.51100000000E-03 0. -1.
        -11    1    3    3    0    0  0.11312003169E+02  0.32660292053E+01 -0.11851363582E+01  0.11833550224E+02  0.51100000000E-03 0.  1.
         12    1    3    3    0    0  0.12614276616E+02 -0.45346561377E+01  0.78009639371E-01  0.13404818773E+02  0.00000000000E+00 0. -1.
</event>
<event>
 7    1  0.2294216E-010  0.4778727E+02  0.7816164E-02  0.1312668E+00
        -11   -1    0    0    0    0  0.00000000000E+00  0.00000000000E+00  0.45593999997E+02  0.45594000000E+02  0.51100000000E-03 0.  1.
         11   -1    0    0    0    0 -0.00000000000E+00 -0.00000000000E+00 -0.45593999997E+02  0.45594000000E+02  0.51100000000E-03 0. -1.
    9900012    2    1    2    0    0  0.16424804768E+02 -0.37053031512E+01 -0.40001496537E+02  0.47787271800E+02  0.20000003443E+02 0.  0.
        -12    1    1    2    0    0 -0.16424804768E+02  0.37053031512E+01  0.40001496537E+02  0.43400728200E+02  0.00000000000E+00 0.  1.
         11    1    3    3    0    0 -0.10685643656E+01  0.28151445219E+01 -0.54307413016E+01  0.62096553712E+01  0.51100000000E-03 0. -1.
        -11    1    3    3    0    0 -0.33878024131E+00 -0.20251658072E+01 -0.13307601319E+02  0.13465077859E+02  0.51100000000E-03 0.  1.
         12    1    3    3    0    0  0.17832149375E+02 -0.44952818659E+01 -0.21263153916E+02  0.28112538570E+02  0.00000000000E+00 0. -1.
</event>
<event>
 7    1  0.2294216E-010  0.4778727E+02  0.7816164E-02  0.1312668E+00
        -11   -1    0    0    0    0  0.00000000000E+00  0.00000000000E+00  0.45593999997E+02  0.45594000000E+02  0.51100000000E-03 0. -1.
         11   -1    0    0    0    0 -0.00000000000E+00 -0.00000000000E+00 -0.45593999997E+02  0.45594000000E+02  0.51100000000E-03 0.  1.
    9900012    2    1    2    0    0 -0.36722167929E+02  0.22748602353E+02  0.41960429079E+01  0.47787270715E+02  0.19999998498E+02 0.  0.
        -12    1    1    2    0    0  0.36722167929E+02 -0.22748602353E+02 -0.41960429079E+01  0.43400729285E+02  0.00000000000E+00 0.  1.
         11    1    3    3    0    0 -0.37038140109E+02  0.21690306326E+02 -0.49563087706E+00  0.42924804734E+02  0.51100000000E-03 0. -1.
        -11    1    3    3    0    0  0.69775231765E-01  0.38206316002E+00  0.64977192646E+00  0.75699713259E+00  0.51100000000E-03 0.  1.
         12    1    3    3    0    0  0.24619694852E+00  0.67623286661E+00  0.40419018585E+01  0.41054688479E+01  0.00000000000E+00 0. -1.
</event>
<event>
 7    1  0.2294216E-010  0.4778724E+02  0.7816164E-02  0.1312668E+00
        -11   -1    0    0    0    0  0.00000000000E+00  0.00000000000E+00  0.45593999997E+02  0.45594000000E+02  0.51100000000E-03 0. -1.
         11   -1    0    0    0    0 -0.00000000000E+00 -0.00000000000E+00 -0.45593999997E+02  0.45594000000E+02  0.51100000000E-03 0.  1.
    9900012    2    1    2    0    0 -0.10683052488E+02  0.26441309501E+02  0.32716286002E+02  0.47787241615E+02  0.19999865819E+02 0.  0.
        -12    1    1    2    0    0  0.10683052488E+02 -0.26441309501E+02 -0.32716286002E+02  0.43400758385E+02  0.00000000000E+00 0.  1.
         11    1    3    3    0    0 -0.46727539045E+01  0.10919570536E+02  0.68902439074E+01  0.13731245796E+02  0.51100000000E-03 0. -1.
        -11    1    3    3    0    0 -0.48861894452E+01  0.40788727135E+01  0.67402836920E+00  0.64004972003E+01  0.51100000000E-03 0.  1.
         12    1    3    3    0    0 -0.11241091386E+01  0.11442866252E+02  0.25152013726E+02  0.27655498619E+02  0.00000000000E+00 0. -1.
</event>
<event>
 7    1  0.2294216E-010  0.4778729E+02  0.7816164E-02  0.1312668E+00
        -11   -1    0    0    0    0  0.00000000000E+00  0.00000000000E+00  0.45593999997E+02  0.45594000000E+02  0.51100000000E-03 0.  1.
         11   -1    0    0    0    0 -0.00000000000E+00 -0.00000000000E+00 -0.45593999997E+02  0.45594000000E+02  0.51100000000E-03 0. -1.
    9900012    2    1    2    0    0  0.17078966037E+02  0.29786930588E+01 -0.39787663036E+02  0.47787287758E+02  0.20000076205E+02 0.  0.
        -12    1    1    2    0    0 -0.17078966037E+02 -0.29786930588E+01  0.39787663036E+02  0.43400712242E+02  0.00000000000E+00 0.  1.
         11    1    3    3    0    0  0.32060769837E+01  0.14024081682E+01 -0.12346718219E+02  0.12833048326E+02  0.51100000000E-03 0. -1.
        -11    1    3    3    0    0 -0.27017843736E+01  0.37769187047E+01 -0.38124758469E+01  0.60083047566E+01  0.51100000000E-03 0.  1.
         12    1    3    3    0    0  0.16574673427E+02 -0.22006338142E+01 -0.23628468970E+02  0.28945934676E+02  0.00000000000E+00 0. -1.
</event>
<event>
 7    1  0.2294216E-010  0.4778727E+02  0.7816164E-02  0.1312668E+00
        -11   -1    0    0    0    0  0.00000000000E+00  0.00000000000E+00  0.45593999997E+02  0.45594000000E+02  0.51100000000E-03 0.  1.
         11   -1    0    0    0    0 -0.00000000000E+00 -0.00000000000E+00 -0.45593999997E+02  0.45594000000E+02  0.51100000000E-03 0. -1.
    9900012    2    1    2    0    0 -0.23699723729E+02 -0.18422967065E+02 -0.31345501600E+02  0.47787273153E+02  0.20000009614E+02 0.  0.
        -12    1    1    2    0    0  0.23699723729E+02  0.18422967065E+02  0.31345501600E+02  0.43400726847E+02  0.00000000000E+00 0.  1.
         11    1    3    3    0    0 -0.17677444064E+02 -0.10716777619E+02 -0.13586187219E+02  0.24737134728E+02  0.51100000000E-03 0. -1.
        -11    1    3    3    0    0 -0.56838779058E+01  0.73866477005E+00 -0.43329311741E+01  0.71851504167E+01  0.51100000000E-03 0.  1.
        -12    1    3    3    0    0 -0.33840175933E+00 -0.84448542158E+01 -0.13426383207E+02  0.15864988008E+02  0.00000000000E+00 0.  1.
</event>
<event>
 7    1  0.2294216E-010  0.4778726E+02  0.7816164E-02  0.1312668E+00
        -11   -1    0    0    0    0  0.00000000000E+00  0.00000000000E+00  0.45593999997E+02  0.45594000000E+02  0.51100000000E-03 0.  1.
         11   -1    0    0    0    0 -0.00000000000E+00 -0.00000000000E+00 -0.45593999997E+02  0.45594000000E+02  0.51100000000E-03 0. -1.
    9900012    2    1    2    0    0  0.16187555475E+02  0.72939608294E+01 -0.39602847017E+02  0.47787259123E+02  0.19999945646E+02 0.  0.
        -12    1    1    2    0    0 -0.16187555475E+02 -0.72939608294E+01  0.39602847017E+02  0.43400740877E+02  0.00000000000E+00 0.  1.
         11    1    3    3    0    0  0.91943110834E+01 -0.91455950593E-01 -0.17572335675E+02  0.19832566698E+02  0.51100000000E-03 0. -1.
        -11    1    3    3    0    0 -0.74078142613E+00  0.15279630492E+01 -0.16890060317E+02  0.16975204446E+02  0.51100000000E-03 0.  1.
        -12    1    3    3    0    0  0.77340258174E+01  0.58574537308E+01 -0.51404510242E+01  0.10979487979E+02  0.00000000000E+00 0.  1.
</event>
<event>
 7    1  0.2294216E-010  0.4778726E+02  0.7816164E-02  0.1312668E+00
        -11   -1    0    0    0    0  0.00000000000E+00  0.00000000000E+00  0.45593999997E+02  0.45594000000E+02  0.51100000000E-03 0. -1.
         11   -1    0    0    0    0 -0.00000000000E+00 -0.00000000000E+00 -0.45593999997E+02  0.45594000000E+02  0.51100000000E-03 0.  1.
    9900012    2    1    2    0    0  0.27900824165E+02  0.29847300120E+02  0.14639215049E+02  0.47787263476E+02  0.19999965493E+02 0.  0.
        -12    1    1    2    0    0 -0.27900824165E+02 -0.29847300120E+02 -0.14639215049E+02  0.43400736524E+02  0.00000000000E+00 0.  1.
         11    1    3    3    0    0  0.71786775285E+01  0.24707229624E+01  0.11496199995E+01  0.76785095832E+01  0.51100000000E-03 0. -1.
        -11    1    3    3    0    0  0.11491993599E+02  0.19537475795E+02  0.96512684721E+00  0.22687228729E+02  0.51100000000E-03 0.  1.
         12    1    3    3    0    0  0.92301530381E+01  0.78391013624E+01  0.12524468202E+02  0.17421525164E+02  0.00000000000E+00 0. -1.
</event>
<event>
 7    1  0.2294216E-010  0.4778726E+02  0.7816164E-02  0.1312668E+00
        -11   -1    0    0    0    0  0.00000000000E+00  0.00000000000E+00  0.45593999997E+02  0.45594000000E+02  0.51100000000E-03 0.  1.
         11   -1    0    0    0    0 -0.00000000000E+00 -0.00000000000E+00 -0.45593999997E+02  0.45594000000E+02  0.51100000000E-03 0. -1.
    9900012    2    1    2    0    0  0.24755668643E+02  0.22856546249E+02 -0.27356165371E+02  0.47787255534E+02  0.19999929281E+02 0.  0.
        -12    1    1    2    0    0 -0.24755668643E+02 -0.22856546249E+02  0.27356165371E+02  0.43400744466E+02  0.00000000000E+00 0.  1.
         11    1    3    3    0    0  0.78452243056E+01  0.69028607906E+01 -0.92729267879E-01  0.10450149783E+02  0.51100000000E-03 0. -1.
        -11    1    3    3    0    0  0.11470990509E+02  0.87610752435E+01 -0.91134330379E+01  0.17070287774E+02  0.51100000000E-03 0.  1.
        -12    1    3    3    0    0  0.54394538288E+01  0.71926102147E+01 -0.18150003066E+02  0.20266817978E+02  0.00000000000E+00 0.  1.
</event>
<event>
 7    1  0.2294216E-010  0.4778728E+02  0.7816164E-02  0.1312668E+00
        -11   -1    0    0    0    0  0.00000000000E+00  0.00000000000E+00  0.45593999997E+02  0.45594000000E+02  0.51100000000E-03 0.  1.
         11   -1    0    0    0    0 -0.00000000000E+00 -0.00000000000E+00 -0.45593999997E+02  0.45594000000E+02  0.51100000000E-03 0. -1.
    9900012    2    1    2    0    0 -0.16080661415E+02 -0.19630661022E+02 -0.35208972121E+02  0.47787282937E+02  0.20000054225E+02 0.  0.
        -12    1    1    2    0    0  0.16080661415E+02  0.19630661022E+02  0.35208972121E+02  0.43400717063E+02  0.00000000000E+00 0.  1.
         11    1    3    3    0    0 -0.98418297807E+01 -0.96933908700E+01 -0.26500283228E+02  0.29884585515E+02  0.51100000000E-03 0. -1.
        -11    1    3    3    0    0 -0.51116029201E+01 -0.80104942457E+01 -0.11113087968E+02  0.14621806555E+02  0.51100000000E-03 0.  1.
        -12    1    3    3    0    0 -0.11272287143E+01 -0.19267759068E+01  0.24043990755E+01  0.32808908673E+01  0.00000000000E+00 0.  1.
</event>
<event>
 7    1  0.2294216E-010  0.4778727E+02  0.7816164E-02  0.1312668E+00
        -11   -1    0    0    0    0  0.00000000000E+00  0.00000000000E+00  0.45593999997E+02  0.45594000000E+02  0.51100000000E-03 0. -1.
         11   -1    0    0    0    0 -0.00000000000E+00 -0.00000000000E+00 -0.45593999997E+02  0.45594000000E+02  0.51100000000E-03 0.  1.
    9900012    2    1    2    0    0 -0.41971996195E+02 -0.11026793201E+02  0.62061605451E+00  0.47787265016E+02  0.19999972512E+02 0.  0.
        -12    1    1    2    0    0  0.41971996195E+02  0.11026793201E+02 -0.62061605451E+00  0.43400734984E+02  0.00000000000E+00 0.  1.
         11    1    3    3    0    0 -0.12498379114E+02 -0.92327839509E+01 -0.71053908400E+01  0.17086262295E+02  0.51100000000E-03 0. -1.
        -11    1    3    3    0    0 -0.79314957030E-01 -0.25314641463E+00 -0.14197616272E-01  0.26566106805E+00  0.51100000000E-03 0.  1.
         12    1    3    3    0    0 -0.29394302124E+02 -0.15408628351E+01  0.77402045108E+01  0.30435341653E+02  0.00000000000E+00 0. -1.
</event>
<event>
 7    1  0.2294216E-010  0.4778727E+02  0.7816164E-02  0.1312668E+00
        -11   -1    0    0    0    0  0.00000000000E+00  0.00000000000E+00  0.45593999997E+02  0.45594000000E+02  0.51100000000E-03 0.  1.
         11   -1    0    0    0    0 -0.00000000000E+00 -0.00000000000E+00 -0.45593999997E+02  0.45594000000E+02  0.51100000000E-03 0. -1.
    9900012    2    1    2    0    0  0.86381471874E+01  0.13130940864E+02 -0.40454715934E+02  0.47787271480E+02  0.20000001986E+02 0.  0.
        -12    1    1    2    0    0 -0.86381471874E+01 -0.13130940864E+02  0.40454715934E+02  0.43400728520E+02  0.00000000000E+00 0.  1.
         11    1    3    3    0    0  0.62965300563E+01  0.77905216775E+01 -0.15964902630E+02  0.18847191701E+02  0.51100000000E-03 0. -1.
        -11    1    3    3    0    0  0.26968165555E+01  0.10143020422E+02 -0.15127289948E+02  0.18411642628E+02  0.51100000000E-03 0.  1.
         12    1    3    3    0    0 -0.35519942443E+00 -0.48026012362E+01 -0.93625233557E+01  0.10528437151E+02  0.00000000000E+00 0. -1.
</event>
<event>
 7    1  0.2294216E-010  0.4778727E+02  0.7816164E-02  0.1312668E+00
        -11   -1    0    0    0    0  0.00000000000E+00  0.00000000000E+00  0.45593999997E+02  0.45594000000E+02  0.51100000000E-03 0.  1.
         11   -1    0    0    0    0 -0.00000000000E+00 -0.00000000000E+00 -0.45593999997E+02  0.45594000000E+02  0.51100000000E-03 0. -1.
    9900012    2    1    2    0    0 -0.32477956291E+02 -0.10275681580E+02 -0.26892675235E+02  0.47787271226E+02  0.20000000830E+02 0.  0.
        -12    1    1    2    0    0  0.32477956291E+02  0.10275681580E+02  0.26892675235E+02  0.43400728774E+02  0.00000000000E+00 0.  1.
         11    1    3    3    0    0 -0.84401405506E+01 -0.25457665897E+01 -0.99705862228E+01  0.13309000336E+02  0.51100000000E-03 0. -1.
        -11    1    3    3    0    0 -0.18435172999E+02  0.17322810323E+01 -0.74293479124E+01  0.19951230833E+02  0.51100000000E-03 0.  1.
        -12    1    3    3    0    0 -0.56026427412E+01 -0.94621960226E+01 -0.94927411001E+01  0.14527040058E+02  0.00000000000E+00 0.  1.
</event>
<event>
 7    1  0.2294216E-010  0.4778727E+02  0.7816164E-02  0.1312668E+00
        -11   -1    0    0    0    0  0.00000000000E+00  0.00000000000E+00  0.45593999997E+02  0.45594000000E+02  0.51100000000E-03 0.  1.
         11   -1    0    0    0    0 -0.00000000000E+00 -0.00000000000E+00 -0.45593999997E+02  0.45594000000E+02  0.51100000000E-03 0. -1.
    9900012    2    1    2    0    0  0.39246278950E+02  0.62543425245E+01 -0.17442370745E+02  0.47787268336E+02  0.19999987649E+02 0.  0.
        -12    1    1    2    0    0 -0.39246278950E+02 -0.62543425245E+01  0.17442370745E+02  0.43400731664E+02  0.00000000000E+00 0.  1.
         11    1    3    3    0    0  0.70033312180E+00 -0.34778401019E+01 -0.15979911488E+01  0.38909400186E+01  0.51100000000E-03 0. -1.
        -11    1    3    3    0    0  0.75163888736E+01  0.10321153205E+01 -0.73639311160E+01  0.10573024424E+02  0.51100000000E-03 0.  1.
        -12    1    3    3    0    0  0.31029556954E+02  0.87000673059E+01 -0.84804484800E+01  0.33323303893E+02  0.00000000000E+00 0.  1.
</event>
<event>
 7    1  0.2294216E-010  0.4778727E+02  0.7816164E-02  0.1312668E+00
        -11   -1    0    0    0    0  0.00000000000E+00  0.00000000000E+00  0.45593999997E+02  0.45594000000E+02  0.51100000000E-03 0.  1.
         11   -1    0    0    0    0 -0.00000000000E+00 -0.00000000000E+00 -0.45593999997E+02  0.45594000000E+02  0.51100000000E-03 0. -1.
    9900012    2    1    2    0    0  0.13172140485E+02 -0.17037115399E+02 -0.37680962296E+02  0.47787268375E+02  0.19999987827E+02 0.  0.
        -12    1    1    2    0    0 -0.13172140485E+02  0.17037115399E+02  0.37680962296E+02  0.43400731625E+02  0.00000000000E+00 0.  1.
         11    1    3    3    0    0  0.94907245739E+01 -0.64894709948E+01 -0.19581106523E+02  0.22706977334E+02  0.51100000000E-03 0. -1.
        -11    1    3    3    0    0  0.76402477067E+01 -0.57957830820E+01 -0.15798259706E+02  0.18481057777E+02  0.51100000000E-03 0.  1.
        -12    1    3    3    0    0 -0.39588317958E+01 -0.47518613218E+01 -0.23015960668E+01  0.65992332634E+01  0.00000000000E+00 0.  1.
</event>
<event>
 7    1  0.2294216E-010  0.4778727E+02  0.7816164E-02  0.1312668E+00
        -11   -1    0    0    0    0  0.00000000000E+00  0.00000000000E+00  0.45593999997E+02  0.45594000000E+02  0.51100000000E-03 0.  1.
         11   -1    0    0    0    0 -0.00000000000E+00 -0.00000000000E+00 -0.45593999997E+02  0.45594000000E+02  0.51100000000E-03 0. -1.
    9900012    2    1    2    0    0 -0.49786925664E+01 -0.28287870389E+02 -0.32536629902E+02  0.47787271018E+02  0.19999999878E+02 0.  0.
        -12    1    1    2    0    0  0.49786925664E+01  0.28287870389E+02  0.32536629902E+02  0.43400728982E+02  0.00000000000E+00 0.  1.
         11    1    3    3    0    0 -0.30640812578E+01 -0.28271181358E+01 -0.96074167258E+01  0.10472996100E+02  0.51100000000E-03 0. -1.
        -11    1    3    3    0    0 -0.60240463067E+01 -0.22735885524E+02 -0.22176185757E+02  0.32326348997E+02  0.51100000000E-03 0.  1.
        -12    1    3    3    0    0  0.41094349980E+01 -0.27248667294E+01 -0.75302741853E+00  0.49879259206E+01  0.00000000000E+00 0.  1.
</event>
<event>
 7    1  0.2294216E-010  0.4778729E+02  0.7816164E-02  0.1312668E+00
        -11   -1    0    0    0    0  0.00000000000E+00  0.00000000000E+00  0.45593999997E+02  0.45594000000E+02  0.51100000000E-03 0. -1.
         11   -1    0    0    0    0 -0.00000000000E+00 -0.00000000000E+00 -0.45593999997E+02  0.45594000000E+02  0.51100000000E-03 0.  1.
    9900012    2    1    2    0    0  0.31582265610E+02  0.29378746990E+02 -0.48032967745E+01  0.47787286461E+02  0.20000070290E+02 0.  0.
        -12    1    1    2    0    0 -0.31582265610E+02 -0.29378746990E+02  0.48032967745E+01  0.43400713539E+02  0.00000000000E+00 0.  1.
         11    1    3    3    0    0  0.17803372190E+02  0.17388232445E+02 -0.46751903521E+00  0.24890344779E+02  0.51100000000E-03 0. -1.
        -11    1    3    3    0    0  0.87683244131E+01  0.60800042204E+01  0.41108838144E+01  0.11434567343E+02  0.51100000000E-03 0.  1.
        -12    1    3    3    0    0  0.50105690067E+01  0.59105103247E+01 -0.84466615537E+01  0.11462374338E+02  0.00000000000E+00 0.  1.
</event>
<event>
 7    1  0.2294216E-010  0.4778727E+02  0.7816164E-02  0.1312668E+00
        -11   -1    0    0    0    0  0.00000000000E+00  0.00000000000E+00  0.45593999997E+02  0.45594000000E+02  0.51100000000E-03 0. -1.
         11   -1    0    0    0    0 -0.00000000000E+00 -0.00000000000E+00 -0.45593999997E+02  0.45594000000E+02  0.51100000000E-03 0.  1.
    9900012    2    1    2    0    0 -0.18121043502E+02  0.20110203500E+02  0.33923893001E+02  0.47787273984E+02  0.20000013403E+02 0.  0.
        -12    1    1    2    0    0  0.18121043502E+02 -0.20110203500E+02 -0.33923893001E+02  0.43400726016E+02  0.00000000000E+00 0.  1.
         11    1    3    3    0    0 -0.52824962788E+01  0.32811248610E+00  0.38571755207E+01  0.65490631389E+01  0.51100000000E-03 0. -1.
        -11    1    3    3    0    0 -0.12099472264E+02  0.19171309967E+02  0.17510171741E+02  0.28645112491E+02  0.51100000000E-03 0.  1.
        -12    1    3    3    0    0 -0.73907495912E+00  0.61078104629E+00  0.12556545739E+02  0.12593098355E+02  0.00000000000E+00 0.  1.
</event>
<event>
 7    1  0.2294216E-010  0.4778727E+02  0.7816164E-02  0.1312668E+00
        -11   -1    0    0    0    0  0.00000000000E+00  0.00000000000E+00  0.45593999997E+02  0.45594000000E+02  0.51100000000E-03 0.  1.
         11   -1    0    0    0    0 -0.00000000000E+00 -0.00000000000E+00 -0.45593999997E+02  0.45594000000E+02  0.51100000000E-03 0. -1.
    9900012    2    1    2    0    0 -0.11342386835E+02 -0.39133150425E+02 -0.14952261943E+02  0.47787270300E+02  0.19999996604E+02 0.  0.
        -12    1    1    2    0    0  0.11342386835E+02  0.39133150425E+02  0.14952261943E+02  0.43400729700E+02  0.00000000000E+00 0.  1.
         11    1    3    3    0    0 -0.63327225743E+01 -0.24129951117E+02 -0.82987871063E+01  0.26291211151E+02  0.51100000000E-03 0. -1.
        -11    1    3    3    0    0 -0.81317110402E+01 -0.12443855129E+02 -0.14869992075E+01  0.14939391615E+02  0.51100000000E-03 0.  1.
         12    1    3    3    0    0  0.31220467797E+01 -0.25593441795E+01 -0.51664756288E+01  0.65566675337E+01  0.00000000000E+00 0. -1.
</event>
<event>
 7    1  0.2294216E-010  0.4778727E+02  0.7816164E-02  0.1312668E+00
        -11   -1    0    0    0    0  0.00000000000E+00  0.00000000000E+00  0.45593999997E+02  0.45594000000E+02  0.51100000000E-03 0.  1.
         11   -1    0    0    0    0 -0.00000000000E+00 -0.00000000000E+00 -0.45593999997E+02  0.45594000000E+02  0.51100000000E-03 0. -1.
    9900012    2    1    2    0    0 -0.43359176949E+02 -0.62122648577E+00 -0.17941093390E+01  0.47787274472E+02  0.20000015627E+02 0.  0.
        -12    1    1    2    0    0  0.43359176949E+02  0.62122648577E+00  0.17941093390E+01  0.43400725528E+02  0.00000000000E+00 0.  1.
         11    1    3    3    0    0 -0.13266990711E+02  0.38212338132E+01 -0.38368053642E+01  0.14329548006E+02  0.51100000000E-03 0. -1.
        -11    1    3    3    0    0 -0.40216433814E+01  0.33848645638E+01  0.33033984871E+01  0.62083303253E+01  0.51100000000E-03 0.  1.
        -12    1    3    3    0    0 -0.26070542856E+02 -0.78273248627E+01 -0.12607024619E+01  0.27249396141E+02  0.00000000000E+00 0.  1.
</event>
<event>
 7    1  0.2294216E-010  0.4778727E+02  0.7816164E-02  0.1312668E+00
        -11   -1    0    0    0    0  0.00000000000E+00  0.00000000000E+00  0.45593999997E+02  0.45594000000E+02  0.51100000000E-03 0.  1.
         11   -1    0    0    0    0 -0.00000000000E+00 -0.00000000000E+00 -0.45593999997E+02  0.45594000000E+02  0.51100000000E-03 0. -1.
    9900012    2    1    2    0    0  0.21214935751E+02  0.16645535594E+02 -0.34007000582E+02  0.47787269099E+02  0.19999991131E+02 0.  0.
        -12    1    1    2    0    0 -0.21214935751E+02 -0.16645535594E+02  0.34007000582E+02  0.43400730901E+02  0.00000000000E+00 0.  1.
         11    1    3    3    0    0  0.53335764300E+01  0.39446440120E+01 -0.13708753275E+02  0.15229483594E+02  0.51100000000E-03 0. -1.
        -11    1    3    3    0    0  0.32353637582E+01 -0.10127164140E+01  0.16355868264E+01  0.37640825855E+01  0.51100000000E-03 0.  1.
        -12    1    3    3    0    0  0.12645995563E+02  0.13713607996E+02 -0.21933834134E+02  0.28793702920E+02  0.00000000000E+00 0.  1.
</event>
<event>
 7    1  0.2294216E-010  0.4778728E+02  0.7816164E-02  0.1312668E+00
        -11   -1    0    0    0    0  0.00000000000E+00  0.00000000000E+00  0.45593999997E+02  0.45594000000E+02  0.51100000000E-03 0. -1.
         11   -1    0    0    0    0 -0.00000000000E+00 -0.00000000000E+00 -0.45593999997E+02  0.45594000000E+02  0.51100000000E-03 0.  1.
    9900012    2    1    2    0    0  0.17252862447E+02  0.83869373927E-01  0.39824043493E+02  0.47787277231E+02  0.20000028209E+02 0.  0.
        -12    1    1    2    0    0 -0.17252862447E+02 -0.83869373927E-01 -0.39824043493E+02  0.43400722769E+02  0.00000000000E+00 0.  1.
         11    1    3    3    0    0  0.31857716587E+01 -0.40136963657E+01  0.14099151100E+02  0.15001498644E+02  0.51100000000E-03 0. -1.
        -11    1    3    3    0    0 -0.15240166615E+01 -0.22524127400E+01  0.10501697303E+01  0.29152781444E+01  0.51100000000E-03 0.  1.
        -12    1    3    3    0    0  0.15591107449E+02  0.63499784797E+01  0.24674722663E+02  0.29870500443E+02  0.00000000000E+00 0.  1.
</event>
<event>
 7    1  0.2294216E-010  0.4778727E+02  0.7816164E-02  0.1312668E+00
        -11   -1    0    0    0    0  0.00000000000E+00  0.00000000000E+00  0.45593999997E+02  0.45594000000E+02  0.51100000000E-03 0.  1.
         11   -1    0    0    0    0 -0.00000000000E+00 -0.00000000000E+00 -0.45593999997E+02  0.45594000000E+02  0.51100000000E-03 0. -1.
    9900012    2    1    2    0    0  0.23000383372E+02 -0.28612626042E+02 -0.23150017110E+02  0.47787270785E+02  0.19999998815E+02 0.  0.
        -12    1    1    2    0    0 -0.23000383372E+02  0.28612626042E+02  0.23150017110E+02  0.43400729215E+02  0.00000000000E+00 0.  1.
         11    1    3    3    0    0  0.11604419589E+02 -0.61465178368E+01 -0.52575606712E+01  0.14145111523E+02  0.51100000000E-03 0. -1.
        -11    1    3    3    0    0 -0.14341738935E+01 -0.11141331115E+02 -0.54617431863E+01  0.12490666622E+02  0.51100000000E-03 0.  1.
        -12    1    3    3    0    0  0.12830137677E+02 -0.11324777090E+02 -0.12430713252E+02  0.21151492640E+02  0.00000000000E+00 0.  1.
</event>
<event>
 7    1  0.2294216E-010  0.4778727E+02  0.7816164E-02  0.1312668E+00
        -11   -1    0    0    0    0  0.00000000000E+00  0.00000000000E+00  0.45593999997E+02  0.45594000000E+02  0.51100000000E-03 0.  1.
         11   -1    0    0    0    0 -0.00000000000E+00 -0.00000000000E+00 -0.45593999997E+02  0.45594000000E+02  0.51100000000E-03 0. -1.
    9900012    2    1    2    0    0  0.30984249402E+02  0.16586056080E+02 -0.25465707250E+02  0.47787271746E+02  0.20000003197E+02 0.  0.
        -12    1    1    2    0    0 -0.30984249402E+02 -0.16586056080E+02  0.25465707250E+02  0.43400728254E+02  0.00000000000E+00 0.  1.
         11    1    3    3    0    0  0.11504781152E+02  0.41116193279E+01 -0.17812472618E+02  0.21599758885E+02  0.51100000000E-03 0. -1.
        -11    1    3    3    0    0  0.14700255325E+02  0.94356903083E+01 -0.99189031157E+01  0.20087667796E+02  0.51100000000E-03 0.  1.
        -12    1    3    3    0    0  0.47792129246E+01  0.30387464435E+01  0.22656684841E+01  0.60998450642E+01  0.00000000000E+00 0.  1.
</event>
<event>
 7    1  0.2294216E-010  0.4778727E+02  0.7816164E-02  0.1312668E+00
        -11   -1    0    0    0    0  0.00000000000E+00  0.00000000000E+00  0.45593999997E+02  0.45594000000E+02  0.51100000000E-03 0. -1.
         11   -1    0    0    0    0 -0.00000000000E+00 -0.00000000000E+00 -0.45593999997E+02  0.45594000000E+02  0.51100000000E-03 0.  1.
    9900012    2    1    2    0    0 -0.62099731359E+01 -0.39828190622E+02  0.16086473895E+02  0.47787272161E+02  0.20000005091E+02 0.  0.
        -12    1    1    2    0    0  0.62099731359E+01  0.39828190622E+02 -0.16086473895E+02  0.43400727839E+02  0.00000000000E+00 0.  1.
         11    1    3    3    0    0  0.34542635774E+01 -0.88167623341E+01  0.16304387355E+01  0.96086193415E+01  0.51100000000E-03 0. -1.
        -11    1    3    3    0    0 -0.78073646585E+00 -0.14080773155E+02 -0.17442248285E+00  0.14103479908E+02  0.51100000000E-03 0.  1.
         12    1    3    3    0    0 -0.88835002474E+01 -0.16930655133E+02  0.14630457642E+02  0.24075172911E+02  0.00000000000E+00 0. -1.
</event>
<event>
 7    1  0.2294216E-010  0.4778728E+02  0.7816164E-02  0.1312668E+00
        -11   -1    0    0    0    0  0.00000000000E+00  0.00000000000E+00  0.45593999997E+02  0.45594000000E+02  0.51100000000E-03 0. -1.
         11   -1    0    0    0    0 -0.00000000000E+00 -0.00000000000E+00 -0.45593999997E+02  0.45594000000E+02  0.51100000000E-03 0.  1.
    9900012    2    1    2    0    0  0.80238832524E+01  0.30912827882E+02  0.29387706412E+02  0.47787275141E+02  0.20000018678E+02 0.  0.
        -12    1    1    2    0    0 -0.80238832524E+01 -0.30912827882E+02 -0.29387706412E+02  0.43400724859E+02  0.00000000000E+00 0.  1.
         11    1    3    3    0    0  0.23606573102E+01  0.13867268553E+02  0.92743504504E+01  0.16848958917E+02  0.51100000000E-03 0.  1.
        -11    1    3    3    0    0  0.10285933427E+02  0.70559297151E+01  0.99388513296E+01  0.15948897662E+02  0.51100000000E-03 0. -1.
        -12    1    3    3    0    0 -0.46227074849E+01  0.99896296145E+01  0.10174504632E+02  0.14989418562E+02  0.00000000000E+00 0.  1.
</event>
<event>
 7    1  0.2294216E-010  0.4778727E+02  0.7816164E-02  0.1312668E+00
        -11   -1    0    0    0    0  0.00000000000E+00  0.00000000000E+00  0.45593999997E+02  0.45594000000E+02  0.51100000000E-03 0.  1.
         11   -1    0    0    0    0 -0.00000000000E+00 -0.00000000000E+00 -0.45593999997E+02  0.45594000000E+02  0.51100000000E-03 0. -1.
    9900012    2    1    2    0    0  0.22884645478E+02  0.87078752587E+01 -0.35834190666E+02  0.47787270619E+02  0.19999998059E+02 0.  0.
        -12    1    1    2    0    0 -0.22884645478E+02 -0.87078752587E+01  0.35834190666E+02  0.43400729381E+02  0.00000000000E+00 0.  1.
         11    1    3    3    0    0  0.45812600109E+01  0.95677546138E+00  0.51893863534E+00  0.47087854208E+01  0.51100000000E-03 0. -1.
        -11    1    3    3    0    0 -0.11621349204E+01  0.21077297018E+01 -0.17458313136E+01  0.29733834778E+01  0.51100000000E-03 0.  1.
         12    1    3    3    0    0  0.19465520387E+02  0.56433700955E+01 -0.34607297988E+02  0.40105101720E+02  0.00000000000E+00 0. -1.
</event>
<event>
 7    1  0.2294216E-010  0.4778727E+02  0.7816164E-02  0.1312668E+00
        -11   -1    0    0    0    0  0.00000000000E+00  0.00000000000E+00  0.45593999997E+02  0.45594000000E+02  0.51100000000E-03 0.  1.
         11   -1    0    0    0    0 -0.00000000000E+00 -0.00000000000E+00 -0.45593999997E+02  0.45594000000E+02  0.51100000000E-03 0. -1.
    9900012    2    1    2    0    0  0.20855076235E+00  0.24478901304E+02 -0.35838009507E+02  0.47787273878E+02  0.20000012921E+02 0.  0.
        -12    1    1    2    0    0 -0.20855076235E+00 -0.24478901304E+02  0.35838009507E+02  0.43400726122E+02  0.00000000000E+00 0.  1.
         11    1    3    3    0    0  0.11296761823E+01  0.24298748102E+01 -0.31136390703E+00  0.26976670688E+01  0.51100000000E-03 0. -1.
        -11    1    3    3    0    0  0.45769021398E+01  0.16423157195E+02 -0.13645065134E+02  0.21837031122E+02  0.51100000000E-03 0.  1.
        -12    1    3    3    0    0 -0.54980275598E+01  0.56258692984E+01 -0.21881580466E+02  0.23252575688E+02  0.00000000000E+00 0.  1.
</event>
<event>
 7    1  0.2294216E-010  0.4778728E+02  0.7816164E-02  0.1312668E+00
        -11   -1    0    0    0    0  0.00000000000E+00  0.00000000000E+00  0.45593999997E+02  0.45594000000E+02  0.51100000000E-03 0.  1.
         11   -1    0    0    0    0 -0.00000000000E+00 -0.00000000000E+00 -0.45593999997E+02  0.45594000000E+02  0.51100000000E-03 0. -1.
    9900012    2    1    2    0    0  0.37545527678E+02 -0.11593588680E+02 -0.18426743678E+02  0.47787276162E+02  0.20000023331E+02 0.  0.
        -12    1    1    2    0    0 -0.37545527678E+02  0.11593588680E+02  0.18426743678E+02  0.43400723838E+02  0.00000000000E+00 0.  1.
         11    1    3    3    0    0  0.11800414319E+02 -0.66196409622E+01 -0.14154826071E+02  0.19581331056E+02  0.51100000000E-03 0. -1.
        -11    1    3    3    0    0  0.12584659919E+00 -0.76002376431E+00  0.14294438146E+01  0.16238175295E+01  0.51100000000E-03 0.  1.
        -12    1    3    3    0    0  0.25619266760E+02 -0.42139239536E+01 -0.57013614215E+01  0.26582127576E+02  0.00000000000E+00 0.  1.
</event>
<event>
 7    1  0.2294216E-010  0.4778727E+02  0.7816164E-02  0.1312668E+00
        -11   -1    0    0    0    0  0.00000000000E+00  0.00000000000E+00  0.45593999997E+02  0.45594000000E+02  0.51100000000E-03 0.  1.
         11   -1    0    0    0    0 -0.00000000000E+00 -0.00000000000E+00 -0.45593999997E+02  0.45594000000E+02  0.51100000000E-03 0. -1.
    9900012    2    1    2    0    0  0.27919425137E+02  0.27532026401E+02 -0.18604198400E+02  0.47787274478E+02  0.20000015656E+02 0.  0.
        -12    1    1    2    0    0 -0.27919425137E+02 -0.27532026401E+02  0.18604198400E+02  0.43400725522E+02  0.00000000000E+00 0.  1.
         11    1    3    3    0    0  0.16125684571E+02  0.12851462552E+02 -0.69948802273E+01  0.21774437817E+02  0.51100000000E-03 0. -1.
        -11    1    3    3    0    0  0.63456931786E+01 -0.90491717742E+00 -0.53732690525E+01  0.83641328054E+01  0.51100000000E-03 0.  1.
         12    1    3    3    0    0  0.54480473878E+01  0.15585481026E+02 -0.62360491198E+01  0.17648703855E+02  0.00000000000E+00 0. -1.
</event>
<event>
 7    1  0.2294216E-010  0.4778728E+02  0.7816164E-02  0.1312668E+00
        -11   -1    0    0    0    0  0.00000000000E+00  0.00000000000E+00  0.45593999997E+02  0.45594000000E+02  0.51100000000E-03 0.  1.
         11   -1    0    0    0    0 -0.00000000000E+00 -0.00000000000E+00 -0.45593999997E+02  0.45594000000E+02  0.51100000000E-03 0. -1.
    9900012    2    1    2    0    0  0.16745298316E+02  0.20537660367E+01 -0.39987495888E+02  0.47787276527E+02  0.20000024996E+02 0.  0.
        -12    1    1    2    0    0 -0.16745298316E+02 -0.20537660367E+01  0.39987495888E+02  0.43400723473E+02  0.00000000000E+00 0.  1.
         11    1    3    3    0    0  0.40186257466E+01  0.50706820006E+01 -0.31134071570E+01  0.71801443738E+01  0.51100000000E-03 0. -1.
        -11    1    3    3    0    0  0.18226949816E+01  0.68333555290E+00  0.31602540631E-01  0.19468342137E+01  0.51100000000E-03 0.  1.
         12    1    3    3    0    0  0.10903977588E+02 -0.37002515167E+01 -0.36905691272E+02  0.38660297939E+02  0.00000000000E+00 0. -1.
</event>
<event>
 7    1  0.2294216E-010  0.4778727E+02  0.7816164E-02  0.1312668E+00
        -11   -1    0    0    0    0  0.00000000000E+00  0.00000000000E+00  0.45593999997E+02  0.45594000000E+02  0.51100000000E-03 0.  1.
         11   -1    0    0    0    0 -0.00000000000E+00 -0.00000000000E+00 -0.45593999997E+02  0.45594000000E+02  0.51100000000E-03 0. -1.
    9900012    2    1    2    0    0 -0.14007418308E+02  0.20585304525E+02 -0.35548008633E+02  0.47787269041E+02  0.19999990865E+02 0.  0.
        -12    1    1    2    0    0  0.14007418308E+02 -0.20585304525E+02  0.35548008633E+02  0.43400730959E+02  0.00000000000E+00 0.  1.
         11    1    3    3    0    0 -0.54039714646E+01  0.16393220927E+02 -0.19627631461E+02  0.26137798625E+02  0.51100000000E-03 0. -1.
        -11    1    3    3    0    0  0.19516066150E+01  0.12310885905E+01  0.14962350791E-01  0.23075033327E+01  0.51100000000E-03 0.  1.
        -12    1    3    3    0    0 -0.10555053458E+02  0.29609950075E+01 -0.15935339523E+02  0.19341967083E+02  0.00000000000E+00 0.  1.
</event>
<event>
 7    1  0.2294216E-010  0.4778727E+02  0.7816164E-02  0.1312668E+00
        -11   -1    0    0    0    0  0.00000000000E+00  0.00000000000E+00  0.45593999997E+02  0.45594000000E+02  0.51100000000E-03 0. -1.
         11   -1    0    0    0    0 -0.00000000000E+00 -0.00000000000E+00 -0.45593999997E+02  0.45594000000E+02  0.51100000000E-03 0.  1.
    9900012    2    1    2    0    0  0.33135036460E+01 -0.43273671046E+02  0.18181839337E+00  0.47787274543E+02  0.20000015953E+02 0.  0.
        -12    1    1    2    0    0 -0.33135036460E+01  0.43273671046E+02 -0.18181839337E+00  0.43400725457E+02  0.00000000000E+00 0.  1.
         11    1    3    3    0    0 -0.81428446060E-01 -0.18872029309E+02 -0.68105853429E+01  0.20063504026E+02  0.51100000000E-03 0. -1.
        -11    1    3    3    0    0  0.26972561196E+01 -0.89116711306E+00  0.24865985043E+01  0.37752538698E+01  0.51100000000E-03 0.  1.
         12    1    3    3    0    0  0.69767597245E+00 -0.23510474624E+02  0.45058052319E+01  0.23948516648E+02  0.00000000000E+00 0. -1.
</event>
<event>
 7    1  0.2294216E-010  0.4778727E+02  0.7816164E-02  0.1312668E+00
        -11   -1    0    0    0    0  0.00000000000E+00  0.00000000000E+00  0.45593999997E+02  0.45594000000E+02  0.51100000000E-03 0.  1.
         11   -1    0    0    0    0 -0.00000000000E+00 -0.00000000000E+00 -0.45593999997E+02  0.45594000000E+02  0.51100000000E-03 0. -1.
    9900012    2    1    2    0    0  0.43090737992E+02  0.48826734385E+01  0.17236493207E+01  0.47787272269E+02  0.20000005583E+02 0.  0.
        -12    1    1    2    0    0 -0.43090737992E+02 -0.48826734385E+01 -0.17236493207E+01  0.43400727731E+02  0.00000000000E+00 0.  1.
         11    1    3    3    0    0  0.16172792359E+02 -0.20422480392E+01 -0.19051578664E+00  0.16302339902E+02  0.51100000000E-03 0. -1.
        -11    1    3    3    0    0  0.84245388819E+01  0.66867700029E+00  0.73707573919E+01  0.11213743759E+02  0.51100000000E-03 0.  1.
         12    1    3    3    0    0  0.18493406751E+02  0.62562444774E+01 -0.54565922845E+01  0.20271188608E+02  0.00000000000E+00 0. -1.
</event>
<event>
 7    1  0.2294216E-010  0.4778727E+02  0.7816164E-02  0.1312668E+00
        -11   -1    0    0    0    0  0.00000000000E+00  0.00000000000E+00  0.45593999997E+02  0.45594000000E+02  0.51100000000E-03 0. -1.
         11   -1    0    0    0    0 -0.00000000000E+00 -0.00000000000E+00 -0.45593999997E+02  0.45594000000E+02  0.51100000000E-03 0.  1.
    9900012    2    1    2    0    0  0.26150665288E+02 -0.34388114633E+02  0.41501273883E+01  0.47787270969E+02  0.19999999657E+02 0.  0.
        -12    1    1    2    0    0 -0.26150665288E+02  0.34388114633E+02 -0.41501273883E+01  0.43400729031E+02  0.00000000000E+00 0.  1.
         11    1    3    3    0    0  0.20815866624E+02 -0.19021853067E+02  0.72008764115E+01  0.29102986424E+02  0.51100000000E-03 0. -1.
        -11    1    3    3    0    0 -0.13494594118E+00 -0.19507601129E+01  0.24962637320E+01  0.31709633089E+01  0.51100000000E-03 0.  1.
         12    1    3    3    0    0  0.54697446054E+01 -0.13415501453E+02 -0.55470127552E+01  0.15513321237E+02  0.00000000000E+00 0. -1.
</event>
<event>
 7    1  0.2294216E-010  0.4778728E+02  0.7816164E-02  0.1312668E+00
        -11   -1    0    0    0    0  0.00000000000E+00  0.00000000000E+00  0.45593999997E+02  0.45594000000E+02  0.51100000000E-03 0. -1.
         11   -1    0    0    0    0 -0.00000000000E+00 -0.00000000000E+00 -0.45593999997E+02  0.45594000000E+02  0.51100000000E-03 0.  1.
    9900012    2    1    2    0    0  0.13351095803E+02  0.40297858613E+02  0.90251712974E+01  0.47787275526E+02  0.20000020435E+02 0.  0.
        -12    1    1    2    0    0 -0.13351095803E+02 -0.40297858613E+02 -0.90251712974E+01  0.43400724474E+02  0.00000000000E+00 0.  1.
         11    1    3    3    0    0  0.11993717948E+01  0.63220984080E+01 -0.53553545007E+01  0.83718124126E+01  0.51100000000E-03 0. -1.
        -11    1    3    3    0    0  0.16354624617E+01  0.66791758097E+00  0.80737114470E+00  0.19423438895E+01  0.51100000000E-03 0.  1.
         12    1    3    3    0    0  0.10516261546E+02  0.33307842624E+02  0.13573154653E+02  0.37473119224E+02  0.00000000000E+00 0. -1.
</event>
<event>
 7    1  0.2294216E-010  0.4778727E+02  0.7816164E-02  0.1312668E+00
        -11   -1    0    0    0    0  0.00000000000E+00  0.00000000000E+00  0.45593999997E+02  0.45594000000E+02  0.51100000000E-03 0.  1.
         11   -1    0    0    0    0 -0.00000000000E+00 -0.00000000000E+00 -0.45593999997E+02  0.45594000000E+02  0.51100000000E-03 0. -1.
    9900012    2    1    2    0    0  0.12271063832E+02  0.28046148589E+02 -0.30764552914E+02  0.47787272192E+02  0.20000005234E+02 0.  0.
        -12    1    1    2    0    0 -0.12271063832E+02 -0.28046148589E+02  0.30764552914E+02  0.43400727808E+02  0.00000000000E+00 0.  1.
         11    1    3    3    0    0  0.40534125281E+00  0.10466017664E+02 -0.14335057189E+02  0.17753751494E+02  0.51100000000E-03 0. -1.
        -11    1    3    3    0    0  0.24382819067E+01  0.10336542071E+02 -0.14524328869E+02  0.17992927777E+02  0.51100000000E-03 0.  1.
        -12    1    3    3    0    0  0.94274406725E+01  0.72435888550E+01 -0.19051668554E+01  0.12040592921E+02  0.00000000000E+00 0.  1.
</event>
<event>
 7    1  0.2294216E-010  0.4778727E+02  0.7816164E-02  0.1312668E+00
        -11   -1    0    0    0    0  0.00000000000E+00  0.00000000000E+00  0.45593999997E+02  0.45594000000E+02  0.51100000000E-03 0.  1.
         11   -1    0    0    0    0 -0.00000000000E+00 -0.00000000000E+00 -0.45593999997E+02  0.45594000000E+02  0.51100000000E-03 0. -1.
    9900012    2    1    2    0    0  0.16435006932E+02 -0.22139943579E+02 -0.33516215726E+02  0.47787271076E+02  0.20000000145E+02 0.  0.
        -12    1    1    2    0    0 -0.16435006932E+02  0.22139943579E+02  0.33516215726E+02  0.43400728924E+02  0.00000000000E+00 0.  1.
         11    1    3    3    0    0  0.31858624562E+01 -0.13794888044E+02 -0.19871075151E+02  0.24398940216E+02  0.51100000000E-03 0. -1.
        -11    1    3    3    0    0  0.21482722764E+01 -0.52538452280E+00 -0.86370171103E+01  0.89156697726E+01  0.51100000000E-03 0.  1.
         12    1    3    3    0    0  0.11100872199E+02 -0.78196710126E+01 -0.50081234647E+01  0.14472661088E+02  0.00000000000E+00 0. -1.
</event>
<event>
 7    1  0.2294216E-010  0.4778727E+02  0.7816164E-02  0.1312668E+00
        -11   -1    0    0    0    0  0.00000000000E+00  0.00000000000E+00  0.45593999997E+02  0.45594000000E+02  0.51100000000E-03 0.  1.
         11   -1    0    0    0    0 -0.00000000000E+00 -0.00000000000E+00 -0.45593999997E+02  0.45594000000E+02  0.51100000000E-03 0. -1.
    9900012    2    1    2    0    0  0.12576367204E+02  0.13256424367E+02 -0.39366554137E+02  0.47787269780E+02  0.19999994233E+02 0.  0.
        -12    1    1    2    0    0 -0.12576367204E+02 -0.13256424367E+02  0.39366554137E+02  0.43400730220E+02  0.00000000000E+00 0.  1.
         11    1    3    3    0    0  0.44505368676E-01 -0.75385406210E+00  0.82146005334E+00  0.11158286406E+01  0.51100000000E-03 0. -1.
        -11    1    3    3    0    0  0.11896364237E+02  0.33443022447E+01 -0.15903462362E+02  0.20140207420E+02  0.51100000000E-03 0.  1.
         12    1    3    3    0    0  0.63549759865E+00  0.10665976184E+02 -0.24284551828E+02  0.26531233719E+02  0.00000000000E+00 0. -1.
</event>
<event>
 7    1  0.2294216E-010  0.4778728E+02  0.7816164E-02  0.1312668E+00
        -11   -1    0    0    0    0  0.00000000000E+00  0.00000000000E+00  0.45593999997E+02  0.45594000000E+02  0.51100000000E-03 0. -1.
         11   -1    0    0    0    0 -0.00000000000E+00 -0.00000000000E+00 -0.45593999997E+02  0.45594000000E+02  0.51100000000E-03 0.  1.
    9900012    2    1    2    0    0  0.26049060065E+02  0.98641098296E+00  0.34700090648E+02  0.47787276183E+02  0.20000023429E+02 0.  0.
        -12    1    1    2    0    0 -0.26049060065E+02 -0.98641098296E+00 -0.34700090648E+02  0.43400723817E+02  0.00000000000E+00 0.  1.
         11    1    3    3    0    0  0.68662383035E+01 -0.20711472975E+01  0.20745829915E+02  0.21950497459E+02  0.51100000000E-03 0. -1.
        -11    1    3    3    0    0  0.11744537765E+02 -0.12443004108E+00  0.13264485703E+02  0.17717116903E+02  0.51100000000E-03 0.  1.
        -12    1    3    3    0    0  0.74382839966E+01  0.31819883216E+01  0.68977502982E+00  0.81196618208E+01  0.00000000000E+00 0.  1.
</event>
<event>
 7    1  0.2294216E-010  0.4778727E+02  0.7816164E-02  0.1312668E+00
        -11   -1    0    0    0    0  0.00000000000E+00  0.00000000000E+00  0.45593999997E+02  0.45594000000E+02  0.51100000000E-03 0.  1.
         11   -1    0    0    0    0 -0.00000000000E+00 -0.00000000000E+00 -0.45593999997E+02  0.45594000000E+02  0.51100000000E-03 0. -1.
    9900012    2    1    2    0    0 -0.35969410001E+02 -0.54925756198E+01 -0.23657058731E+02  0.47787271083E+02  0.20000000174E+02 0.  0.
        -12    1    1    2    0    0  0.35969410001E+02  0.54925756198E+01  0.23657058731E+02  0.43400728917E+02  0.00000000000E+00 0.  1.
         11    1    3    3    0    0 -0.17469611770E+02  0.13969627825E+01 -0.66303979639E+01  0.18737689767E+02  0.51100000000E-03 0. -1.
        -11    1    3    3    0    0 -0.82599984964E+01  0.22377905949E+01 -0.11324631373E+02  0.14194455181E+02  0.51100000000E-03 0.  1.
         12    1    3    3    0    0 -0.10239799735E+02 -0.91273289972E+01 -0.57020293948E+01  0.14855126134E+02  0.00000000000E+00 0. -1.
</event>
<event>
 7    1  0.2294216E-010  0.4778727E+02  0.7816164E-02  0.1312668E+00
        -11   -1    0    0    0    0  0.00000000000E+00  0.00000000000E+00  0.45593999997E+02  0.45594000000E+02  0.51100000000E-03 0. -1.
         11   -1    0    0    0    0 -0.00000000000E+00 -0.00000000000E+00 -0.45593999997E+02  0.45594000000E+02  0.51100000000E-03 0.  1.
    9900012    2    1    2    0    0 -0.29850829305E+01  0.42942097445E+02  0.55397716670E+01  0.47787268173E+02  0.19999986906E+02 0.  0.
        -12    1    1    2    0    0  0.29850829305E+01 -0.42942097445E+02 -0.55397716670E+01  0.43400731827E+02  0.00000000000E+00 0.  1.
         11    1    3    3    0    0  0.78389656940E+01  0.15946498913E+02  0.21028083121E+01  0.17893071670E+02  0.51100000000E-03 0.  1.
        -11    1    3    3    0    0 -0.19652214595E+01  0.76478773185E+01 -0.15290300932E+01  0.80430128777E+01  0.51100000000E-03 0. -1.
        -12    1    3    3    0    0 -0.88588271650E+01  0.19347721213E+02  0.49659934481E+01  0.21851183625E+02  0.00000000000E+00 0.  1.
</event>
<event>
 7    1  0.2294216E-010  0.4778728E+02  0.7816164E-02  0.1312668E+00
        -11   -1    0    0    0    0  0.00000000000E+00  0.00000000000E+00  0.45593999997E+02  0.45594000000E+02  0.51100000000E-03 0. -1.
         11   -1    0    0    0    0 -0.00000000000E+00 -0.00000000000E+00 -0.45593999997E+02  0.45594000000E+02  0.51100000000E-03 0.  1.
    9900012    2    1    2    0    0  0.11625962989E+02 -0.40263426008E+02 -0.11283447524E+02  0.47787277916E+02  0.20000031332E+02 0.  0.
        -12    1    1    2    0    0 -0.11625962989E+02  0.40263426008E+02  0.11283447524E+02  0.43400722084E+02  0.00000000000E+00 0.  1.
         11    1    3    3    0    0 -0.19393183286E+01 -0.10738130637E+02  0.57620212640E+00  0.10927049662E+02  0.51100000000E-03 0.  1.
        -11    1    3    3    0    0  0.71567131420E+00 -0.14957967849E+02 -0.21001929143E+01  0.15121633448E+02  0.51100000000E-03 0. -1.
         12    1    3    3    0    0  0.12849610003E+02 -0.14567327522E+02 -0.97594567365E+01  0.21738594806E+02  0.00000000000E+00 0. -1.
</event>
<event>
 7    1  0.2294216E-010  0.4778727E+02  0.7816164E-02  0.1312668E+00
        -11   -1    0    0    0    0  0.00000000000E+00  0.00000000000E+00  0.45593999997E+02  0.45594000000E+02  0.51100000000E-03 0. -1.
         11   -1    0    0    0    0 -0.00000000000E+00 -0.00000000000E+00 -0.45593999997E+02  0.45594000000E+02  0.51100000000E-03 0.  1.
    9900012    2    1    2    0    0  0.34281146690E+02 -0.13088355173E+02  0.23175875690E+02  0.47787271049E+02  0.20000000019E+02 0.  0.
        -12    1    1    2    0    0 -0.34281146690E+02  0.13088355173E+02 -0.23175875690E+02  0.43400728951E+02  0.00000000000E+00 0.  1.
         11    1    3    3    0    0  0.32737740916E+01  0.50757864649E+00  0.27401980051E+01  0.42992927620E+01  0.51100000000E-03 0. -1.
        -11    1    3    3    0    0  0.26173948678E+02 -0.62828015609E+01  0.76456758712E+01  0.27982236234E+02  0.51100000000E-03 0.  1.
         12    1    3    3    0    0  0.48334239204E+01 -0.73131322583E+01  0.12790001813E+02  0.15505742053E+02  0.00000000000E+00 0. -1.
</event>
<event>
 7    1  0.2294216E-010  0.4778727E+02  0.7816164E-02  0.1312668E+00
        -11   -1    0    0    0    0  0.00000000000E+00  0.00000000000E+00  0.45593999997E+02  0.45594000000E+02  0.51100000000E-03 0. -1.
         11   -1    0    0    0    0 -0.00000000000E+00 -0.00000000000E+00 -0.45593999997E+02  0.45594000000E+02  0.51100000000E-03 0.  1.
    9900012    2    1    2    0    0 -0.39605000831E+02 -0.93806780916E+01  0.15068850371E+02  0.47787268856E+02  0.19999990023E+02 0.  0.
        -12    1    1    2    0    0  0.39605000831E+02  0.93806780916E+01 -0.15068850371E+02  0.43400731144E+02  0.00000000000E+00 0.  1.
         11    1    3    3    0    0 -0.13992195708E+02 -0.10064389509E+02  0.47275173007E+01  0.17872406022E+02  0.51100000000E-03 0. -1.
        -11    1    3    3    0    0 -0.55520429494E+01 -0.14660835005E+01  0.76426774105E+01  0.95595554292E+01  0.51100000000E-03 0.  1.
         12    1    3    3    0    0 -0.20060762174E+02  0.21497949176E+01  0.26986556598E+01  0.20355307405E+02  0.00000000000E+00 0. -1.
</event>
<event>
 7    1  0.2294216E-010  0.4778727E+02  0.7816164E-02  0.1312668E+00
        -11   -1    0    0    0    0  0.00000000000E+00  0.00000000000E+00  0.45593999997E+02  0.45594000000E+02  0.51100000000E-03 0.  1.
         11   -1    0    0    0    0 -0.00000000000E+00 -0.00000000000E+00 -0.45593999997E+02  0.45594000000E+02  0.51100000000E-03 0. -1.
    9900012    2    1    2    0    0 -0.18807900960E+02  0.38297116023E+02  0.79508944306E+01  0.47787274701E+02  0.20000016673E+02 0.  0.
        -12    1    1    2    0    0  0.18807900960E+02 -0.38297116023E+02 -0.79508944306E+01  0.43400725299E+02  0.00000000000E+00 0.  1.
         11    1    3    3    0    0 -0.46292191467E+00  0.16426883907E+01  0.36489278236E+01  0.40283242634E+01  0.51100000000E-03 0. -1.
        -11    1    3    3    0    0 -0.81690892683E+00  0.17017335072E+02  0.36786221765E+01  0.17429552333E+02  0.51100000000E-03 0.  1.
         12    1    3    3    0    0 -0.17528070118E+02  0.19637092561E+02  0.62334443056E+00  0.26329398105E+02  0.00000000000E+00 0. -1.
</event>
<event>
 7    1  0.2294216E-010  0.4778727E+02  0.7816164E-02  0.1312668E+00
        -11   -1    0    0    0    0  0.00000000000E+00  0.00000000000E+00  0.45593999997E+02  0.45594000000E+02  0.51100000000E-03 0. -1.
         11   -1    0    0    0    0 -0.00000000000E+00 -0.00000000000E+00 -0.45593999997E+02  0.45594000000E+02  0.51100000000E-03 0.  1.
    9900012    2    1    2    0    0 -0.97647962467E+00 -0.43326076035E+02 -0.23496910585E+01  0.47787269302E+02  0.19999992055E+02 0.  0.
        -12    1    1    2    0    0  0.97647962467E+00  0.43326076035E+02  0.23496910585E+01  0.43400730698E+02  0.00000000000E+00 0.  1.
         11    1    3    3    0    0 -0.21008714676E+01 -0.25117520632E+02  0.10243658248E+00  0.25205435865E+02  0.51100000000E-03 0. -1.
        -11    1    3    3    0    0  0.32242625030E+01 -0.17358884134E+02 -0.57609396027E+01  0.18571891461E+02  0.51100000000E-03 0.  1.
         12    1    3    3    0    0 -0.20998706601E+01 -0.84967126920E+00  0.33088119617E+01  0.40099419762E+01  0.00000000000E+00 0. -1.
</event>
<event>
 7    1  0.2294216E-010  0.4778727E+02  0.7816164E-02  0.1312668E+00
        -11   -1    0    0    0    0  0.00000000000E+00  0.00000000000E+00  0.45593999997E+02  0.45594000000E+02  0.51100000000E-03 0.  1.
         11   -1    0    0    0    0 -0.00000000000E+00 -0.00000000000E+00 -0.45593999997E+02  0.45594000000E+02  0.51100000000E-03 0. -1.
    9900012    2    1    2    0    0 -0.92738170160E+00  0.89233900702E+00 -0.43381644793E+02  0.47787269468E+02  0.19999992813E+02 0.  0.
        -12    1    1    2    0    0  0.92738170160E+00 -0.89233900702E+00  0.43381644793E+02  0.43400730532E+02  0.00000000000E+00 0.  1.
         11    1    3    3    0    0 -0.21874011981E+00 -0.29047284453E+01 -0.95892521993E+01  0.10021928586E+02  0.51100000000E-03 0. -1.
        -11    1    3    3    0    0 -0.18707932385E+01  0.23360505046E+01  0.81961339098E+00  0.31030252453E+01  0.51100000000E-03 0.  1.
        -12    1    3    3    0    0  0.11621516568E+01  0.14610169477E+01 -0.34612005985E+02  0.34662315637E+02  0.00000000000E+00 0.  1.
</event>
<event>
 7    1  0.2294216E-010  0.4778727E+02  0.7816164E-02  0.1312668E+00
        -11   -1    0    0    0    0  0.00000000000E+00  0.00000000000E+00  0.45593999997E+02  0.45594000000E+02  0.51100000000E-03 0.  1.
         11   -1    0    0    0    0 -0.00000000000E+00 -0.00000000000E+00 -0.45593999997E+02  0.45594000000E+02  0.51100000000E-03 0. -1.
    9900012    2    1    2    0    0  0.25393173797E+02  0.34834655888E+02  0.50355488085E+01  0.47787270995E+02  0.19999999776E+02 0.  0.
        -12    1    1    2    0    0 -0.25393173797E+02 -0.34834655888E+02 -0.50355488085E+01  0.43400729005E+02  0.00000000000E+00 0.  1.
         11    1    3    3    0    0  0.89888101506E+00  0.23072219154E+01  0.13391625358E+01  0.28150695559E+01  0.51100000000E-03 0. -1.
        -11    1    3    3    0    0  0.25801514040E+02  0.22548820823E+02  0.56262841124E+01  0.34724955298E+02  0.51100000000E-03 0.  1.
         12    1    3    3    0    0 -0.13072212582E+01  0.99786131501E+01 -0.19298978397E+01  0.10247246142E+02  0.00000000000E+00 0. -1.
</event>
<event>
 7    1  0.2294216E-010  0.4778727E+02  0.7816164E-02  0.1312668E+00
        -11   -1    0    0    0    0  0.00000000000E+00  0.00000000000E+00  0.45593999997E+02  0.45594000000E+02  0.51100000000E-03 0. -1.
         11   -1    0    0    0    0 -0.00000000000E+00 -0.00000000000E+00 -0.45593999997E+02  0.45594000000E+02  0.51100000000E-03 0.  1.
    9900012    2    1    2    0    0  0.20293974245E+02 -0.79002596723E+01  0.37541492274E+02  0.47787272637E+02  0.20000007259E+02 0.  0.
        -12    1    1    2    0    0 -0.20293974245E+02  0.79002596723E+01 -0.37541492274E+02  0.43400727363E+02  0.00000000000E+00 0.  1.
         11    1    3    3    0    0  0.98058272481E+01 -0.29157127717E+01  0.13107409417E+02  0.16627080648E+02  0.51100000000E-03 0. -1.
        -11    1    3    3    0    0  0.76901046621E+01 -0.58117724825E+01  0.38650284818E+01  0.10385222893E+02  0.51100000000E-03 0.  1.
        -12    1    3    3    0    0  0.27980423349E+01  0.82722558181E+00  0.20569054375E+02  0.20774969096E+02  0.00000000000E+00 0.  1.
</event>
<event>
 7    1  0.2294216E-010  0.4778727E+02  0.7816164E-02  0.1312668E+00
        -11   -1    0    0    0    0  0.00000000000E+00  0.00000000000E+00  0.45593999997E+02  0.45594000000E+02  0.51100000000E-03 0. -1.
         11   -1    0    0    0    0 -0.00000000000E+00 -0.00000000000E+00 -0.45593999997E+02  0.45594000000E+02  0.51100000000E-03 0.  1.
    9900012    2    1    2    0    0  0.26941471975E+02  0.28012619037E+02  0.19315111911E+02  0.47787270909E+02  0.19999999384E+02 0.  0.
        -12    1    1    2    0    0 -0.26941471975E+02 -0.28012619037E+02 -0.19315111911E+02  0.43400729091E+02  0.00000000000E+00 0.  1.
         11    1    3    3    0    0  0.26848782179E+02  0.22060821534E+02  0.19584745861E+02  0.39888585108E+02  0.51100000000E-03 0. -1.
        -11    1    3    3    0    0  0.12199281363E+01  0.30233746433E+01  0.21765295046E+01  0.39199872241E+01  0.51100000000E-03 0.  1.
        -12    1    3    3    0    0 -0.11272383404E+01  0.29284228594E+01 -0.24461634545E+01  0.39786985769E+01  0.00000000000E+00 0.  1.
</event>
<event>
 7    1  0.2294216E-010  0.4778727E+02  0.7816164E-02  0.1312668E+00
        -11   -1    0    0    0    0  0.00000000000E+00  0.00000000000E+00  0.45593999997E+02  0.45594000000E+02  0.51100000000E-03 0. -1.
         11   -1    0    0    0    0 -0.00000000000E+00 -0.00000000000E+00 -0.45593999997E+02  0.45594000000E+02  0.51100000000E-03 0.  1.
    9900012    2    1    2    0    0 -0.18315352982E+02 -0.38732664773E+02  0.69247448012E+01  0.47787267681E+02  0.19999984663E+02 0.  0.
        -12    1    1    2    0    0  0.18315352982E+02  0.38732664773E+02 -0.69247448012E+01  0.43400732319E+02  0.00000000000E+00 0.  1.
         11    1    3    3    0    0  0.11353809021E+01  0.56957061601E+00  0.77953614152E+00  0.14903614785E+01  0.51100000000E-03 0. -1.
        -11    1    3    3    0    0 -0.10617427542E+02 -0.82150558735E+01  0.34870053497E+01  0.13869971780E+02  0.51100000000E-03 0.  1.
        -12    1    3    3    0    0 -0.88333063423E+01 -0.31087179516E+02  0.26582033099E+01  0.32426934422E+02  0.00000000000E+00 0.  1.
</event>
<event>
 7    1  0.2294216E-010  0.4778727E+02  0.7816164E-02  0.1312668E+00
        -11   -1    0    0    0    0  0.00000000000E+00  0.00000000000E+00  0.45593999997E+02  0.45594000000E+02  0.51100000000E-03 0. -1.
         11   -1    0    0    0    0 -0.00000000000E+00 -0.00000000000E+00 -0.45593999997E+02  0.45594000000E+02  0.51100000000E-03 0.  1.
    9900012    2    1    2    0    0  0.35188904202E+02  0.14204690029E+02 -0.21061598803E+02  0.47787272565E+02  0.20000006933E+02 0.  0.
        -12    1    1    2    0    0 -0.35188904202E+02 -0.14204690029E+02  0.21061598803E+02  0.43400727435E+02  0.00000000000E+00 0.  1.
         11    1    3    3    0    0  0.12836940880E+02  0.69826015819E+00 -0.48068470152E-01  0.12856007516E+02  0.51100000000E-03 0. -1.
        -11    1    3    3    0    0  0.43689949309E+01  0.80911798648E-01 -0.76554557000E+01  0.88147981066E+01  0.51100000000E-03 0.  1.
        -12    1    3    3    0    0  0.17982968391E+02  0.13425518073E+02 -0.13358074633E+02  0.26116466942E+02  0.00000000000E+00 0.  1.
</event>
<event>
 7    1  0.2294216E-010  0.4778727E+02  0.7816164E-02  0.1312668E+00
        -11   -1    0    0    0    0  0.00000000000E+00  0.00000000000E+00  0.45593999997E+02  0.45594000000E+02  0.51100000000E-03 0.  1.
         11   -1    0    0    0    0 -0.00000000000E+00 -0.00000000000E+00 -0.45593999997E+02  0.45594000000E+02  0.51100000000E-03 0. -1.
    9900012    2    1    2    0    0  0.16811820260E+02 -0.22010260346E+02 -0.33414584874E+02  0.47787270245E+02  0.19999996356E+02 0.  0.
        -12    1    1    2    0    0 -0.16811820260E+02  0.22010260346E+02  0.33414584874E+02  0.43400729755E+02  0.00000000000E+00 0.  1.
         11    1    3    3    0    0  0.36403699851E+01 -0.38045134398E+01 -0.34046905049E+01  0.62704492532E+01  0.51100000000E-03 0. -1.
        -11    1    3    3    0    0  0.71204978880E+01  0.16265066603E+01 -0.42564303123E+01  0.84536508891E+01  0.51100000000E-03 0.  1.
         12    1    3    3    0    0  0.60509523864E+01 -0.19832253567E+02 -0.25753464057E+02  0.33063170103E+02  0.00000000000E+00 0. -1.
</event>
<event>
 7    1  0.2294216E-010  0.4778724E+02  0.7816164E-02  0.1312668E+00
        -11   -1    0    0    0    0  0.00000000000E+00  0.00000000000E+00  0.45593999997E+02  0.45594000000E+02  0.51100000000E-03 0.  1.
         11   -1    0    0    0    0 -0.00000000000E+00 -0.00000000000E+00 -0.45593999997E+02  0.45594000000E+02  0.51100000000E-03 0. -1.
    9900012    2    1    2    0    0 -0.23291842768E+02  0.36204153717E+02 -0.55113416165E+01  0.47787244565E+02  0.19999879270E+02 0.  0.
        -12    1    1    2    0    0  0.23291842768E+02 -0.36204153717E+02  0.55113416165E+01  0.43400755435E+02  0.00000000000E+00 0.  1.
         11    1    3    3    0    0 -0.23307252865E+01  0.39873265654E+01 -0.29095023106E+01  0.54585948244E+01  0.51100000000E-03 0. -1.
        -11    1    3    3    0    0  0.15492350083E+01  0.11514557261E+02  0.18010318715E+00  0.11619707202E+02  0.51100000000E-03 0.  1.
         12    1    3    3    0    0 -0.22510352490E+02  0.20702269890E+02 -0.27819424931E+01  0.30708942539E+02  0.00000000000E+00 0. -1.
</event>
<event>
 7    1  0.2294216E-010  0.4778727E+02  0.7816164E-02  0.1312668E+00
        -11   -1    0    0    0    0  0.00000000000E+00  0.00000000000E+00  0.45593999997E+02  0.45594000000E+02  0.51100000000E-03 0.  1.
         11   -1    0    0    0    0 -0.00000000000E+00 -0.00000000000E+00 -0.45593999997E+02  0.45594000000E+02  0.51100000000E-03 0. -1.
    9900012    2    1    2    0    0  0.41910484823E+02  0.83301149057E+01 -0.75989432178E+01  0.47787268549E+02  0.19999988624E+02 0.  0.
        -12    1    1    2    0    0 -0.41910484823E+02 -0.83301149057E+01  0.75989432178E+01  0.43400731451E+02  0.00000000000E+00 0.  1.
         11    1    3    3    0    0  0.11333740435E+02  0.80183011693E+00 -0.70720677484E+01  0.13383226303E+02  0.51100000000E-03 0. -1.
        -11    1    3    3    0    0  0.20551406316E+02  0.24837512242E+00 -0.51358011576E+01  0.21184863595E+02  0.51100000000E-03 0.  1.
         12    1    3    3    0    0  0.10025338072E+02  0.72799096664E+01  0.46089256882E+01  0.13219178651E+02  0.00000000000E+00 0. -1.
</event>
<event>
 7    1  0.2294216E-010  0.4778727E+02  0.7816164E-02  0.1312668E+00
        -11   -1    0    0    0    0  0.00000000000E+00  0.00000000000E+00  0.45593999997E+02  0.45594000000E+02  0.51100000000E-03 0.  1.
         11   -1    0    0    0    0 -0.00000000000E+00 -0.00000000000E+00 -0.45593999997E+02  0.45594000000E+02  0.51100000000E-03 0. -1.
    9900012    2    1    2    0    0  0.55644394927E+01  0.21831831566E+02 -0.37094896411E+02  0.47787271940E+02  0.20000004084E+02 0.  0.
        -12    1    1    2    0    0 -0.55644394927E+01 -0.21831831566E+02  0.37094896411E+02  0.43400728060E+02  0.00000000000E+00 0.  1.
         11    1    3    3    0    0  0.45113757882E+01  0.14664551627E+02 -0.24759925606E+02  0.29128259512E+02  0.51100000000E-03 0. -1.
        -11    1    3    3    0    0  0.57621166466E+01  0.38850222340E+01 -0.10577024155E+02  0.12655782324E+02  0.51100000000E-03 0.  1.
         12    1    3    3    0    0 -0.47090529421E+01  0.32822577048E+01 -0.17579466497E+01  0.60032301035E+01  0.00000000000E+00 0. -1.
</event>
<event>
 7    1  0.2294216E-010  0.4778727E+02  0.7816164E-02  0.1312668E+00
        -11   -1    0    0    0    0  0.00000000000E+00  0.00000000000E+00  0.45593999997E+02  0.45594000000E+02  0.51100000000E-03 0.  1.
         11   -1    0    0    0    0 -0.00000000000E+00 -0.00000000000E+00 -0.45593999997E+02  0.45594000000E+02  0.51100000000E-03 0. -1.
    9900012    2    1    2    0    0  0.96552534898E+01 -0.30700184202E+02 -0.29118686767E+02  0.47787272483E+02  0.20000006558E+02 0.  0.
        -12    1    1    2    0    0 -0.96552534898E+01  0.30700184202E+02  0.29118686767E+02  0.43400727517E+02  0.00000000000E+00 0.  1.
         11    1    3    3    0    0  0.11851087475E+01 -0.21900268760E+01 -0.18354731578E+01  0.30934870995E+01  0.51100000000E-03 0. -1.
        -11    1    3    3    0    0  0.10610739118E+02 -0.28697971192E+02 -0.18729206248E+02  0.35874008726E+02  0.51100000000E-03 0.  1.
         12    1    3    3    0    0 -0.21405943755E+01  0.18781386653E+00 -0.85540073619E+01  0.88197766568E+01  0.00000000000E+00 0. -1.
</event>
<event>
 7    1  0.2294216E-010  0.4778727E+02  0.7816164E-02  0.1312668E+00
        -11   -1    0    0    0    0  0.00000000000E+00  0.00000000000E+00  0.45593999997E+02  0.45594000000E+02  0.51100000000E-03 0. -1.
         11   -1    0    0    0    0 -0.00000000000E+00 -0.00000000000E+00 -0.45593999997E+02  0.45594000000E+02  0.51100000000E-03 0.  1.
    9900012    2    1    2    0    0 -0.54787947180E+01  0.24727120307E+02  0.35244512144E+02  0.47787270668E+02  0.19999998286E+02 0.  0.
        -12    1    1    2    0    0  0.54787947180E+01 -0.24727120307E+02 -0.35244512144E+02  0.43400729332E+02  0.00000000000E+00 0.  1.
         11    1    3    3    0    0 -0.12143585332E+01  0.41189893998E+01  0.42343996743E+01  0.60308275706E+01  0.51100000000E-03 0. -1.
        -11    1    3    3    0    0  0.44075384215E+01  0.16683350360E+02  0.13823689552E+02  0.22110064841E+02  0.51100000000E-03 0.  1.
        -12    1    3    3    0    0 -0.86719746063E+01  0.39247805472E+01  0.17186422917E+02  0.19646378257E+02  0.00000000000E+00 0.  1.
</event>
<event>
 7    1  0.2294216E-010  0.4778727E+02  0.7816164E-02  0.1312668E+00
        -11   -1    0    0    0    0  0.00000000000E+00  0.00000000000E+00  0.45593999997E+02  0.45594000000E+02  0.51100000000E-03 0.  1.
         11   -1    0    0    0    0 -0.00000000000E+00 -0.00000000000E+00 -0.45593999997E+02  0.45594000000E+02  0.51100000000E-03 0. -1.
    9900012    2    1    2    0    0 -0.20038255018E+02  0.14077382457E+02 -0.35831814573E+02  0.47787270783E+02  0.19999998808E+02 0.  0.
        -12    1    1    2    0    0  0.20038255018E+02 -0.14077382457E+02  0.35831814573E+02  0.43400729217E+02  0.00000000000E+00 0.  1.
         11    1    3    3    0    0 -0.87679459507E+01  0.14008766096E+02 -0.18938748062E+02  0.25135603875E+02  0.51100000000E-03 0. -1.
        -11    1    3    3    0    0 -0.90346166990E+01  0.36366401775E+01 -0.72874810308E+01  0.12163750684E+02  0.51100000000E-03 0.  1.
        -12    1    3    3    0    0 -0.22356923681E+01 -0.35680238159E+01 -0.96055854795E+01  0.10487916224E+02  0.00000000000E+00 0.  1.
</event>
<event>
 7    1  0.2294216E-010  0.4778727E+02  0.7816164E-02  0.1312668E+00
        -11   -1    0    0    0    0  0.00000000000E+00  0.00000000000E+00  0.45593999997E+02  0.45594000000E+02  0.51100000000E-03 0.  1.
         11   -1    0    0    0    0 -0.00000000000E+00 -0.00000000000E+00 -0.45593999997E+02  0.45594000000E+02  0.51100000000E-03 0. -1.
    9900012    2    1    2    0    0  0.21200040951E+02 -0.28378224789E+02 -0.25077034596E+02  0.47787273709E+02  0.20000012148E+02 0.  0.
        -12    1    1    2    0    0 -0.21200040951E+02  0.28378224789E+02  0.25077034596E+02  0.43400726291E+02  0.00000000000E+00 0.  1.
         11    1    3    3    0    0  0.14075194745E+02 -0.23690647918E+02 -0.19778319529E+02  0.33919608334E+02  0.51100000000E-03 0. -1.
        -11    1    3    3    0    0  0.84199893776E+01 -0.62398262433E+01 -0.55008121559E+01  0.11835986959E+02  0.51100000000E-03 0.  1.
        -12    1    3    3    0    0 -0.12951431721E+01  0.15522493727E+01  0.20209708858E+00  0.20316784156E+01  0.00000000000E+00 0.  1.
</event>
<event>
 7    1  0.2294216E-010  0.4778727E+02  0.7816164E-02  0.1312668E+00
        -11   -1    0    0    0    0  0.00000000000E+00  0.00000000000E+00  0.45593999997E+02  0.45594000000E+02  0.51100000000E-03 0.  1.
         11   -1    0    0    0    0 -0.00000000000E+00 -0.00000000000E+00 -0.45593999997E+02  0.45594000000E+02  0.51100000000E-03 0. -1.
    9900012    2    1    2    0    0 -0.30303890225E+02 -0.12656113348E+02 -0.28374648047E+02  0.47787267061E+02  0.19999981839E+02 0.  0.
        -12    1    1    2    0    0  0.30303890225E+02  0.12656113348E+02  0.28374648047E+02  0.43400732939E+02  0.00000000000E+00 0.  1.
         11    1    3    3    0    0 -0.95611927104E+01  0.69019862941E+00 -0.91621916995E+00  0.96297579421E+01  0.51100000000E-03 0. -1.
        -11    1    3    3    0    0  0.57245364977E+00 -0.25018202915E+01 -0.23038892926E+01  0.34488714220E+01  0.51100000000E-03 0.  1.
        -12    1    3    3    0    0 -0.21315151164E+02 -0.10844491686E+02 -0.25154539585E+02  0.34708637697E+02  0.00000000000E+00 0.  1.
</event>
<event>
 7    1  0.2294216E-010  0.4778727E+02  0.7816164E-02  0.1312668E+00
        -11   -1    0    0    0    0  0.00000000000E+00  0.00000000000E+00  0.45593999997E+02  0.45594000000E+02  0.51100000000E-03 0.  1.
         11   -1    0    0    0    0 -0.00000000000E+00 -0.00000000000E+00 -0.45593999997E+02  0.45594000000E+02  0.51100000000E-03 0. -1.
    9900012    2    1    2    0    0 -0.40739033284E+01  0.24077026854E+01 -0.43141971525E+02  0.47787269273E+02  0.19999991923E+02 0.  0.
        -12    1    1    2    0    0  0.40739033284E+01 -0.24077026854E+01  0.43141971525E+02  0.43400730727E+02  0.00000000000E+00 0.  1.
         11    1    3    3    0    0 -0.48315303756E+01  0.75895797551E+00 -0.23903010426E+02  0.24398229663E+02  0.51100000000E-03 0. -1.
        -11    1    3    3    0    0 -0.24237549045E+01 -0.50920238375E+01 -0.62893876723E+01  0.84474666115E+01  0.51100000000E-03 0.  1.
        -12    1    3    3    0    0  0.31813819517E+01  0.67407685474E+01 -0.12949573427E+02  0.14941572999E+02  0.00000000000E+00 0.  1.
</event>
<event>
 7    1  0.2294216E-010  0.4778727E+02  0.7816164E-02  0.1312668E+00
        -11   -1    0    0    0    0  0.00000000000E+00  0.00000000000E+00  0.45593999997E+02  0.45594000000E+02  0.51100000000E-03 0. -1.
         11   -1    0    0    0    0 -0.00000000000E+00 -0.00000000000E+00 -0.45593999997E+02  0.45594000000E+02  0.51100000000E-03 0.  1.
    9900012    2    1    2    0    0  0.29202455811E+02  0.61575365052E+00 -0.32100791535E+02  0.47787269647E+02  0.19999993631E+02 0.  0.
        -12    1    1    2    0    0 -0.29202455811E+02 -0.61575365052E+00  0.32100791535E+02  0.43400730353E+02  0.00000000000E+00 0.  1.
         11    1    3    3    0    0 -0.12464328161E+01  0.18850656450E+01  0.21424484561E+00  0.22700150586E+01  0.51100000000E-03 0. -1.
        -11    1    3    3    0    0  0.35185762064E+01 -0.31489508041E+00 -0.97489783217E+01  0.10369287150E+02  0.51100000000E-03 0.  1.
         12    1    3    3    0    0  0.26930312421E+02 -0.95441691410E+00 -0.22566058059E+02  0.35147967438E+02  0.00000000000E+00 0. -1.
</event>
<event>
 7    1  0.2294216E-010  0.4778727E+02  0.7816164E-02  0.1312668E+00
        -11   -1    0    0    0    0  0.00000000000E+00  0.00000000000E+00  0.45593999997E+02  0.45594000000E+02  0.51100000000E-03 0.  1.
         11   -1    0    0    0    0 -0.00000000000E+00 -0.00000000000E+00 -0.45593999997E+02  0.45594000000E+02  0.51100000000E-03 0. -1.
    9900012    2    1    2    0    0 -0.27706893417E+02 -0.30375027807E+02  0.13903579038E+02  0.47787265361E+02  0.19999974086E+02 0.  0.
        -12    1    1    2    0    0  0.27706893417E+02  0.30375027807E+02 -0.13903579038E+02  0.43400734639E+02  0.00000000000E+00 0.  1.
         11    1    3    3    0    0 -0.17975575067E+02 -0.21032510411E+02 -0.57148083620E-01  0.27667509092E+02  0.51100000000E-03 0. -1.
        -11    1    3    3    0    0 -0.59291195699E+01 -0.53487908863E+01  0.44908712096E+01  0.91614380586E+01  0.51100000000E-03 0.  1.
         12    1    3    3    0    0 -0.38021987802E+01 -0.39937265106E+01  0.94698559123E+01  0.10958318211E+02  0.00000000000E+00 0. -1.
</event>
<event>
 7    1  0.2294216E-010  0.4778730E+02  0.7816164E-02  0.1312668E+00
        -11   -1    0    0    0    0  0.00000000000E+00  0.00000000000E+00  0.45593999997E+02  0.45594000000E+02  0.51100000000E-03 0.  1.
         11   -1    0    0    0    0 -0.00000000000E+00 -0.00000000000E+00 -0.45593999997E+02  0.45594000000E+02  0.51100000000E-03 0. -1.
    9900012    2    1    2    0    0 -0.12108702706E+02  0.17171133783E+02 -0.37975683383E+02  0.47787296722E+02  0.20000117072E+02 0.  0.
        -12    1    1    2    0    0  0.12108702706E+02 -0.17171133783E+02  0.37975683383E+02  0.43400703278E+02  0.00000000000E+00 0.  1.
         11    1    3    3    0    0 -0.43458622727E+01  0.40362220425E+01 -0.18934571089E+02  0.19841763779E+02  0.51100000000E-03 0. -1.
        -11    1    3    3    0    0 -0.86363773819E+01  0.14746570302E+01 -0.80870717399E+01  0.11923185700E+02  0.51100000000E-03 0.  1.
        -12    1    3    3    0    0  0.87353694847E+00  0.11660254711E+02 -0.10954040554E+02  0.16022347243E+02  0.00000000000E+00 0.  1.
</event>
<event>
 7    1  0.2294216E-010  0.4778727E+02  0.7816164E-02  0.1312668E+00
        -11   -1    0    0    0    0  0.00000000000E+00  0.00000000000E+00  0.45593999997E+02  0.45594000000E+02  0.51100000000E-03 0. -1.
         11   -1    0    0    0    0 -0.00000000000E+00 -0.00000000000E+00 -0.45593999997E+02  0.45594000000E+02  0.51100000000E-03 0.  1.
    9900012    2    1    2    0    0 -0.26487716234E+02  0.25933406351E+02 -0.22571723978E+02  0.47787269597E+02  0.19999993398E+02 0.  0.
        -12    1    1    2    0    0  0.26487716234E+02 -0.25933406351E+02  0.22571723978E+02  0.43400730403E+02  0.00000000000E+00 0.  1.
         11    1    3    3    0    0 -0.61446433831E+01  0.79432660635E+01 -0.78538967366E+01  0.12748953379E+02  0.51100000000E-03 0. -1.
        -11    1    3    3    0    0 -0.50264806254E+01  0.14804187281E+02 -0.10507879652E+02  0.18837330054E+02  0.51100000000E-03 0.  1.
         12    1    3    3    0    0 -0.15316592225E+02  0.31859530058E+01 -0.42099475898E+01  0.16200986163E+02  0.00000000000E+00 0. -1.
</event>
<event>
 7    1  0.2294216E-010  0.4778727E+02  0.7816164E-02  0.1312668E+00
        -11   -1    0    0    0    0  0.00000000000E+00  0.00000000000E+00  0.45593999997E+02  0.45594000000E+02  0.51100000000E-03 0. -1.
         11   -1    0    0    0    0 -0.00000000000E+00 -0.00000000000E+00 -0.45593999997E+02  0.45594000000E+02  0.51100000000E-03 0.  1.
    9900012    2    1    2    0    0 -0.12261029179E+00  0.35726525607E+02  0.24641902352E+02  0.47787274007E+02  0.20000013506E+02 0.  0.
        -12    1    1    2    0    0  0.12261029179E+00 -0.35726525607E+02 -0.24641902352E+02  0.43400725993E+02  0.00000000000E+00 0.  1.
         11    1    3    3    0    0 -0.59473929022E+01  0.93344468024E+01  0.91169930040E+01  0.14339558610E+02  0.51100000000E-03 0. -1.
        -11    1    3    3    0    0  0.25857842164E+01  0.76080231235E+00  0.47381273504E+01  0.54511421942E+01  0.51100000000E-03 0.  1.
        -12    1    3    3    0    0  0.32389983940E+01  0.25631276492E+02  0.10786781998E+02  0.27996573202E+02  0.00000000000E+00 0.  1.
</event>
<event>
 7    1  0.2294216E-010  0.4778727E+02  0.7816164E-02  0.1312668E+00
        -11   -1    0    0    0    0  0.00000000000E+00  0.00000000000E+00  0.45593999997E+02  0.45594000000E+02  0.51100000000E-03 0.  1.
         11   -1    0    0    0    0 -0.00000000000E+00 -0.00000000000E+00 -0.45593999997E+02  0.45594000000E+02  0.51100000000E-03 0. -1.
    9900012    2    1    2    0    0 -0.12707616380E+02 -0.15884231774E+01 -0.41468264672E+02  0.47787267551E+02  0.19999984071E+02 0.  0.
        -12    1    1    2    0    0  0.12707616380E+02  0.15884231774E+01  0.41468264672E+02  0.43400732449E+02  0.00000000000E+00 0.  1.
         11    1    3    3    0    0 -0.89956249340E+01  0.37110582854E+00 -0.27764307289E+02  0.29187595773E+02  0.51100000000E-03 0. -1.
        -11    1    3    3    0    0 -0.42237713187E+01 -0.63426325915E+01 -0.11136943716E+02  0.13494471014E+02  0.51100000000E-03 0.  1.
        -12    1    3    3    0    0  0.51177987265E+00  0.43831035856E+01 -0.25670136659E+01  0.51052007640E+01  0.00000000000E+00 0.  1.
</event>
<event>
 7    1  0.2294216E-010  0.4778728E+02  0.7816164E-02  0.1312668E+00
        -11   -1    0    0    0    0  0.00000000000E+00  0.00000000000E+00  0.45593999997E+02  0.45594000000E+02  0.51100000000E-03 0. -1.
         11   -1    0    0    0    0 -0.00000000000E+00 -0.00000000000E+00 -0.45593999997E+02  0.45594000000E+02  0.51100000000E-03 0.  1.
    9900012    2    1    2    0    0 -0.42774882636E+02  0.36543759685E+01  0.63700150271E+01  0.47787284110E+02  0.20000059573E+02 0.  0.
        -12    1    1    2    0    0  0.42774882636E+02 -0.36543759685E+01 -0.63700150271E+01  0.43400715890E+02  0.00000000000E+00 0.  1.
         11    1    3    3    0    0 -0.14658721919E+02 -0.37457476682E+01  0.49304405327E+01  0.15912824954E+02  0.51100000000E-03 0. -1.
        -11    1    3    3    0    0 -0.25426767074E+01 -0.32428819503E+01 -0.20469330721E+00  0.41259408373E+01  0.51100000000E-03 0.  1.
         12    1    3    3    0    0 -0.25573484010E+02  0.10643005587E+02  0.16442678016E+01  0.27748518319E+02  0.00000000000E+00 0. -1.
</event>
<event>
 7    1  0.2294216E-010  0.4778726E+02  0.7816164E-02  0.1312668E+00
        -11   -1    0    0    0    0  0.00000000000E+00  0.00000000000E+00  0.45593999997E+02  0.45594000000E+02  0.51100000000E-03 0. -1.
         11   -1    0    0    0    0 -0.00000000000E+00 -0.00000000000E+00 -0.45593999997E+02  0.45594000000E+02  0.51100000000E-03 0.  1.
    9900012    2    1    2    0    0 -0.69326623703E+01 -0.41944401083E+02 -0.87309363504E+01  0.47787264531E+02  0.19999970301E+02 0.  0.
        -12    1    1    2    0    0  0.69326623703E+01  0.41944401083E+02  0.87309363504E+01  0.43400735469E+02  0.00000000000E+00 0.  1.
         11    1    3    3    0    0 -0.23866971780E+01 -0.13793515604E+02  0.16646154390E+01  0.14097103992E+02  0.51100000000E-03 0.  1.
        -11    1    3    3    0    0 -0.61170021274E+01 -0.11647370555E+02  0.15637528633E+01  0.13248557626E+02  0.51100000000E-03 0. -1.
         12    1    3    3    0    0  0.15710369351E+01 -0.16503514923E+02 -0.11959304653E+02  0.20441602913E+02  0.00000000000E+00 0. -1.
</event>
<event>
 7    1  0.2294216E-010  0.4778727E+02  0.7816164E-02  0.1312668E+00
        -11   -1    0    0    0    0  0.00000000000E+00  0.00000000000E+00  0.45593999997E+02  0.45594000000E+02  0.51100000000E-03 0. -1.
         11   -1    0    0    0    0 -0.00000000000E+00 -0.00000000000E+00 -0.45593999997E+02  0.45594000000E+02  0.51100000000E-03 0.  1.
    9900012    2    1    2    0    0  0.17100390222E+02  0.25045451253E+02  0.31047148068E+02  0.47787269852E+02  0.19999994562E+02 0.  0.
        -12    1    1    2    0    0 -0.17100390222E+02 -0.25045451253E+02 -0.31047148068E+02  0.43400730148E+02  0.00000000000E+00 0.  1.
         11    1    3    3    0    0  0.29119764353E+01  0.88654083244E+01  0.16751565577E+02  0.19175245007E+02  0.51100000000E-03 0. -1.
        -11    1    3    3    0    0 -0.34927849705E+00  0.15748922891E+01  0.63079560502E+01  0.65109592983E+01  0.51100000000E-03 0.  1.
        -12    1    3    3    0    0  0.14537692284E+02  0.14605150640E+02  0.79876264410E+01  0.22101065547E+02  0.00000000000E+00 0.  1.
</event>
<event>
 7    1  0.2294216E-010  0.4778724E+02  0.7816164E-02  0.1312668E+00
        -11   -1    0    0    0    0  0.00000000000E+00  0.00000000000E+00  0.45593999997E+02  0.45594000000E+02  0.51100000000E-03 0.  1.
         11   -1    0    0    0    0 -0.00000000000E+00 -0.00000000000E+00 -0.45593999997E+02  0.45594000000E+02  0.51100000000E-03 0. -1.
    9900012    2    1    2    0    0 -0.15379703854E+02  0.18070206162E+02 -0.36339491349E+02  0.47787236495E+02  0.19999842473E+02 0.  0.
        -12    1    1    2    0    0  0.15379703854E+02 -0.18070206162E+02  0.36339491349E+02  0.43400763505E+02  0.00000000000E+00 0.  1.
         11    1    3    3    0    0 -0.74032634736E+01  0.28591149154E+01 -0.96752055478E+01  0.12513690535E+02  0.51100000000E-03 0. -1.
        -11    1    3    3    0    0 -0.10043772541E+02  0.27075051186E+01 -0.11362103789E+02  0.15404718550E+02  0.51100000000E-03 0.  1.
         12    1    3    3    0    0  0.20673321604E+01  0.12503586128E+02 -0.15302182011E+02  0.19868827410E+02  0.00000000000E+00 0. -1.
</event>
<event>
 7    1  0.2294216E-010  0.4778727E+02  0.7816164E-02  0.1312668E+00
        -11   -1    0    0    0    0  0.00000000000E+00  0.00000000000E+00  0.45593999997E+02  0.45594000000E+02  0.51100000000E-03 0.  1.
         11   -1    0    0    0    0 -0.00000000000E+00 -0.00000000000E+00 -0.45593999997E+02  0.45594000000E+02  0.51100000000E-03 0. -1.
    9900012    2    1    2    0    0  0.39512568659E+02  0.22650426705E+01 -0.17811511936E+02  0.47787268926E+02  0.19999990340E+02 0.  0.
        -12    1    1    2    0    0 -0.39512568659E+02 -0.22650426705E+01  0.17811511936E+02  0.43400731074E+02  0.00000000000E+00 0.  1.
         11    1    3    3    0    0  0.11673492117E+02  0.88886086335E+00 -0.51577084682E+01  0.12793062524E+02  0.51100000000E-03 0. -1.
        -11    1    3    3    0    0  0.21577933837E+02  0.39632028356E+01 -0.15584592194E+01  0.21994158334E+02  0.51100000000E-03 0.  1.
         12    1    3    3    0    0  0.62611427039E+01 -0.25870210284E+01 -0.11095344249E+02  0.13000048068E+02  0.00000000000E+00 0. -1.
</event>
<event>
 7    1  0.2294216E-010  0.4778727E+02  0.7816164E-02  0.1312668E+00
        -11   -1    0    0    0    0  0.00000000000E+00  0.00000000000E+00  0.45593999997E+02  0.45594000000E+02  0.51100000000E-03 0.  1.
         11   -1    0    0    0    0 -0.00000000000E+00 -0.00000000000E+00 -0.45593999997E+02  0.45594000000E+02  0.51100000000E-03 0. -1.
    9900012    2    1    2    0    0 -0.22265703931E+02 -0.26084300484E+02 -0.26598324612E+02  0.47787272178E+02  0.20000005169E+02 0.  0.
        -12    1    1    2    0    0  0.22265703931E+02  0.26084300484E+02  0.26598324612E+02  0.43400727822E+02  0.00000000000E+00 0.  1.
         11    1    3    3    0    0 -0.19635140841E+01 -0.54495900789E+01 -0.98011464184E+01  0.11384897495E+02  0.51100000000E-03 0. -1.
        -11    1    3    3    0    0  0.20754437349E+01 -0.52894604632E+00 -0.54613780022E+00  0.22103206498E+01  0.51100000000E-03 0.  1.
        -12    1    3    3    0    0 -0.22377633582E+02 -0.20105764359E+02 -0.16251040393E+02  0.34192054034E+02  0.00000000000E+00 0.  1.
</event>
<event>
 7    1  0.2294216E-010  0.4778727E+02  0.7816164E-02  0.1312668E+00
        -11   -1    0    0    0    0  0.00000000000E+00  0.00000000000E+00  0.45593999997E+02  0.45594000000E+02  0.51100000000E-03 0.  1.
         11   -1    0    0    0    0 -0.00000000000E+00 -0.00000000000E+00 -0.45593999997E+02  0.45594000000E+02  0.51100000000E-03 0. -1.
    9900012    2    1    2    0    0 -0.16617986869E+02  0.36348194269E+02 -0.16919660234E+02  0.47787267096E+02  0.19999981998E+02 0.  0.
        -12    1    1    2    0    0  0.16617986869E+02 -0.36348194269E+02  0.16919660234E+02  0.43400732904E+02  0.00000000000E+00 0.  1.
         11    1    3    3    0    0 -0.91652232599E+01  0.94717433673E+01 -0.52114673142E+01  0.14173024788E+02  0.51100000000E-03 0. -1.
        -11    1    3    3    0    0 -0.62619147970E+01  0.13313432619E+02 -0.13392602558E+02  0.19895247387E+02  0.51100000000E-03 0.  1.
        -12    1    3    3    0    0 -0.11908488118E+01  0.13563018282E+02  0.16844096385E+01  0.13718994921E+02  0.00000000000E+00 0.  1.
</event>
<event>
 7    1  0.2294216E-010  0.4778726E+02  0.7816164E-02  0.1312668E+00
        -11   -1    0    0    0    0  0.00000000000E+00  0.00000000000E+00  0.45593999997E+02  0.45594000000E+02  0.51100000000E-03 0.  1.
         11   -1    0    0    0    0 -0.00000000000E+00 -0.00000000000E+00 -0.45593999997E+02  0.45594000000E+02  0.51100000000E-03 0. -1.
    9900012    2    1    2    0    0  0.16887425944E+02  0.65444566339E+00 -0.39975122505E+02  0.47787264137E+02  0.19999968508E+02 0.  0.
        -12    1    1    2    0    0 -0.16887425944E+02 -0.65444566339E+00  0.39975122505E+02  0.43400735863E+02  0.00000000000E+00 0.  1.
         11    1    3    3    0    0  0.82449230407E+01  0.29776543828E+01 -0.11597060884E+02  0.14537434539E+02  0.51100000000E-03 0. -1.
        -11    1    3    3    0    0  0.10776757496E+02 -0.52160050228E+01 -0.13962760347E+02  0.18393039099E+02  0.51100000000E-03 0.  1.
        -12    1    3    3    0    0 -0.21342545932E+01  0.28927963034E+01 -0.14415301274E+02  0.14856790500E+02  0.00000000000E+00 0.  1.
</event>
<event>
 7    1  0.2294216E-010  0.4778727E+02  0.7816164E-02  0.1312668E+00
        -11   -1    0    0    0    0  0.00000000000E+00  0.00000000000E+00  0.45593999997E+02  0.45594000000E+02  0.51100000000E-03 0.  1.
         11   -1    0    0    0    0 -0.00000000000E+00 -0.00000000000E+00 -0.45593999997E+02  0.45594000000E+02  0.51100000000E-03 0. -1.
    9900012    2    1    2    0    0  0.33152634838E+01  0.88914979375E+01 -0.42350605702E+02  0.47787268314E+02  0.19999987552E+02 0.  0.
        -12    1    1    2    0    0 -0.33152634838E+01 -0.88914979375E+01  0.42350605702E+02  0.43400731686E+02  0.00000000000E+00 0.  1.
         11    1    3    3    0    0 -0.27560785407E+01 -0.12108560220E+01 -0.23454713006E+01  0.38161993019E+01  0.51100000000E-03 0. -1.
        -11    1    3    3    0    0  0.32312754251E+00 -0.33610935818E+01 -0.10575762497E+02  0.11101716720E+02  0.51100000000E-03 0.  1.
        -12    1    3    3    0    0  0.57482144820E+01  0.13463447541E+02 -0.29429371904E+02  0.32869352292E+02  0.00000000000E+00 0.  1.
</event>
<event>
 7    1  0.2294216E-010  0.4778727E+02  0.7816164E-02  0.1312668E+00
        -11   -1    0    0    0    0  0.00000000000E+00  0.00000000000E+00  0.45593999997E+02  0.45594000000E+02  0.51100000000E-03 0.  1.
         11   -1    0    0    0    0 -0.00000000000E+00 -0.00000000000E+00 -0.45593999997E+02  0.45594000000E+02  0.51100000000E-03 0. -1.
    9900012    2    1    2    0    0  0.18773947902E+02  0.41548380372E+01 -0.38908862873E+02  0.47787269488E+02  0.19999992902E+02 0.  0.
        -12    1    1    2    0    0 -0.18773947902E+02 -0.41548380372E+01  0.38908862873E+02  0.43400730512E+02  0.00000000000E+00 0.  1.
         11    1    3    3    0    0  0.37101464726E+01 -0.11170040606E+01 -0.11525431027E+02  0.12159294615E+02  0.51100000000E-03 0. -1.
        -11    1    3    3    0    0  0.16464361190E+02  0.42902736712E+01 -0.13716949051E+02  0.21854892566E+02  0.51100000000E-03 0.  1.
        -12    1    3    3    0    0 -0.14005597603E+01  0.98156842660E+00 -0.13666482795E+02  0.13773082306E+02  0.00000000000E+00 0.  1.
</event>
<event>
 7    1  0.2294216E-010  0.4778727E+02  0.7816164E-02  0.1312668E+00
        -11   -1    0    0    0    0  0.00000000000E+00  0.00000000000E+00  0.45593999997E+02  0.45594000000E+02  0.51100000000E-03 0.  1.
         11   -1    0    0    0    0 -0.00000000000E+00 -0.00000000000E+00 -0.45593999997E+02  0.45594000000E+02  0.51100000000E-03 0. -1.
    9900012    2    1    2    0    0 -0.41994620518E+02 -0.97828785989E+01 -0.49366431407E+01  0.47787270609E+02  0.19999998015E+02 0.  0.
        -12    1    1    2    0    0  0.41994620518E+02  0.97828785989E+01  0.49366431407E+01  0.43400729391E+02  0.00000000000E+00 0.  1.
         11    1    3    3    0    0 -0.33595438865E+01 -0.32626473444E+01  0.19558322601E+01  0.50751042265E+01  0.51100000000E-03 0. -1.
        -11    1    3    3    0    0 -0.37424746698E+01  0.19388103227E+01 -0.53025703028E+01  0.67736514672E+01  0.51100000000E-03 0.  1.
         12    1    3    3    0    0 -0.34892601962E+02 -0.84590415772E+01 -0.15899050980E+01  0.35938514915E+02  0.00000000000E+00 0. -1.
</event>
<event>
 7    1  0.2294216E-010  0.4778726E+02  0.7816164E-02  0.1312668E+00
        -11   -1    0    0    0    0  0.00000000000E+00  0.00000000000E+00  0.45593999997E+02  0.45594000000E+02  0.51100000000E-03 0.  1.
         11   -1    0    0    0    0 -0.00000000000E+00 -0.00000000000E+00 -0.45593999997E+02  0.45594000000E+02  0.51100000000E-03 0. -1.
    9900012    2    1    2    0    0 -0.16094789114E+02 -0.23679918411E+02 -0.32616607690E+02  0.47787264180E+02  0.19999968701E+02 0.  0.
        -12    1    1    2    0    0  0.16094789114E+02  0.23679918411E+02  0.32616607690E+02  0.43400735820E+02  0.00000000000E+00 0.  1.
         11    1    3    3    0    0 -0.56674814406E+01 -0.11354540140E+02 -0.20956529470E+02  0.24499429694E+02  0.51100000000E-03 0.  1.
        -11    1    3    3    0    0 -0.75291008981E+01 -0.11833845970E+01 -0.83572527187E+01  0.11310677818E+02  0.51100000000E-03 0. -1.
        -12    1    3    3    0    0 -0.28982067757E+01 -0.11141993674E+02 -0.33028255013E+01  0.11977156668E+02  0.00000000000E+00 0.  1.
</event>
<event>
 7    1  0.2294216E-010  0.4778727E+02  0.7816164E-02  0.1312668E+00
        -11   -1    0    0    0    0  0.00000000000E+00  0.00000000000E+00  0.45593999997E+02  0.45594000000E+02  0.51100000000E-03 0.  1.
         11   -1    0    0    0    0 -0.00000000000E+00 -0.00000000000E+00 -0.45593999997E+02  0.45594000000E+02  0.51100000000E-03 0. -1.
    9900012    2    1    2    0    0 -0.63671039813E+01  0.42804991790E+02  0.32887641899E+01  0.47787270684E+02  0.19999998357E+02 0.  0.
        -12    1    1    2    0    0  0.63671039813E+01 -0.42804991790E+02 -0.32887641899E+01  0.43400729316E+02  0.00000000000E+00 0.  1.
         11    1    3    3    0    0 -0.89378224247E+00  0.12867769395E+02 -0.35113461883E+01  0.13368166973E+02  0.51100000000E-03 0. -1.
        -11    1    3    3    0    0  0.94192711107E+00 -0.11802135108E+01  0.16428918248E+01  0.22314175815E+01  0.51100000000E-03 0.  1.
         12    1    3    3    0    0 -0.64152488499E+01  0.31117435906E+02  0.51572185535E+01  0.32187686130E+02  0.00000000000E+00 0. -1.
</event>
<event>
 7    1  0.2294216E-010  0.4778727E+02  0.7816164E-02  0.1312668E+00
        -11   -1    0    0    0    0  0.00000000000E+00  0.00000000000E+00  0.45593999997E+02  0.45594000000E+02  0.51100000000E-03 0.  1.
         11   -1    0    0    0    0 -0.00000000000E+00 -0.00000000000E+00 -0.45593999997E+02  0.45594000000E+02  0.51100000000E-03 0. -1.
    9900012    2    1    2    0    0 -0.15609578680E+02  0.22252493923E+02 -0.33834758392E+02  0.47787270653E+02  0.19999998217E+02 0.  0.
        -12    1    1    2    0    0  0.15609578680E+02 -0.22252493923E+02  0.33834758392E+02  0.43400729347E+02  0.00000000000E+00 0.  1.
         11    1    3    3    0    0 -0.15383295651E+02  0.10431154168E+02 -0.17776235575E+02  0.25718656921E+02  0.51100000000E-03 0. -1.
        -11    1    3    3    0    0 -0.11535775146E+01 -0.89282213865E+00 -0.49477016883E+01  0.51582579143E+01  0.51100000000E-03 0.  1.
        -12    1    3    3    0    0  0.92729448556E+00  0.12714161894E+02 -0.11110821129E+02  0.16910355818E+02  0.00000000000E+00 0.  1.
</event>
<event>
 7    1  0.2294216E-010  0.4778727E+02  0.7816164E-02  0.1312668E+00
        -11   -1    0    0    0    0  0.00000000000E+00  0.00000000000E+00  0.45593999997E+02  0.45594000000E+02  0.51100000000E-03 0.  1.
         11   -1    0    0    0    0 -0.00000000000E+00 -0.00000000000E+00 -0.45593999997E+02  0.45594000000E+02  0.51100000000E-03 0. -1.
    9900012    2    1    2    0    0 -0.26279228340E+01  0.29203703661E+02 -0.31997829053E+02  0.47787270166E+02  0.19999995997E+02 0.  0.
        -12    1    1    2    0    0  0.26279228340E+01 -0.29203703661E+02  0.31997829053E+02  0.43400729834E+02  0.00000000000E+00 0.  1.
         11    1    3    3    0    0  0.15907744355E+01  0.33231294430E+01  0.24616458158E+00  0.36924720529E+01  0.51100000000E-03 0. -1.
        -11    1    3    3    0    0 -0.14785647579E+01  0.25633368551E+02 -0.23072397128E+02  0.34519432882E+02  0.51100000000E-03 0.  1.
         12    1    3    3    0    0 -0.27401325116E+01  0.24720566732E+00 -0.91715965074E+01  0.95753652316E+01  0.00000000000E+00 0. -1.
</event>
<event>
 7    1  0.2294216E-010  0.4778727E+02  0.7816164E-02  0.1312668E+00
        -11   -1    0    0    0    0  0.00000000000E+00  0.00000000000E+00  0.45593999997E+02  0.45594000000E+02  0.51100000000E-03 0. -1.
         11   -1    0    0    0    0 -0.00000000000E+00 -0.00000000000E+00 -0.45593999997E+02  0.45594000000E+02  0.51100000000E-03 0.  1.
    9900012    2    1    2    0    0 -0.37793931682E+02  0.16163702027E+02  0.13927554264E+02  0.47787270709E+02  0.19999998472E+02 0.  0.
        -12    1    1    2    0    0  0.37793931682E+02 -0.16163702027E+02 -0.13927554264E+02  0.43400729291E+02  0.00000000000E+00 0.  1.
         11    1    3    3    0    0  0.33853871503E+00  0.51743155750E+00 -0.26182756962E+01  0.26902995671E+01  0.51100000000E-03 0. -1.
        -11    1    3    3    0    0 -0.12528745670E+02  0.58130776255E+01  0.17172484246E+01  0.13917984120E+02  0.51100000000E-03 0.  1.
         12    1    3    3    0    0 -0.25603724726E+02  0.98331928441E+01  0.14828581536E+02  0.31178987022E+02  0.00000000000E+00 0. -1.
</event>
<event>
 7    1  0.2294216E-010  0.4778727E+02  0.7816164E-02  0.1312668E+00
        -11   -1    0    0    0    0  0.00000000000E+00  0.00000000000E+00  0.45593999997E+02  0.45594000000E+02  0.51100000000E-03 0. -1.
         11   -1    0    0    0    0 -0.00000000000E+00 -0.00000000000E+00 -0.45593999997E+02  0.45594000000E+02  0.51100000000E-03 0.  1.
    9900012    2    1    2    0    0 -0.37563066572E+02  0.21536935273E+02 -0.29664053330E+01  0.47787272911E+02  0.20000008510E+02 0.  0.
        -12    1    1    2    0    0  0.37563066572E+02 -0.21536935273E+02  0.29664053330E+01  0.43400727089E+02  0.00000000000E+00 0.  1.
         11    1    3    3    0    0 -0.23515636227E+02  0.15197671529E+02 -0.40883989362E+00  0.28002169869E+02  0.51100000000E-03 0. -1.
        -11    1    3    3    0    0 -0.97447136302E+01  0.79664178309E+01  0.26229125710E+01  0.12857018605E+02  0.51100000000E-03 0.  1.
        -12    1    3    3    0    0 -0.43027167153E+01 -0.16271540865E+01 -0.51804780104E+01  0.69280844373E+01  0.00000000000E+00 0.  1.
</event>
<event>
 7    1  0.2294216E-010  0.4778726E+02  0.7816164E-02  0.1312668E+00
        -11   -1    0    0    0    0  0.00000000000E+00  0.00000000000E+00  0.45593999997E+02  0.45594000000E+02  0.51100000000E-03 0.  1.
         11   -1    0    0    0    0 -0.00000000000E+00 -0.00000000000E+00 -0.45593999997E+02  0.45594000000E+02  0.51100000000E-03 0. -1.
    9900012    2    1    2    0    0  0.69362853566E+01  0.42559525039E+02 -0.49192098231E+01  0.47787264391E+02  0.19999969665E+02 0.  0.
        -12    1    1    2    0    0 -0.69362853566E+01 -0.42559525039E+02  0.49192098231E+01  0.43400735609E+02  0.00000000000E+00 0.  1.
         11    1    3    3    0    0 -0.47771709674E+00  0.72823558867E+01 -0.23310364751E+00  0.73017298263E+01  0.51100000000E-03 0. -1.
        -11    1    3    3    0    0  0.82803666135E+01  0.85394539103E+01 -0.67107768640E+01  0.13657279038E+02  0.51100000000E-03 0.  1.
        -12    1    3    3    0    0 -0.86636416020E+00  0.26737715242E+02  0.20246706885E+01  0.26828255527E+02  0.00000000000E+00 0.  1.
</event>
<event>
 7    1  0.2294216E-010  0.4778727E+02  0.7816164E-02  0.1312668E+00
        -11   -1    0    0    0    0  0.00000000000E+00  0.00000000000E+00  0.45593999997E+02  0.45594000000E+02  0.51100000000E-03 0.  1.
         11   -1    0    0    0    0 -0.00000000000E+00 -0.00000000000E+00 -0.45593999997E+02  0.45594000000E+02  0.51100000000E-03 0. -1.
    9900012    2    1    2    0    0 -0.78398837115E+01 -0.24744439759E+02 -0.34783215625E+02  0.47787272301E+02  0.20000005730E+02 0.  0.
        -12    1    1    2    0    0  0.78398837115E+01  0.24744439759E+02  0.34783215625E+02  0.43400727699E+02  0.00000000000E+00 0.  1.
         11    1    3    3    0    0 -0.41551741205E+01 -0.76549919404E+01 -0.18512970399E+02  0.20459580808E+02  0.51100000000E-03 0. -1.
        -11    1    3    3    0    0  0.42309710342E+01 -0.56787433152E+01 -0.18751525877E+01  0.73256698684E+01  0.51100000000E-03 0.  1.
         12    1    3    3    0    0 -0.79156806253E+01 -0.11410704503E+02 -0.14395092639E+02  0.20002021625E+02  0.00000000000E+00 0. -1.
</event>
<event>
 7    1  0.2294216E-010  0.4778727E+02  0.7816164E-02  0.1312668E+00
        -11   -1    0    0    0    0  0.00000000000E+00  0.00000000000E+00  0.45593999997E+02  0.45594000000E+02  0.51100000000E-03 0. -1.
         11   -1    0    0    0    0 -0.00000000000E+00 -0.00000000000E+00 -0.45593999997E+02  0.45594000000E+02  0.51100000000E-03 0.  1.
    9900012    2    1    2    0    0 -0.66508079324E+01 -0.38318050566E+02 -0.19264392334E+02  0.47787273539E+02  0.20000011373E+02 0.  0.
        -12    1    1    2    0    0  0.66508079324E+01  0.38318050566E+02  0.19264392334E+02  0.43400726461E+02  0.00000000000E+00 0.  1.
         11    1    3    3    0    0  0.12529515550E+01 -0.67551044397E+00 -0.30533892481E+01  0.33688852935E+01  0.51100000000E-03 0. -1.
        -11    1    3    3    0    0  0.31361684757E+00 -0.25384962011E+02 -0.15282846479E+02  0.29632078034E+02  0.51100000000E-03 0.  1.
        -12    1    3    3    0    0 -0.82173763350E+01 -0.12257578111E+02 -0.92815660644E+00  0.14786310211E+02  0.00000000000E+00 0.  1.
</event>
<event>
 7    1  0.2294216E-010  0.4778728E+02  0.7816164E-02  0.1312668E+00
        -11   -1    0    0    0    0  0.00000000000E+00  0.00000000000E+00  0.45593999997E+02  0.45594000000E+02  0.51100000000E-03 0.  1.
         11   -1    0    0    0    0 -0.00000000000E+00 -0.00000000000E+00 -0.45593999997E+02  0.45594000000E+02  0.51100000000E-03 0. -1.
    9900012    2    1    2    0    0  0.14812990003E+02 -0.25118857780E+02 -0.32144069631E+02  0.47787275335E+02  0.20000019562E+02 0.  0.
        -12    1    1    2    0    0 -0.14812990003E+02  0.25118857780E+02  0.32144069631E+02  0.43400724665E+02  0.00000000000E+00 0.  1.
         11    1    3    3    0    0  0.16876790929E+02 -0.23429668433E+02 -0.21958972015E+02  0.36276326814E+02  0.51100000000E-03 0. -1.
        -11    1    3    3    0    0 -0.14652795281E+01 -0.29499408666E+01 -0.40560231690E+01  0.52249898967E+01  0.51100000000E-03 0.  1.
        -12    1    3    3    0    0 -0.59852139705E+00  0.12607515189E+01 -0.61290744461E+01  0.62859586239E+01  0.00000000000E+00 0.  1.
</event>
<event>
 7    1  0.2294216E-010  0.4778727E+02  0.7816164E-02  0.1312668E+00
        -11   -1    0    0    0    0  0.00000000000E+00  0.00000000000E+00  0.45593999997E+02  0.45594000000E+02  0.51100000000E-03 0.  1.
         11   -1    0    0    0    0 -0.00000000000E+00 -0.00000000000E+00 -0.45593999997E+02  0.45594000000E+02  0.51100000000E-03 0. -1.
    9900012    2    1    2    0    0  0.21743036314E+02  0.37358402516E+02  0.39004285873E+01  0.47787271782E+02  0.20000003362E+02 0.  0.
        -12    1    1    2    0    0 -0.21743036314E+02 -0.37358402516E+02 -0.39004285873E+01  0.43400728218E+02  0.00000000000E+00 0.  1.
         11    1    3    3    0    0  0.85806851334E+01  0.12052177356E+02 -0.23526700106E+01  0.14980593874E+02  0.51100000000E-03 0. -1.
        -11    1    3    3    0    0  0.68529339746E+01  0.33981764692E+01 -0.29804194500E+01  0.82093366196E+01  0.51100000000E-03 0.  1.
         12    1    3    3    0    0  0.63094172064E+01  0.21908048690E+02  0.92335180479E+01  0.24597341288E+02  0.00000000000E+00 0. -1.
</event>
<event>
 7    1  0.2294216E-010  0.4778727E+02  0.7816164E-02  0.1312668E+00
        -11   -1    0    0    0    0  0.00000000000E+00  0.00000000000E+00  0.45593999997E+02  0.45594000000E+02  0.51100000000E-03 0.  1.
         11   -1    0    0    0    0 -0.00000000000E+00 -0.00000000000E+00 -0.45593999997E+02  0.45594000000E+02  0.51100000000E-03 0. -1.
    9900012    2    1    2    0    0  0.12070207472E+02  0.11732810180E+02 -0.40003429187E+02  0.47787273164E+02  0.20000009666E+02 0.  0.
        -12    1    1    2    0    0 -0.12070207472E+02 -0.11732810180E+02  0.40003429187E+02  0.43400726836E+02  0.00000000000E+00 0.  1.
         11    1    3    3    0    0  0.12784820621E+02  0.63144820225E+01 -0.20900647924E+02  0.25301411135E+02  0.51100000000E-03 0. -1.
        -11    1    3    3    0    0  0.21690591702E+01 -0.21227117520E+01 -0.21827832591E+01  0.37383506903E+01  0.51100000000E-03 0.  1.
        -12    1    3    3    0    0 -0.28836723190E+01  0.75410399092E+01 -0.16919998004E+02  0.18747511339E+02  0.00000000000E+00 0.  1.
</event>
<event>
 7    1  0.2294216E-010  0.4778729E+02  0.7816164E-02  0.1312668E+00
        -11   -1    0    0    0    0  0.00000000000E+00  0.00000000000E+00  0.45593999997E+02  0.45594000000E+02  0.51100000000E-03 0. -1.
         11   -1    0    0    0    0 -0.00000000000E+00 -0.00000000000E+00 -0.45593999997E+02  0.45594000000E+02  0.51100000000E-03 0.  1.
    9900012    2    1    2    0    0  0.28177430809E+01 -0.24171668449E+02  0.35936232039E+02  0.47787285664E+02  0.20000066658E+02 0.  0.
        -12    1    1    2    0    0 -0.28177430809E+01  0.24171668449E+02 -0.35936232039E+02  0.43400714336E+02  0.00000000000E+00 0.  1.
         11    1    3    3    0    0  0.13755807536E+00 -0.37004894227E+01  0.10227643610E+02  0.10877372765E+02  0.51100000000E-03 0. -1.
        -11    1    3    3    0    0 -0.85537849591E+00 -0.21190192719E+02  0.16040269173E+02  0.26590339885E+02  0.51100000000E-03 0.  1.
        -12    1    3    3    0    0  0.35355635015E+01  0.71901369184E+00  0.96683192557E+01  0.10319573014E+02  0.00000000000E+00 0.  1.
</event>
<event>
 7    1  0.2294216E-010  0.4778727E+02  0.7816164E-02  0.1312668E+00
        -11   -1    0    0    0    0  0.00000000000E+00  0.00000000000E+00  0.45593999997E+02  0.45594000000E+02  0.51100000000E-03 0. -1.
         11   -1    0    0    0    0 -0.00000000000E+00 -0.00000000000E+00 -0.45593999997E+02  0.45594000000E+02  0.51100000000E-03 0.  1.
    9900012    2    1    2    0    0 -0.41912383626E+02 -0.72399367788E+01 -0.86347328094E+01  0.47787271936E+02  0.20000004065E+02 0.  0.
        -12    1    1    2    0    0  0.41912383626E+02  0.72399367788E+01  0.86347328094E+01  0.43400728064E+02  0.00000000000E+00 0.  1.
         11    1    3    3    0    0 -0.63317826080E+01  0.30325078457E+01 -0.22501329862E+00  0.70241160351E+01  0.51100000000E-03 0. -1.
        -11    1    3    3    0    0 -0.11183737783E+02  0.15267296603E+01 -0.76810544586E+01  0.13653039665E+02  0.51100000000E-03 0.  1.
        -12    1    3    3    0    0 -0.24396863236E+02 -0.11799174285E+02 -0.72866505216E+00  0.27110116236E+02  0.00000000000E+00 0.  1.
</event>
<event>
 7    1  0.2294216E-010  0.4778728E+02  0.7816164E-02  0.1312668E+00
        -11   -1    0    0    0    0  0.00000000000E+00  0.00000000000E+00  0.45593999997E+02  0.45594000000E+02  0.51100000000E-03 0. -1.
         11   -1    0    0    0    0 -0.00000000000E+00 -0.00000000000E+00 -0.45593999997E+02  0.45594000000E+02  0.51100000000E-03 0.  1.
    9900012    2    1    2    0    0  0.32058743335E+02  0.17732474106E+02  0.23268404203E+02  0.47787282307E+02  0.20000051349E+02 0.  0.
        -12    1    1    2    0    0 -0.32058743335E+02 -0.17732474106E+02 -0.23268404203E+02  0.43400717693E+02  0.00000000000E+00 0.  1.
         11    1    3    3    0    0  0.14948696068E+02  0.34834209269E+01  0.10857667720E+02  0.18801241557E+02  0.51100000000E-03 0. -1.
        -11    1    3    3    0    0  0.15111952063E+02  0.14868514350E+02  0.14766222847E+02  0.25835734004E+02  0.51100000000E-03 0.  1.
        -12    1    3    3    0    0  0.19980952039E+01 -0.61946117095E+00 -0.23554863631E+01  0.31503067459E+01  0.00000000000E+00 0.  1.
</event>
<event>
 7    1  0.2294216E-010  0.4778727E+02  0.7816164E-02  0.1312668E+00
        -11   -1    0    0    0    0  0.00000000000E+00  0.00000000000E+00  0.45593999997E+02  0.45594000000E+02  0.51100000000E-03 0.  1.
         11   -1    0    0    0    0 -0.00000000000E+00 -0.00000000000E+00 -0.45593999997E+02  0.45594000000E+02  0.51100000000E-03 0. -1.
    9900012    2    1    2    0    0 -0.66627534801E+01 -0.23686758382E+02 -0.35751480882E+02  0.47787271989E+02  0.20000004307E+02 0.  0.
        -12    1    1    2    0    0  0.66627534801E+01  0.23686758382E+02  0.35751480882E+02  0.43400728011E+02  0.00000000000E+00 0.  1.
         11    1    3    3    0    0  0.11606628563E+01 -0.13660285848E+02 -0.25322738207E+02  0.28795687495E+02  0.51100000000E-03 0. -1.
        -11    1    3    3    0    0  0.14967774685E+01 -0.91025462609E+00 -0.41838145483E+01  0.45357701342E+01  0.51100000000E-03 0.  1.
         12    1    3    3    0    0 -0.93201938049E+01 -0.91162179081E+01 -0.62449281268E+01  0.14455814360E+02  0.00000000000E+00 0. -1.
</event>
<event>
 7    1  0.2294216E-010  0.4778727E+02  0.7816164E-02  0.1312668E+00
        -11   -1    0    0    0    0  0.00000000000E+00  0.00000000000E+00  0.45593999997E+02  0.45594000000E+02  0.51100000000E-03 0.  1.
         11   -1    0    0    0    0 -0.00000000000E+00 -0.00000000000E+00 -0.45593999997E+02  0.45594000000E+02  0.51100000000E-03 0. -1.
    9900012    2    1    2    0    0  0.19447616794E+02  0.38336686637E+02 -0.59759621219E+01  0.47787268848E+02  0.19999989985E+02 0.  0.
        -12    1    1    2    0    0 -0.19447616794E+02 -0.38336686637E+02  0.59759621219E+01  0.43400731152E+02  0.00000000000E+00 0.  1.
         11    1    3    3    0    0  0.32017920120E+01  0.21301351775E+01 -0.84310862900E+00  0.39369760456E+01  0.51100000000E-03 0. -1.
        -11    1    3    3    0    0  0.14298053178E+01 -0.17060335276E+01  0.13927427035E+01  0.26257620120E+01  0.51100000000E-03 0.  1.
        -12    1    3    3    0    0  0.14816019464E+02  0.37912584987E+02 -0.65255961964E+01  0.41224530790E+02  0.00000000000E+00 0.  1.
</event>
<event>
 7    1  0.2294216E-010  0.4778728E+02  0.7816164E-02  0.1312668E+00
        -11   -1    0    0    0    0  0.00000000000E+00  0.00000000000E+00  0.45593999997E+02  0.45594000000E+02  0.51100000000E-03 0. -1.
         11   -1    0    0    0    0 -0.00000000000E+00 -0.00000000000E+00 -0.45593999997E+02  0.45594000000E+02  0.51100000000E-03 0.  1.
    9900012    2    1    2    0    0 -0.37953831900E+02  0.34711150017E+01  0.20762484162E+02  0.47787277151E+02  0.20000027840E+02 0.  0.
        -12    1    1    2    0    0  0.37953831900E+02 -0.34711150017E+01 -0.20762484162E+02  0.43400722849E+02  0.00000000000E+00 0.  1.
         11    1    3    3    0    0 -0.14301616367E+02  0.10247366596E+01  0.11361668138E+02  0.18294092463E+02  0.51100000000E-03 0. -1.
        -11    1    3    3    0    0 -0.35661450784E+01  0.44029543685E+01  0.72446437348E+01  0.91971876678E+01  0.51100000000E-03 0.  1.
        -12    1    3    3    0    0 -0.20086070455E+02 -0.19565760264E+01  0.21561722899E+01  0.20295997020E+02  0.00000000000E+00 0.  1.
</event>
<event>
 7    1  0.2294216E-010  0.4778727E+02  0.7816164E-02  0.1312668E+00
        -11   -1    0    0    0    0  0.00000000000E+00  0.00000000000E+00  0.45593999997E+02  0.45594000000E+02  0.51100000000E-03 0.  1.
         11   -1    0    0    0    0 -0.00000000000E+00 -0.00000000000E+00 -0.45593999997E+02  0.45594000000E+02  0.51100000000E-03 0. -1.
    9900012    2    1    2    0    0  0.11027217508E+02 -0.14237249364E+02 -0.39488283740E+02  0.47787270188E+02  0.19999996097E+02 0.  0.
        -12    1    1    2    0    0 -0.11027217508E+02  0.14237249364E+02  0.39488283740E+02  0.43400729812E+02  0.00000000000E+00 0.  1.
         11    1    3    3    0    0  0.35880047989E+01 -0.78025306392E+00 -0.16681826117E+01  0.40330393958E+01  0.51100000000E-03 0. -1.
        -11    1    3    3    0    0  0.15460679129E+01 -0.14615482199E+02 -0.19136214295E+02  0.24128765897E+02  0.51100000000E-03 0.  1.
        -12    1    3    3    0    0  0.58931447965E+01  0.11584858987E+01 -0.18683886833E+02  0.19625464896E+02  0.00000000000E+00 0.  1.
</event>
<event>
 7    1  0.2294216E-010  0.4778727E+02  0.7816164E-02  0.1312668E+00
        -11   -1    0    0    0    0  0.00000000000E+00  0.00000000000E+00  0.45593999997E+02  0.45594000000E+02  0.51100000000E-03 0.  1.
         11   -1    0    0    0    0 -0.00000000000E+00 -0.00000000000E+00 -0.45593999997E+02  0.45594000000E+02  0.51100000000E-03 0. -1.
    9900012    2    1    2    0    0  0.32770335369E+02 -0.99837447211E+01 -0.26646830017E+02  0.47787267416E+02  0.19999983458E+02 0.  0.
        -12    1    1    2    0    0 -0.32770335369E+02  0.99837447211E+01  0.26646830017E+02  0.43400732584E+02  0.00000000000E+00 0.  1.
         11    1    3    3    0    0  0.74374378813E+01 -0.22984182985E+00 -0.12132433602E+02  0.14232506978E+02  0.51100000000E-03 0.  1.
        -11    1    3    3    0    0  0.94090601780E+01 -0.28105232633E+01 -0.12750536071E+02  0.16093651693E+02  0.51100000000E-03 0. -1.
        -12    1    3    3    0    0  0.15923837310E+02 -0.69433796279E+01 -0.17638603440E+01  0.17461108746E+02  0.00000000000E+00 0.  1.
</event>
<event>
 7    1  0.2294216E-010  0.4778727E+02  0.7816164E-02  0.1312668E+00
        -11   -1    0    0    0    0  0.00000000000E+00  0.00000000000E+00  0.45593999997E+02  0.45594000000E+02  0.51100000000E-03 0. -1.
         11   -1    0    0    0    0 -0.00000000000E+00 -0.00000000000E+00 -0.45593999997E+02  0.45594000000E+02  0.51100000000E-03 0.  1.
    9900012    2    1    2    0    0  0.11115974385E+02 -0.11339217394E+02  0.40391585900E+02  0.47787274785E+02  0.20000017057E+02 0.  0.
        -12    1    1    2    0    0 -0.11115974385E+02  0.11339217394E+02 -0.40391585900E+02  0.43400725215E+02  0.00000000000E+00 0.  1.
         11    1    3    3    0    0  0.52391430370E+01 -0.10137408777E+02  0.11949284665E+02  0.16522744347E+02  0.51100000000E-03 0. -1.
        -11    1    3    3    0    0  0.38262595941E+01 -0.56609409382E+00  0.28825413550E+02  0.29083761648E+02  0.51100000000E-03 0.  1.
        -12    1    3    3    0    0  0.20505717535E+01 -0.63571452316E+00 -0.38311231554E+00  0.21807687905E+01  0.00000000000E+00 0.  1.
</event>
<event>
 7    1  0.2294216E-010  0.4778727E+02  0.7816164E-02  0.1312668E+00
        -11   -1    0    0    0    0  0.00000000000E+00  0.00000000000E+00  0.45593999997E+02  0.45594000000E+02  0.51100000000E-03 0.  1.
         11   -1    0    0    0    0 -0.00000000000E+00 -0.00000000000E+00 -0.45593999997E+02  0.45594000000E+02  0.51100000000E-03 0. -1.
    9900012    2    1    2    0    0  0.17238303867E+02  0.27193377054E+02 -0.29103000468E+02  0.47787268300E+02  0.19999987489E+02 0.  0.
        -12    1    1    2    0    0 -0.17238303867E+02 -0.27193377054E+02  0.29103000468E+02  0.43400731700E+02  0.00000000000E+00 0.  1.
         11    1    3    3    0    0  0.15766713137E+02  0.17345449812E+02 -0.14086885615E+02  0.27347654724E+02  0.51100000000E-03 0. -1.
        -11    1    3    3    0    0  0.14359297131E+01  0.55869827669E+01 -0.10828113071E+01  0.58693058504E+01  0.51100000000E-03 0.  1.
        -12    1    3    3    0    0  0.35661017292E-01  0.42609444754E+01 -0.13933303546E+02  0.14570307726E+02  0.00000000000E+00 0.  1.
</event>
<event>
 7    1  0.2294216E-010  0.4778727E+02  0.7816164E-02  0.1312668E+00
        -11   -1    0    0    0    0  0.00000000000E+00  0.00000000000E+00  0.45593999997E+02  0.45594000000E+02  0.51100000000E-03 0.  1.
         11   -1    0    0    0    0 -0.00000000000E+00 -0.00000000000E+00 -0.45593999997E+02  0.45594000000E+02  0.51100000000E-03 0. -1.
    9900012    2    1    2    0    0 -0.34002891967E+02 -0.26172182688E+02 -0.65148595865E+01  0.47787271847E+02  0.20000003661E+02 0.  0.
        -12    1    1    2    0    0  0.34002891967E+02  0.26172182688E+02  0.65148595865E+01  0.43400728153E+02  0.00000000000E+00 0.  1.
         11    1    3    3    0    0 -0.17983103160E+01 -0.67851213607E+01 -0.11240422450E+01  0.71088158720E+01  0.51100000000E-03 0. -1.
        -11    1    3    3    0    0 -0.49977077042E+01 -0.34855488977E+01  0.45834656688E+01  0.76245846584E+01  0.51100000000E-03 0.  1.
         12    1    3    3    0    0 -0.27206873946E+02 -0.15901512429E+02 -0.99742830103E+01  0.33053871317E+02  0.00000000000E+00 0. -1.
</event>
<event>
 7    1  0.2294216E-010  0.4778729E+02  0.7816164E-02  0.1312668E+00
        -11   -1    0    0    0    0  0.00000000000E+00  0.00000000000E+00  0.45593999997E+02  0.45594000000E+02  0.51100000000E-03 0.  1.
         11   -1    0    0    0    0 -0.00000000000E+00 -0.00000000000E+00 -0.45593999997E+02  0.45594000000E+02  0.51100000000E-03 0. -1.
    9900012    2    1    2    0    0 -0.18153067202E+02  0.30502037682E+02 -0.24974248282E+02  0.47787294605E+02  0.20000107420E+02 0.  0.
        -12    1    1    2    0    0  0.18153067202E+02 -0.30502037682E+02  0.24974248282E+02  0.43400705395E+02  0.00000000000E+00 0.  1.
         11    1    3    3    0    0 -0.11075188815E+02  0.10870502936E+02 -0.77968593960E+01  0.17367171850E+02  0.51100000000E-03 0. -1.
        -11    1    3    3    0    0 -0.46216853578E+01 -0.54727272492E+00 -0.20716339689E+01  0.50942271783E+01  0.51100000000E-03 0.  1.
         12    1    3    3    0    0 -0.24561930291E+01  0.20178807471E+02 -0.15105754917E+02  0.25325895577E+02  0.00000000000E+00 0. -1.
</event>
<event>
 7    1  0.2294216E-010  0.4778727E+02  0.7816164E-02  0.1312668E+00
        -11   -1    0    0    0    0  0.00000000000E+00  0.00000000000E+00  0.45593999997E+02  0.45594000000E+02  0.51100000000E-03 0.  1.
         11   -1    0    0    0    0 -0.00000000000E+00 -0.00000000000E+00 -0.45593999997E+02  0.45594000000E+02  0.51100000000E-03 0. -1.
    9900012    2    1    2    0    0  0.33519823397E+01  0.18019444378E+02 -0.39340657410E+02  0.47787268592E+02  0.19999988817E+02 0.  0.
        -12    1    1    2    0    0 -0.33519823397E+01 -0.18019444378E+02  0.39340657410E+02  0.43400731408E+02  0.00000000000E+00 0.  1.
         11    1    3    3    0    0  0.34178915694E+01  0.13348425917E+02 -0.19525594298E+02  0.23897934852E+02  0.51100000000E-03 0. -1.
        -11    1    3    3    0    0  0.25458188215E+01  0.72131070567E+01 -0.18492658777E+02  0.20012209667E+02  0.51100000000E-03 0.  1.
        -12    1    3    3    0    0 -0.26117280512E+01 -0.25420885958E+01 -0.13224043358E+01  0.38771240720E+01  0.00000000000E+00 0.  1.
</event>
<event>
 7    1  0.2294216E-010  0.4778727E+02  0.7816164E-02  0.1312668E+00
        -11   -1    0    0    0    0  0.00000000000E+00  0.00000000000E+00  0.45593999997E+02  0.45594000000E+02  0.51100000000E-03 0.  1.
         11   -1    0    0    0    0 -0.00000000000E+00 -0.00000000000E+00 -0.45593999997E+02  0.45594000000E+02  0.51100000000E-03 0. -1.
    9900012    2    1    2    0    0  0.20837938442E+02 -0.11221443437E+01 -0.38054491927E+02  0.47787271408E+02  0.20000001660E+02 0.  0.
        -12    1    1    2    0    0 -0.20837938442E+02  0.11221443437E+01  0.38054491927E+02  0.43400728592E+02  0.00000000000E+00 0.  1.
         11    1    3    3    0    0  0.56679282193E+01 -0.54444189573E+00 -0.71787003669E+00  0.57390909496E+01  0.51100000000E-03 0. -1.
        -11    1    3    3    0    0 -0.16533749104E+01  0.16591207577E+01 -0.52792542851E+01  0.57755394857E+01  0.51100000000E-03 0.  1.
         12    1    3    3    0    0  0.16823385133E+02 -0.22368232056E+01 -0.32057367606E+02  0.36272640973E+02  0.00000000000E+00 0. -1.
</event>
<event>
 7    1  0.2294216E-010  0.4778728E+02  0.7816164E-02  0.1312668E+00
        -11   -1    0    0    0    0  0.00000000000E+00  0.00000000000E+00  0.45593999997E+02  0.45594000000E+02  0.51100000000E-03 0. -1.
         11   -1    0    0    0    0 -0.00000000000E+00 -0.00000000000E+00 -0.45593999997E+02  0.45594000000E+02  0.51100000000E-03 0.  1.
    9900012    2    1    2    0    0 -0.23984227042E+02 -0.17980208235E+02  0.31386172447E+02  0.47787275860E+02  0.20000021956E+02 0.  0.
        -12    1    1    2    0    0  0.23984227042E+02  0.17980208235E+02 -0.31386172447E+02  0.43400724140E+02  0.00000000000E+00 0.  1.
         11    1    3    3    0    0 -0.57763280629E+01 -0.79011057189E+01  0.40321337247E+01  0.10585440005E+02  0.51100000000E-03 0. -1.
        -11    1    3    3    0    0 -0.94840410443E+01 -0.17534885136E+01  0.31262247114E+01  0.10138788769E+02  0.51100000000E-03 0.  1.
         12    1    3    3    0    0 -0.87238579348E+01 -0.83256140030E+01  0.24227814011E+02  0.27063047086E+02  0.00000000000E+00 0. -1.
</event>
<event>
 7    1  0.2294216E-010  0.4778727E+02  0.7816164E-02  0.1312668E+00
        -11   -1    0    0    0    0  0.00000000000E+00  0.00000000000E+00  0.45593999997E+02  0.45594000000E+02  0.51100000000E-03 0.  1.
         11   -1    0    0    0    0 -0.00000000000E+00 -0.00000000000E+00 -0.45593999997E+02  0.45594000000E+02  0.51100000000E-03 0. -1.
    9900012    2    1    2    0    0  0.36057185930E+02  0.24003784163E+02 -0.27057460064E+01  0.47787269905E+02  0.19999994807E+02 0.  0.
        -12    1    1    2    0    0 -0.36057185930E+02 -0.24003784163E+02  0.27057460064E+01  0.43400730095E+02  0.00000000000E+00 0.  1.
         11    1    3    3    0    0  0.91154962319E+01  0.41670535168E+01  0.60365870161E+01  0.11700298698E+02  0.51100000000E-03 0. -1.
        -11    1    3    3    0    0  0.83498778780E+01  0.12046117976E+01 -0.40209512446E+01  0.93455657578E+01  0.51100000000E-03 0.  1.
         12    1    3    3    0    0  0.18591811820E+02  0.18632118848E+02 -0.47213817778E+01  0.26741405449E+02  0.00000000000E+00 0. -1.
</event>
<event>
 7    1  0.2294216E-010  0.4778726E+02  0.7816164E-02  0.1312668E+00
        -11   -1    0    0    0    0  0.00000000000E+00  0.00000000000E+00  0.45593999997E+02  0.45594000000E+02  0.51100000000E-03 0. -1.
         11   -1    0    0    0    0 -0.00000000000E+00 -0.00000000000E+00 -0.45593999997E+02  0.45594000000E+02  0.51100000000E-03 0.  1.
    9900012    2    1    2    0    0 -0.37769383223E+02  0.20806177382E+02  0.49194479648E+01  0.47787259285E+02  0.19999946383E+02 0.  0.
        -12    1    1    2    0    0  0.37769383223E+02 -0.20806177382E+02 -0.49194479648E+01  0.43400740715E+02  0.00000000000E+00 0.  1.
         11    1    3    3    0    0 -0.28687460405E+02  0.70284803465E+01  0.60282344486E+01  0.30144809359E+02  0.51100000000E-03 0. -1.
        -11    1    3    3    0    0 -0.49798437294E+01  0.37040363909E+01  0.16485278891E+01  0.64215553892E+01  0.51100000000E-03 0.  1.
        -12    1    3    3    0    0 -0.41020790888E+01  0.10073660645E+02 -0.27573143729E+01  0.11220894536E+02  0.00000000000E+00 0.  1.
</event>
<event>
 7    1  0.2294216E-010  0.4778727E+02  0.7816164E-02  0.1312668E+00
        -11   -1    0    0    0    0  0.00000000000E+00  0.00000000000E+00  0.45593999997E+02  0.45594000000E+02  0.51100000000E-03 0.  1.
         11   -1    0    0    0    0 -0.00000000000E+00 -0.00000000000E+00 -0.45593999997E+02  0.45594000000E+02  0.51100000000E-03 0. -1.
    9900012    2    1    2    0    0  0.22055038169E+02  0.14436349489E+02 -0.34478837481E+02  0.47787272711E+02  0.20000007597E+02 0.  0.
        -12    1    1    2    0    0 -0.22055038169E+02 -0.14436349489E+02  0.34478837481E+02  0.43400727289E+02  0.00000000000E+00 0.  1.
         11    1    3    3    0    0  0.12480293826E+02  0.14118063019E+02 -0.29253728969E+02  0.34797386342E+02  0.51100000000E-03 0. -1.
        -11    1    3    3    0    0  0.44915618536E+01  0.26802366680E+01 -0.52131130086E+01  0.73847372318E+01  0.51100000000E-03 0.  1.
        -12    1    3    3    0    0  0.50831824892E+01 -0.23619501976E+01 -0.11995503639E-01  0.56051491368E+01  0.00000000000E+00 0.  1.
</event>
<event>
 7    1  0.2294216E-010  0.4778727E+02  0.7816164E-02  0.1312668E+00
        -11   -1    0    0    0    0  0.00000000000E+00  0.00000000000E+00  0.45593999997E+02  0.45594000000E+02  0.51100000000E-03 0.  1.
         11   -1    0    0    0    0 -0.00000000000E+00 -0.00000000000E+00 -0.45593999997E+02  0.45594000000E+02  0.51100000000E-03 0. -1.
    9900012    2    1    2    0    0 -0.34593267482E+02 -0.25320119033E+02 -0.67691256634E+01  0.47787266766E+02  0.19999980494E+02 0.  0.
        -12    1    1    2    0    0  0.34593267482E+02  0.25320119033E+02  0.67691256634E+01  0.43400733234E+02  0.00000000000E+00 0.  1.
         11    1    3    3    0    0 -0.13828211546E+02 -0.32071591116E+01 -0.61862833746E+01  0.15484682960E+02  0.51100000000E-03 0. -1.
        -11    1    3    3    0    0 -0.94331154526E+00  0.10842590184E+01 -0.10609238284E+01  0.17863409309E+01  0.51100000000E-03 0.  1.
         12    1    3    3    0    0 -0.19821744392E+02 -0.23197218940E+02  0.47808153961E+00  0.30516242875E+02  0.00000000000E+00 0. -1.
</event>
<event>
 7    1  0.2294216E-010  0.4778726E+02  0.7816164E-02  0.1312668E+00
        -11   -1    0    0    0    0  0.00000000000E+00  0.00000000000E+00  0.45593999997E+02  0.45594000000E+02  0.51100000000E-03 0.  1.
         11   -1    0    0    0    0 -0.00000000000E+00 -0.00000000000E+00 -0.45593999997E+02  0.45594000000E+02  0.51100000000E-03 0. -1.
    9900012    2    1    2    0    0  0.32237221512E+02  0.26394277274E+02 -0.12154351080E+02  0.47787256069E+02  0.19999931721E+02 0.  0.
        -12    1    1    2    0    0 -0.32237221512E+02 -0.26394277274E+02  0.12154351080E+02  0.43400743931E+02  0.00000000000E+00 0.  1.
         11    1    3    3    0    0  0.18934659566E+02  0.12667908255E+02 -0.90465615890E-01  0.22781690384E+02  0.51100000000E-03 0. -1.
        -11    1    3    3    0    0  0.88452190187E-01  0.41411377107E+01  0.80379855353E+00  0.42193527590E+01  0.51100000000E-03 0.  1.
        -12    1    3    3    0    0  0.13214109755E+02  0.95852313083E+01 -0.12867684017E+02  0.20786212926E+02  0.00000000000E+00 0.  1.
</event>
<event>
 7    1  0.2294216E-010  0.4778727E+02  0.7816164E-02  0.1312668E+00
        -11   -1    0    0    0    0  0.00000000000E+00  0.00000000000E+00  0.45593999997E+02  0.45594000000E+02  0.51100000000E-03 0. -1.
         11   -1    0    0    0    0 -0.00000000000E+00 -0.00000000000E+00 -0.45593999997E+02  0.45594000000E+02  0.51100000000E-03 0.  1.
    9900012    2    1    2    0    0  0.36355184111E+02  0.22743212060E+02 -0.66835828301E+01  0.47787269753E+02  0.19999994110E+02 0.  0.
        -12    1    1    2    0    0 -0.36355184111E+02 -0.22743212060E+02  0.66835828301E+01  0.43400730247E+02  0.00000000000E+00 0.  1.
         11    1    3    3    0    0  0.67551325678E+01  0.46432162608E+01  0.24881224723E+01  0.85663310087E+01  0.51100000000E-03 0. -1.
        -11    1    3    3    0    0  0.11583760871E+02 -0.54014413169E+00 -0.61370423870E+01  0.13120158578E+02  0.51100000000E-03 0.  1.
         12    1    3    3    0    0  0.18016290672E+02  0.18640139931E+02 -0.30346629154E+01  0.26100780166E+02  0.00000000000E+00 0. -1.
</event>
<event>
 7    1  0.2294216E-010  0.4778727E+02  0.7816164E-02  0.1312668E+00
        -11   -1    0    0    0    0  0.00000000000E+00  0.00000000000E+00  0.45593999997E+02  0.45594000000E+02  0.51100000000E-03 0.  1.
         11   -1    0    0    0    0 -0.00000000000E+00 -0.00000000000E+00 -0.45593999997E+02  0.45594000000E+02  0.51100000000E-03 0. -1.
    9900012    2    1    2    0    0 -0.37412020444E+02  0.21178946748E+02 -0.59511655017E+01  0.47787269247E+02  0.19999991803E+02 0.  0.
        -12    1    1    2    0    0  0.37412020444E+02 -0.21178946748E+02  0.59511655017E+01  0.43400730753E+02  0.00000000000E+00 0.  1.
         11    1    3    3    0    0 -0.24501648251E+01  0.77397305459E+01 -0.40687759674E+01  0.90808410804E+01  0.51100000000E-03 0. -1.
        -11    1    3    3    0    0 -0.86905979575E+01  0.70363662842E+00 -0.36618996627E+01  0.94568021426E+01  0.51100000000E-03 0.  1.
         12    1    3    3    0    0 -0.26271257662E+02  0.12735579574E+02  0.17795101283E+01  0.29249626024E+02  0.00000000000E+00 0. -1.
</event>
<event>
 7    1  0.2294216E-010  0.4778726E+02  0.7816164E-02  0.1312668E+00
        -11   -1    0    0    0    0  0.00000000000E+00  0.00000000000E+00  0.45593999997E+02  0.45594000000E+02  0.51100000000E-03 0.  1.
         11   -1    0    0    0    0 -0.00000000000E+00 -0.00000000000E+00 -0.45593999997E+02  0.45594000000E+02  0.51100000000E-03 0. -1.
    9900012    2    1    2    0    0  0.35267329021E+01 -0.42379317493E+02 -0.86706174341E+01  0.47787262647E+02  0.19999961712E+02 0.  0.
        -12    1    1    2    0    0 -0.35267329021E+01  0.42379317493E+02  0.86706174341E+01  0.43400737353E+02  0.00000000000E+00 0.  1.
         11    1    3    3    0    0  0.15107742532E+01 -0.70747584540E+00  0.31568574379E+00  0.16978276314E+01  0.51100000000E-03 0. -1.
        -11    1    3    3    0    0  0.61598999596E+01 -0.41188690099E+01 -0.18983299007E+01  0.76493859954E+01  0.51100000000E-03 0.  1.
         12    1    3    3    0    0 -0.41439413107E+01 -0.37552972637E+02 -0.70879732771E+01  0.38440049020E+02  0.00000000000E+00 0. -1.
</event>
<event>
 7    1  0.2294216E-010  0.4778727E+02  0.7816164E-02  0.1312668E+00
        -11   -1    0    0    0    0  0.00000000000E+00  0.00000000000E+00  0.45593999997E+02  0.45594000000E+02  0.51100000000E-03 0. -1.
         11   -1    0    0    0    0 -0.00000000000E+00 -0.00000000000E+00 -0.45593999997E+02  0.45594000000E+02  0.51100000000E-03 0.  1.
    9900012    2    1    2    0    0  0.51129672783E+01  0.43098355832E+02 -0.11195133683E+00  0.47787271401E+02  0.20000001624E+02 0.  0.
        -12    1    1    2    0    0 -0.51129672783E+01 -0.43098355832E+02  0.11195133683E+00  0.43400728599E+02  0.00000000000E+00 0.  1.
         11    1    3    3    0    0  0.76723133175E+01  0.13862206788E+02 -0.25092287104E+00  0.15845760670E+02  0.51100000000E-03 0. -1.
        -11    1    3    3    0    0 -0.13062364909E+01  0.37057052443E+01  0.45400529095E+01  0.60042140044E+01  0.51100000000E-03 0.  1.
         12    1    3    3    0    0 -0.12531095483E+01  0.25530443800E+02 -0.44010813753E+01  0.25937296726E+02  0.00000000000E+00 0. -1.
</event>
<event>
 7    1  0.2294216E-010  0.4778727E+02  0.7816164E-02  0.1312668E+00
        -11   -1    0    0    0    0  0.00000000000E+00  0.00000000000E+00  0.45593999997E+02  0.45594000000E+02  0.51100000000E-03 0.  1.
         11   -1    0    0    0    0 -0.00000000000E+00 -0.00000000000E+00 -0.45593999997E+02  0.45594000000E+02  0.51100000000E-03 0. -1.
    9900012    2    1    2    0    0 -0.17867202782E+02 -0.39518776584E+02 -0.16286475341E+01  0.47787272694E+02  0.20000007520E+02 0.  0.
        -12    1    1    2    0    0  0.17867202782E+02  0.39518776584E+02  0.16286475341E+01  0.43400727306E+02  0.00000000000E+00 0.  1.
         11    1    3    3    0    0 -0.12928886728E+02 -0.12474157221E+02 -0.26150760750E+01  0.18154870793E+02  0.51100000000E-03 0. -1.
        -11    1    3    3    0    0  0.19533916941E+01 -0.12873326230E+01  0.18076164603E+01  0.29564238399E+01  0.51100000000E-03 0.  1.
        -12    1    3    3    0    0 -0.68917077485E+01 -0.25757286740E+02 -0.82118791944E+00  0.26675978060E+02  0.00000000000E+00 0.  1.
</event>
<event>
 7    1  0.2294216E-010  0.4778727E+02  0.7816164E-02  0.1312668E+00
        -11   -1    0    0    0    0  0.00000000000E+00  0.00000000000E+00  0.45593999997E+02  0.45594000000E+02  0.51100000000E-03 0.  1.
         11   -1    0    0    0    0 -0.00000000000E+00 -0.00000000000E+00 -0.45593999997E+02  0.45594000000E+02  0.51100000000E-03 0. -1.
    9900012    2    1    2    0    0 -0.21079390862E+02  0.37907735977E+02  0.15120720401E+01  0.47787268118E+02  0.19999986658E+02 0.  0.
        -12    1    1    2    0    0  0.21079390862E+02 -0.37907735977E+02 -0.15120720401E+01  0.43400731882E+02  0.00000000000E+00 0.  1.
         11    1    3    3    0    0 -0.14204855281E+02  0.26269070438E+02 -0.35701013314E+01  0.30076362795E+02  0.51100000000E-03 0. -1.
        -11    1    3    3    0    0  0.39188937239E+00  0.87728909032E+01  0.83883188551E+00  0.88216116029E+01  0.51100000000E-03 0.  1.
        -12    1    3    3    0    0 -0.72664249540E+01  0.28657746359E+01  0.42433414860E+01  0.88892937201E+01  0.00000000000E+00 0.  1.
</event>
<event>
 7    1  0.2294216E-010  0.4778723E+02  0.7816164E-02  0.1312668E+00
        -11   -1    0    0    0    0  0.00000000000E+00  0.00000000000E+00  0.45593999997E+02  0.45594000000E+02  0.51100000000E-03 0.  1.
         11   -1    0    0    0    0 -0.00000000000E+00 -0.00000000000E+00 -0.45593999997E+02  0.45594000000E+02  0.51100000000E-03 0. -1.
    9900012    2    1    2    0    0  0.16714570859E+02 -0.36562943906E+02 -0.16352393274E+02  0.47787233742E+02  0.19999829920E+02 0.  0.
        -12    1    1    2    0    0 -0.16714570859E+02  0.36562943906E+02  0.16352393274E+02  0.43400766258E+02  0.00000000000E+00 0.  1.
         11    1    3    3    0    0  0.86111943378E+01 -0.17005982522E+02 -0.85973029671E+01  0.20910995386E+02  0.51100000000E-03 0. -1.
        -11    1    3    3    0    0  0.72388277309E+01 -0.15137387786E+02 -0.12046400024E+02  0.20655674516E+02  0.51100000000E-03 0.  1.
        -12    1    3    3    0    0  0.86454878996E+00 -0.44195735976E+01  0.42913097172E+01  0.62205638397E+01  0.00000000000E+00 0.  1.
</event>
<event>
 7    1  0.2294216E-010  0.4778727E+02  0.7816164E-02  0.1312668E+00
        -11   -1    0    0    0    0  0.00000000000E+00  0.00000000000E+00  0.45593999997E+02  0.45594000000E+02  0.51100000000E-03 0.  1.
         11   -1    0    0    0    0 -0.00000000000E+00 -0.00000000000E+00 -0.45593999997E+02  0.45594000000E+02  0.51100000000E-03 0. -1.
    9900012    2    1    2    0    0  0.18822559398E+02 -0.17696933633E+02 -0.34873382111E+02  0.47787274406E+02  0.20000015325E+02 0.  0.
        -12    1    1    2    0    0 -0.18822559398E+02  0.17696933633E+02  0.34873382111E+02  0.43400725594E+02  0.00000000000E+00 0.  1.
         11    1    3    3    0    0  0.26947319427E+00 -0.17773642373E+00 -0.63470348555E+01  0.63552386074E+01  0.51100000000E-03 0.  1.
        -11    1    3    3    0    0  0.39943544771E+01 -0.83919390536E+01 -0.15126298145E+01  0.94163452562E+01  0.51100000000E-03 0. -1.
         12    1    3    3    0    0  0.14558731726E+02 -0.91272581556E+01 -0.27013717441E+02  0.32015690542E+02  0.00000000000E+00 0. -1.
</event>
<event>
 7    1  0.2294216E-010  0.4778727E+02  0.7816164E-02  0.1312668E+00
        -11   -1    0    0    0    0  0.00000000000E+00  0.00000000000E+00  0.45593999997E+02  0.45594000000E+02  0.51100000000E-03 0.  1.
         11   -1    0    0    0    0 -0.00000000000E+00 -0.00000000000E+00 -0.45593999997E+02  0.45594000000E+02  0.51100000000E-03 0. -1.
    9900012    2    1    2    0    0 -0.25533753081E+02  0.33198657622E+02  0.11379806023E+02  0.47787269598E+02  0.19999993404E+02 0.  0.
        -12    1    1    2    0    0  0.25533753081E+02 -0.33198657622E+02 -0.11379806023E+02  0.43400730402E+02  0.00000000000E+00 0.  1.
         11    1    3    3    0    0 -0.97687935707E+01  0.25641193351E+02  0.78446154395E+01  0.28538362181E+02  0.51100000000E-03 0. -1.
        -11    1    3    3    0    0 -0.95194990458E+01  0.82990350345E+01  0.25220987023E+01  0.12878502503E+02  0.51100000000E-03 0.  1.
        -12    1    3    3    0    0 -0.62454604648E+01 -0.74157076359E+00  0.10130918809E+01  0.63704049144E+01  0.00000000000E+00 0.  1.
</event>
<event>
 7    1  0.2294216E-010  0.4778727E+02  0.7816164E-02  0.1312668E+00
        -11   -1    0    0    0    0  0.00000000000E+00  0.00000000000E+00  0.45593999997E+02  0.45594000000E+02  0.51100000000E-03 0. -1.
         11   -1    0    0    0    0 -0.00000000000E+00 -0.00000000000E+00 -0.45593999997E+02  0.45594000000E+02  0.51100000000E-03 0.  1.
    9900012    2    1    2    0    0  0.37774854585E+02 -0.18531106782E+02  0.10643398787E+02  0.47787268494E+02  0.19999988373E+02 0.  0.
        -12    1    1    2    0    0 -0.37774854585E+02  0.18531106782E+02 -0.10643398787E+02  0.43400731506E+02  0.00000000000E+00 0.  1.
         11    1    3    3    0    0  0.17383911483E+02 -0.76148459969E+01  0.19256813613E+01  0.19076019159E+02  0.51100000000E-03 0. -1.
        -11    1    3    3    0    0  0.85679423260E+01  0.13584289668E+01 -0.15532282620E+01  0.88129157067E+01  0.51100000000E-03 0.  1.
         12    1    3    3    0    0  0.11823000777E+02 -0.12274689752E+02  0.10270945688E+02  0.19898333628E+02  0.00000000000E+00 0. -1.
</event>
<event>
 7    1  0.2294216E-010  0.4778728E+02  0.7816164E-02  0.1312668E+00
        -11   -1    0    0    0    0  0.00000000000E+00  0.00000000000E+00  0.45593999997E+02  0.45594000000E+02  0.51100000000E-03 0.  1.
         11   -1    0    0    0    0 -0.00000000000E+00 -0.00000000000E+00 -0.45593999997E+02  0.45594000000E+02  0.51100000000E-03 0. -1.
    9900012    2    1    2    0    0 -0.30725157377E+02 -0.12495317723E+02 -0.27990259916E+02  0.47787275225E+02  0.20000019060E+02 0.  0.
        -12    1    1    2    0    0  0.30725157377E+02  0.12495317723E+02  0.27990259916E+02  0.43400724775E+02  0.00000000000E+00 0.  1.
         11    1    3    3    0    0 -0.19931648666E+02 -0.60618209917E+00 -0.15230328486E+02  0.25091850895E+02  0.51100000000E-03 0. -1.
        -11    1    3    3    0    0 -0.57852004178E+01 -0.10470675240E+01 -0.77902611570E+01  0.97597675909E+01  0.51100000000E-03 0.  1.
        -12    1    3    3    0    0 -0.50083082933E+01 -0.10842068100E+02 -0.49696702731E+01  0.12935656739E+02  0.00000000000E+00 0.  1.
</event>
<event>
 7    1  0.2294216E-010  0.4778727E+02  0.7816164E-02  0.1312668E+00
        -11   -1    0    0    0    0  0.00000000000E+00  0.00000000000E+00  0.45593999997E+02  0.45594000000E+02  0.51100000000E-03 0.  1.
         11   -1    0    0    0    0 -0.00000000000E+00 -0.00000000000E+00 -0.45593999997E+02  0.45594000000E+02  0.51100000000E-03 0. -1.
    9900012    2    1    2    0    0 -0.96568522680E+01  0.37560408777E+02 -0.19482923001E+02  0.47787269685E+02  0.19999993804E+02 0.  0.
        -12    1    1    2    0    0  0.96568522680E+01 -0.37560408777E+02  0.19482923001E+02  0.43400730315E+02  0.00000000000E+00 0.  1.
         11    1    3    3    0    0 -0.31560174076E+01  0.19802697480E+02 -0.10954187024E+02  0.22849540192E+02  0.51100000000E-03 0. -1.
        -11    1    3    3    0    0 -0.41576978838E+01  0.11123365817E+02 -0.12179961267E+02  0.17010795852E+02  0.51100000000E-03 0.  1.
        -12    1    3    3    0    0 -0.23431369766E+01  0.66343454796E+01  0.36512252906E+01  0.79269336415E+01  0.00000000000E+00 0.  1.
</event>
<event>
 7    1  0.2294216E-010  0.4778727E+02  0.7816164E-02  0.1312668E+00
        -11   -1    0    0    0    0  0.00000000000E+00  0.00000000000E+00  0.45593999997E+02  0.45594000000E+02  0.51100000000E-03 0.  1.
         11   -1    0    0    0    0 -0.00000000000E+00 -0.00000000000E+00 -0.45593999997E+02  0.45594000000E+02  0.51100000000E-03 0. -1.
    9900012    2    1    2    0    0  0.25049528546E+02 -0.29245483970E+02 -0.20021145756E+02  0.47787268550E+02  0.19999988626E+02 0.  0.
        -12    1    1    2    0    0 -0.25049528546E+02  0.29245483970E+02  0.20021145756E+02  0.43400731450E+02  0.00000000000E+00 0.  1.
         11    1    3    3    0    0  0.17267295433E+02 -0.14145835508E+02 -0.80832193756E+01  0.23740315700E+02  0.51100000000E-03 0. -1.
        -11    1    3    3    0    0  0.67740967649E+01 -0.54938886510E+01 -0.39686420238E-01  0.87219708072E+01  0.51100000000E-03 0.  1.
         12    1    3    3    0    0  0.10081363477E+01 -0.96057598118E+01 -0.11898239960E+02  0.15324982043E+02  0.00000000000E+00 0. -1.
</event>
<event>
 7    1  0.2294216E-010  0.4778727E+02  0.7816164E-02  0.1312668E+00
        -11   -1    0    0    0    0  0.00000000000E+00  0.00000000000E+00  0.45593999997E+02  0.45594000000E+02  0.51100000000E-03 0. -1.
         11   -1    0    0    0    0 -0.00000000000E+00 -0.00000000000E+00 -0.45593999997E+02  0.45594000000E+02  0.51100000000E-03 0.  1.
    9900012    2    1    2    0    0  0.10130205778E+02  0.27967298793E+01  0.42109154813E+02  0.47787266294E+02  0.19999978342E+02 0.  0.
        -12    1    1    2    0    0 -0.10130205778E+02 -0.27967298793E+01 -0.42109154813E+02  0.43400733706E+02  0.00000000000E+00 0.  1.
         11    1    3    3    0    0  0.60222331930E+01 -0.43474901671E+01  0.31739150288E+02  0.32596650513E+02  0.51100000000E-03 0. -1.
        -11    1    3    3    0    0  0.58580789603E+01  0.29637945506E+01  0.63144143933E+01  0.91089514564E+01  0.51100000000E-03 0.  1.
        -12    1    3    3    0    0 -0.17501063750E+01  0.41804254958E+01  0.40555901318E+01  0.60816643254E+01  0.00000000000E+00 0.  1.
</event>
<event>
 7    1  0.2294216E-010  0.4778727E+02  0.7816164E-02  0.1312668E+00
        -11   -1    0    0    0    0  0.00000000000E+00  0.00000000000E+00  0.45593999997E+02  0.45594000000E+02  0.51100000000E-03 0.  1.
         11   -1    0    0    0    0 -0.00000000000E+00 -0.00000000000E+00 -0.45593999997E+02  0.45594000000E+02  0.51100000000E-03 0. -1.
    9900012    2    1    2    0    0 -0.33755626368E+02 -0.25621696709E+02 -0.93653450441E+01  0.47787270265E+02  0.19999996447E+02 0.  0.
        -12    1    1    2    0    0  0.33755626368E+02  0.25621696709E+02  0.93653450441E+01  0.43400729735E+02  0.00000000000E+00 0.  1.
         11    1    3    3    0    0 -0.47262525762E+01 -0.99964354221E+01 -0.33022510564E+01  0.11539976034E+02  0.51100000000E-03 0. -1.
        -11    1    3    3    0    0 -0.41817106248E+01 -0.41572205372E+01 -0.66328716483E+01  0.88749181917E+01  0.51100000000E-03 0.  1.
        -12    1    3    3    0    0 -0.24847663167E+02 -0.11468040750E+02  0.56977766059E+00  0.27372376040E+02  0.00000000000E+00 0.  1.
</event>
<event>
 7    1  0.2294216E-010  0.4778727E+02  0.7816164E-02  0.1312668E+00
        -11   -1    0    0    0    0  0.00000000000E+00  0.00000000000E+00  0.45593999997E+02  0.45594000000E+02  0.51100000000E-03 0. -1.
         11   -1    0    0    0    0 -0.00000000000E+00 -0.00000000000E+00 -0.45593999997E+02  0.45594000000E+02  0.51100000000E-03 0.  1.
    9900012    2    1    2    0    0  0.25373467008E+02 -0.30881745670E+02  0.16915329830E+02  0.47787269281E+02  0.19999991962E+02 0.  0.
        -12    1    1    2    0    0 -0.25373467008E+02  0.30881745670E+02 -0.16915329830E+02  0.43400730719E+02  0.00000000000E+00 0.  1.
         11    1    3    3    0    0  0.13290476753E+02 -0.10873483832E+02  0.22892225694E+00  0.17173288230E+02  0.51100000000E-03 0. -1.
        -11    1    3    3    0    0  0.20303106923E-01  0.11985867875E+01  0.33809063457E+00  0.12455231999E+01  0.51100000000E-03 0.  1.
         12    1    3    3    0    0  0.12062687149E+02 -0.21206848626E+02  0.16348316938E+02  0.29368457852E+02  0.00000000000E+00 0. -1.
</event>
<event>
 7    1  0.2294216E-010  0.4778728E+02  0.7816164E-02  0.1312668E+00
        -11   -1    0    0    0    0  0.00000000000E+00  0.00000000000E+00  0.45593999997E+02  0.45594000000E+02  0.51100000000E-03 0. -1.
         11   -1    0    0    0    0 -0.00000000000E+00 -0.00000000000E+00 -0.45593999997E+02  0.45594000000E+02  0.51100000000E-03 0.  1.
    9900012    2    1    2    0    0  0.28094544334E+02  0.23384773540E+02  0.23398099598E+02  0.47787284342E+02  0.20000060628E+02 0.  0.
        -12    1    1    2    0    0 -0.28094544334E+02 -0.23384773540E+02 -0.23398099598E+02  0.43400715658E+02  0.00000000000E+00 0.  1.
         11    1    3    3    0    0  0.34308169847E+01  0.58872466792E+01  0.13454811458E+01  0.69455380223E+01  0.51100000000E-03 0.  1.
        -11    1    3    3    0    0  0.80291488360E+01  0.40810916615E+01 -0.13974146668E+01  0.91145657161E+01  0.51100000000E-03 0. -1.
         12    1    3    3    0    0  0.16634578513E+02  0.13416435200E+02  0.23450033118E+02  0.31727180603E+02  0.00000000000E+00 0. -1.
</event>
<event>
 7    1  0.2294216E-010  0.4778727E+02  0.7816164E-02  0.1312668E+00
        -11   -1    0    0    0    0  0.00000000000E+00  0.00000000000E+00  0.45593999997E+02  0.45594000000E+02  0.51100000000E-03 0. -1.
         11   -1    0    0    0    0 -0.00000000000E+00 -0.00000000000E+00 -0.45593999997E+02  0.45594000000E+02  0.51100000000E-03 0.  1.
    9900012    2    1    2    0    0 -0.36925235772E+02  0.11485072507E+02  0.19703888453E+02  0.47787272501E+02  0.20000006639E+02 0.  0.
        -12    1    1    2    0    0  0.36925235772E+02 -0.11485072507E+02 -0.19703888453E+02  0.43400727499E+02  0.00000000000E+00 0.  1.
         11    1    3    3    0    0 -0.23354566252E+02  0.11854958595E+02  0.10162382006E+02  0.28093590308E+02  0.51100000000E-03 0. -1.
        -11    1    3    3    0    0 -0.14941838457E+02  0.13152782990E+01  0.88397823169E+01  0.17410635978E+02  0.51100000000E-03 0.  1.
        -12    1    3    3    0    0  0.13711689365E+01 -0.16851643871E+01  0.70172412943E+00  0.22830462146E+01  0.00000000000E+00 0.  1.
</event>
<event>
 7    1  0.2294216E-010  0.4778727E+02  0.7816164E-02  0.1312668E+00
        -11   -1    0    0    0    0  0.00000000000E+00  0.00000000000E+00  0.45593999997E+02  0.45594000000E+02  0.51100000000E-03 0.  1.
         11   -1    0    0    0    0 -0.00000000000E+00 -0.00000000000E+00 -0.45593999997E+02  0.45594000000E+02  0.51100000000E-03 0. -1.
    9900012    2    1    2    0    0 -0.96139120518E+01  0.31900296922E+02 -0.27813079716E+02  0.47787266689E+02  0.19999980141E+02 0.  0.
        -12    1    1    2    0    0  0.96139120518E+01 -0.31900296922E+02  0.27813079716E+02  0.43400733311E+02  0.00000000000E+00 0.  1.
         11    1    3    3    0    0  0.32249973956E-02 -0.10594662446E+01  0.75597044150E+00  0.13015262938E+01  0.51100000000E-03 0. -1.
        -11    1    3    3    0    0 -0.50443793775E+01  0.57108964123E+01 -0.12161425814E+02  0.14351319773E+02  0.51100000000E-03 0.  1.
         12    1    3    3    0    0 -0.45727576717E+01  0.27248866754E+02 -0.16407624344E+02  0.32134420622E+02  0.00000000000E+00 0. -1.
</event>
<event>
 7    1  0.2294216E-010  0.4778727E+02  0.7816164E-02  0.1312668E+00
        -11   -1    0    0    0    0  0.00000000000E+00  0.00000000000E+00  0.45593999997E+02  0.45594000000E+02  0.51100000000E-03 0.  1.
         11   -1    0    0    0    0 -0.00000000000E+00 -0.00000000000E+00 -0.45593999997E+02  0.45594000000E+02  0.51100000000E-03 0. -1.
    9900012    2    1    2    0    0  0.13895407967E+02 -0.19482409044E+01 -0.41070002496E+02  0.47787272929E+02  0.20000008594E+02 0.  0.
        -12    1    1    2    0    0 -0.13895407967E+02  0.19482409044E+01  0.41070002496E+02  0.43400727071E+02  0.00000000000E+00 0.  1.
         11    1    3    3    0    0  0.16729341876E+01  0.18000895371E+01 -0.91644189090E+01  0.94881824044E+01  0.51100000000E-03 0. -1.
        -11    1    3    3    0    0 -0.12005715353E+01 -0.43339504711E+01 -0.10110323515E+01  0.46094126930E+01  0.51100000000E-03 0.  1.
         12    1    3    3    0    0  0.13423045315E+02  0.58562002956E+00 -0.30894551236E+02  0.33689677832E+02  0.00000000000E+00 0. -1.
</event>
<event>
 7    1  0.2294216E-010  0.4778727E+02  0.7816164E-02  0.1312668E+00
        -11   -1    0    0    0    0  0.00000000000E+00  0.00000000000E+00  0.45593999997E+02  0.45594000000E+02  0.51100000000E-03 0.  1.
         11   -1    0    0    0    0 -0.00000000000E+00 -0.00000000000E+00 -0.45593999997E+02  0.45594000000E+02  0.51100000000E-03 0. -1.
    9900012    2    1    2    0    0 -0.40762928730E+02  0.44223852444E+01  0.14228478155E+02  0.47787269125E+02  0.19999991249E+02 0.  0.
        -12    1    1    2    0    0  0.40762928730E+02 -0.44223852444E+01 -0.14228478155E+02  0.43400730875E+02  0.00000000000E+00 0.  1.
         11    1    3    3    0    0 -0.44224347701E+00  0.28944540976E+01  0.52676648231E+00  0.29750507565E+01  0.51100000000E-03 0. -1.
        -11    1    3    3    0    0 -0.21176042886E+02  0.76937238648E+01  0.79684237381E+01  0.23897990634E+02  0.51100000000E-03 0.  1.
        -12    1    3    3    0    0 -0.19144642366E+02 -0.61657927179E+01  0.57332879344E+01  0.20914227734E+02  0.00000000000E+00 0.  1.
</event>
<event>
 7    1  0.2294216E-010  0.4778727E+02  0.7816164E-02  0.1312668E+00
        -11   -1    0    0    0    0  0.00000000000E+00  0.00000000000E+00  0.45593999997E+02  0.45594000000E+02  0.51100000000E-03 0. -1.
         11   -1    0    0    0    0 -0.00000000000E+00 -0.00000000000E+00 -0.45593999997E+02  0.45594000000E+02  0.51100000000E-03 0.  1.
    9900012    2    1    2    0    0  0.41969738214E+02 -0.52972130334E+01  0.97007052419E+01  0.47787273349E+02  0.20000010506E+02 0.  0.
        -12    1    1    2    0    0 -0.41969738214E+02  0.52972130334E+01 -0.97007052419E+01  0.43400726651E+02  0.00000000000E+00 0.  1.
         11    1    3    3    0    0  0.27028697371E+02 -0.11957089043E+01  0.46673286949E+00  0.27059158176E+02  0.51100000000E-03 0. -1.
        -11    1    3    3    0    0  0.47532189780E+01  0.34509226596E+01  0.30635015248E+01  0.66247263875E+01  0.51100000000E-03 0.  1.
        -12    1    3    3    0    0  0.10187821865E+02 -0.75524267886E+01  0.61704708476E+01  0.14103388785E+02  0.00000000000E+00 0.  1.
</event>
<event>
 7    1  0.2294216E-010  0.4778726E+02  0.7816164E-02  0.1312668E+00
        -11   -1    0    0    0    0  0.00000000000E+00  0.00000000000E+00  0.45593999997E+02  0.45594000000E+02  0.51100000000E-03 0.  1.
         11   -1    0    0    0    0 -0.00000000000E+00 -0.00000000000E+00 -0.45593999997E+02  0.45594000000E+02  0.51100000000E-03 0. -1.
    9900012    2    1    2    0    0 -0.30863752037E+02 -0.96885755617E+01 -0.28934148430E+02  0.47787255403E+02  0.19999928684E+02 0.  0.
        -12    1    1    2    0    0  0.30863752037E+02  0.96885755617E+01  0.28934148430E+02  0.43400744597E+02  0.00000000000E+00 0.  1.
         11    1    3    3    0    0 -0.11017334417E+02 -0.39869403775E+01 -0.96565614982E+01  0.15183100192E+02  0.51100000000E-03 0. -1.
        -11    1    3    3    0    0  0.10217836022E+01 -0.51597167957E+01 -0.53916048968E+01  0.75323384660E+01  0.51100000000E-03 0.  1.
        -12    1    3    3    0    0 -0.20868201222E+02 -0.54191838845E+00 -0.13885982035E+02  0.25071816745E+02  0.00000000000E+00 0.  1.
</event>
<event>
 7    1  0.2294216E-010  0.4778727E+02  0.7816164E-02  0.1312668E+00
        -11   -1    0    0    0    0  0.00000000000E+00  0.00000000000E+00  0.45593999997E+02  0.45594000000E+02  0.51100000000E-03 0.  1.
         11   -1    0    0    0    0 -0.00000000000E+00 -0.00000000000E+00 -0.45593999997E+02  0.45594000000E+02  0.51100000000E-03 0. -1.
    9900012    2    1    2    0    0  0.14043278657E+02 -0.57762359534E+01 -0.40657654558E+02  0.47787269000E+02  0.19999990676E+02 0.  0.
        -12    1    1    2    0    0 -0.14043278657E+02  0.57762359534E+01  0.40657654558E+02  0.43400731000E+02  0.00000000000E+00 0.  1.
         11    1    3    3    0    0  0.27938677577E+01  0.58158426336E+00 -0.24356182404E+01  0.37518227273E+01  0.51100000000E-03 0.  1.
        -11    1    3    3    0    0  0.11323878615E+01 -0.98186729669E+01 -0.10996810766E+02  0.14785752886E+02  0.51100000000E-03 0. -1.
         12    1    3    3    0    0  0.10117023038E+02  0.34608527501E+01 -0.27225225551E+02  0.29249693387E+02  0.00000000000E+00 0. -1.
</event>
<event>
 7    1  0.2294216E-010  0.4778727E+02  0.7816164E-02  0.1312668E+00
        -11   -1    0    0    0    0  0.00000000000E+00  0.00000000000E+00  0.45593999997E+02  0.45594000000E+02  0.51100000000E-03 0.  1.
         11   -1    0    0    0    0 -0.00000000000E+00 -0.00000000000E+00 -0.45593999997E+02  0.45594000000E+02  0.51100000000E-03 0. -1.
    9900012    2    1    2    0    0 -0.20268261405E+02  0.36773124613E+02 -0.10979900946E+02  0.47787270294E+02  0.19999996579E+02 0.  0.
        -12    1    1    2    0    0  0.20268261405E+02 -0.36773124613E+02  0.10979900946E+02  0.43400729706E+02  0.00000000000E+00 0.  1.
         11    1    3    3    0    0 -0.11199960538E+02  0.14610781261E+02  0.36663837036E+01  0.18771159123E+02  0.51100000000E-03 0. -1.
        -11    1    3    3    0    0 -0.57887527252E+00  0.93511730872E+01 -0.33794473950E+01  0.99599297008E+01  0.51100000000E-03 0.  1.
        -12    1    3    3    0    0 -0.84894255950E+01  0.12811170265E+02 -0.11266837255E+02  0.19056181470E+02  0.00000000000E+00 0.  1.
</event>
<event>
 7    1  0.2294216E-010  0.4778727E+02  0.7816164E-02  0.1312668E+00
        -11   -1    0    0    0    0  0.00000000000E+00  0.00000000000E+00  0.45593999997E+02  0.45594000000E+02  0.51100000000E-03 0. -1.
         11   -1    0    0    0    0 -0.00000000000E+00 -0.00000000000E+00 -0.45593999997E+02  0.45594000000E+02  0.51100000000E-03 0.  1.
    9900012    2    1    2    0    0 -0.41176491797E+02 -0.12342158710E+02  0.59825509671E+01  0.47787271038E+02  0.19999999973E+02 0.  0.
        -12    1    1    2    0    0  0.41176491797E+02  0.12342158710E+02 -0.59825509671E+01  0.43400728962E+02  0.00000000000E+00 0.  1.
         11    1    3    3    0    0 -0.16340160074E+02  0.47154454229E+00  0.49527904009E+01  0.17080787995E+02  0.51100000000E-03 0. -1.
        -11    1    3    3    0    0 -0.13507680087E+02 -0.58885267741E+00  0.32134730181E+01  0.13897142797E+02  0.51100000000E-03 0.  1.
        -12    1    3    3    0    0 -0.11328651635E+02 -0.12224850575E+02 -0.21837124519E+01  0.16809340247E+02  0.00000000000E+00 0.  1.
</event>
<event>
 7    1  0.2294216E-010  0.4778727E+02  0.7816164E-02  0.1312668E+00
        -11   -1    0    0    0    0  0.00000000000E+00  0.00000000000E+00  0.45593999997E+02  0.45594000000E+02  0.51100000000E-03 0. -1.
         11   -1    0    0    0    0 -0.00000000000E+00 -0.00000000000E+00 -0.45593999997E+02  0.45594000000E+02  0.51100000000E-03 0.  1.
    9900012    2    1    2    0    0 -0.52127580770E+01  0.26190166215E+02  0.34212950246E+02  0.47787267083E+02  0.19999981939E+02 0.  0.
        -12    1    1    2    0    0  0.52127580770E+01 -0.26190166215E+02 -0.34212950246E+02  0.43400732917E+02  0.00000000000E+00 0.  1.
         11    1    3    3    0    0 -0.66433868124E+01  0.10250587006E+02  0.13333941949E+02  0.18083227877E+02  0.51100000000E-03 0. -1.
        -11    1    3    3    0    0 -0.60071119474E+01  0.71582574886E+01  0.70071366126E+01  0.11680154451E+02  0.51100000000E-03 0.  1.
         12    1    3    3    0    0  0.74377406829E+01  0.87813217205E+01  0.13871871685E+02  0.18023884755E+02  0.00000000000E+00 0. -1.
</event>
<event>
 7    1  0.2294216E-010  0.4778727E+02  0.7816164E-02  0.1312668E+00
        -11   -1    0    0    0    0  0.00000000000E+00  0.00000000000E+00  0.45593999997E+02  0.45594000000E+02  0.51100000000E-03 0. -1.
         11   -1    0    0    0    0 -0.00000000000E+00 -0.00000000000E+00 -0.45593999997E+02  0.45594000000E+02  0.51100000000E-03 0.  1.
    9900012    2    1    2    0    0 -0.90323147907E+01  0.41518945142E+02  0.88440759381E+01  0.47787271948E+02  0.20000004121E+02 0.  0.
        -12    1    1    2    0    0  0.90323147907E+01 -0.41518945142E+02 -0.88440759381E+01  0.43400728052E+02  0.00000000000E+00 0.  1.
         11    1    3    3    0    0 -0.47335728318E+01  0.18256519476E+02  0.70523681098E+01  0.20135617978E+02  0.51100000000E-03 0. -1.
        -11    1    3    3    0    0 -0.38733672485E+01  0.28272042911E+01  0.50384813657E+01  0.69557424248E+01  0.51100000000E-03 0.  1.
        -12    1    3    3    0    0 -0.42537471036E+00  0.20435221375E+02 -0.32467735374E+01  0.20695911546E+02  0.00000000000E+00 0.  1.
</event>
<event>
 7    1  0.2294216E-010  0.4778727E+02  0.7816164E-02  0.1312668E+00
        -11   -1    0    0    0    0  0.00000000000E+00  0.00000000000E+00  0.45593999997E+02  0.45594000000E+02  0.51100000000E-03 0.  1.
         11   -1    0    0    0    0 -0.00000000000E+00 -0.00000000000E+00 -0.45593999997E+02  0.45594000000E+02  0.51100000000E-03 0. -1.
    9900012    2    1    2    0    0 -0.29392246128E+02  0.31233274061E+02 -0.66484338472E+01  0.47787271738E+02  0.20000003163E+02 0.  0.
        -12    1    1    2    0    0  0.29392246128E+02 -0.31233274061E+02  0.66484338472E+01  0.43400728262E+02  0.00000000000E+00 0.  1.
         11    1    3    3    0    0 -0.55211169330E+01  0.10119370641E+02  0.38309562624E+01  0.12147453251E+02  0.51100000000E-03 0. -1.
        -11    1    3    3    0    0 -0.13650889118E+02  0.19280830273E+02 -0.63241174556E+01  0.24455912405E+02  0.51100000000E-03 0.  1.
        -12    1    3    3    0    0 -0.10220240078E+02  0.18330731473E+01 -0.41552726540E+01  0.11183906081E+02  0.00000000000E+00 0.  1.
</event>
<event>
 7    1  0.2294216E-010  0.4778727E+02  0.7816164E-02  0.1312668E+00
        -11   -1    0    0    0    0  0.00000000000E+00  0.00000000000E+00  0.45593999997E+02  0.45594000000E+02  0.51100000000E-03 0.  1.
         11   -1    0    0    0    0 -0.00000000000E+00 -0.00000000000E+00 -0.45593999997E+02  0.45594000000E+02  0.51100000000E-03 0. -1.
    9900012    2    1    2    0    0  0.21919069154E+02 -0.45671421108E+01 -0.37179549266E+02  0.47787271167E+02  0.20000000558E+02 0.  0.
        -12    1    1    2    0    0 -0.21919069154E+02  0.45671421108E+01  0.37179549266E+02  0.43400728833E+02  0.00000000000E+00 0.  1.
         11    1    3    3    0    0  0.14422745813E+02  0.38141009898E+01 -0.16215175190E+02  0.22033948122E+02  0.51100000000E-03 0. -1.
        -11    1    3    3    0    0  0.68393853137E+01 -0.29000340273E+01 -0.52478346813E+01  0.90954470991E+01  0.51100000000E-03 0.  1.
        -12    1    3    3    0    0  0.65693802726E+00 -0.54812090734E+01 -0.15716539395E+02  0.16657875946E+02  0.00000000000E+00 0.  1.
</event>
<event>
 7    1  0.2294216E-010  0.4778727E+02  0.7816164E-02  0.1312668E+00
        -11   -1    0    0    0    0  0.00000000000E+00  0.00000000000E+00  0.45593999997E+02  0.45594000000E+02  0.51100000000E-03 0.  1.
         11   -1    0    0    0    0 -0.00000000000E+00 -0.00000000000E+00 -0.45593999997E+02  0.45594000000E+02  0.51100000000E-03 0. -1.
    9900012    2    1    2    0    0 -0.33702820695E+02 -0.10434599899E+02 -0.25275723354E+02  0.47787272023E+02  0.20000004463E+02 0.  0.
        -12    1    1    2    0    0  0.33702820695E+02  0.10434599899E+02  0.25275723354E+02  0.43400727977E+02  0.00000000000E+00 0.  1.
         11    1    3    3    0    0 -0.15177214771E+02 -0.72390087230E+01 -0.63495796162E+01  0.17974099618E+02  0.51100000000E-03 0. -1.
        -11    1    3    3    0    0 -0.47254427672E+01 -0.57693255249E+01 -0.18053876181E+01  0.76729623400E+01  0.51100000000E-03 0.  1.
         12    1    3    3    0    0 -0.13800163156E+02  0.25737343485E+01 -0.17120756119E+02  0.22140210065E+02  0.00000000000E+00 0. -1.
</event>
<event>
 7    1  0.2294216E-010  0.4778727E+02  0.7816164E-02  0.1312668E+00
        -11   -1    0    0    0    0  0.00000000000E+00  0.00000000000E+00  0.45593999997E+02  0.45594000000E+02  0.51100000000E-03 0. -1.
         11   -1    0    0    0    0 -0.00000000000E+00 -0.00000000000E+00 -0.45593999997E+02  0.45594000000E+02  0.51100000000E-03 0.  1.
    9900012    2    1    2    0    0  0.41835190699E+02 -0.10616228085E+02 -0.45536303696E+01  0.47787273864E+02  0.20000012858E+02 0.  0.
        -12    1    1    2    0    0 -0.41835190699E+02  0.10616228085E+02  0.45536303696E+01  0.43400726136E+02  0.00000000000E+00 0.  1.
         11    1    3    3    0    0  0.54350073838E+01 -0.25155874470E+01 -0.58883242487E+01  0.83988004015E+01  0.51100000000E-03 0. -1.
        -11    1    3    3    0    0  0.18359370456E+01 -0.22909258576E+01 -0.28485223046E+01  0.40906094536E+01  0.51100000000E-03 0.  1.
         12    1    3    3    0    0  0.34564246269E+02 -0.58097147806E+01  0.41832161837E+01  0.35297864009E+02  0.00000000000E+00 0. -1.
</event>
<event>
 7    1  0.2294216E-010  0.4778727E+02  0.7816164E-02  0.1312668E+00
        -11   -1    0    0    0    0  0.00000000000E+00  0.00000000000E+00  0.45593999997E+02  0.45594000000E+02  0.51100000000E-03 0.  1.
         11   -1    0    0    0    0 -0.00000000000E+00 -0.00000000000E+00 -0.45593999997E+02  0.45594000000E+02  0.51100000000E-03 0. -1.
    9900012    2    1    2    0    0 -0.92439426391E+01 -0.39332645646E+02 -0.15846634957E+02  0.47787270415E+02  0.19999997130E+02 0.  0.
        -12    1    1    2    0    0  0.92439426391E+01  0.39332645646E+02  0.15846634957E+02  0.43400729585E+02  0.00000000000E+00 0.  1.
         11    1    3    3    0    0  0.16801460159E+01 -0.10313795902E+02 -0.58502792094E+01  0.11975936023E+02  0.51100000000E-03 0. -1.
        -11    1    3    3    0    0  0.27068156440E+01 -0.87828814134E+00  0.36991817146E+00  0.28696830321E+01  0.51100000000E-03 0.  1.
        -12    1    3    3    0    0 -0.13630904299E+02 -0.28140561603E+02 -0.10366273919E+02  0.32941651360E+02  0.00000000000E+00 0.  1.
</event>
<event>
 7    1  0.2294216E-010  0.4778727E+02  0.7816164E-02  0.1312668E+00
        -11   -1    0    0    0    0  0.00000000000E+00  0.00000000000E+00  0.45593999997E+02  0.45594000000E+02  0.51100000000E-03 0.  1.
         11   -1    0    0    0    0 -0.00000000000E+00 -0.00000000000E+00 -0.45593999997E+02  0.45594000000E+02  0.51100000000E-03 0. -1.
    9900012    2    1    2    0    0 -0.29922791293E+02  0.30790943739E+02 -0.63377894610E+01  0.47787271546E+02  0.20000002287E+02 0.  0.
        -12    1    1    2    0    0  0.29922791293E+02 -0.30790943739E+02  0.63377894610E+01  0.43400728454E+02  0.00000000000E+00 0.  1.
         11    1    3    3    0    0 -0.97206666702E+01  0.16245939638E+02 -0.11446635709E+02  0.22123457789E+02  0.51100000000E-03 0. -1.
        -11    1    3    3    0    0 -0.39948431262E+01  0.25118563708E+01 -0.41095137477E+00  0.47367790031E+01  0.51100000000E-03 0.  1.
        -12    1    3    3    0    0 -0.16207281496E+02  0.12033147730E+02  0.55197976226E+01  0.20927034754E+02  0.00000000000E+00 0.  1.
</event>
<event>
 7    1  0.2294216E-010  0.4778727E+02  0.7816164E-02  0.1312668E+00
        -11   -1    0    0    0    0  0.00000000000E+00  0.00000000000E+00  0.45593999997E+02  0.45594000000E+02  0.51100000000E-03 0.  1.
         11   -1    0    0    0    0 -0.00000000000E+00 -0.00000000000E+00 -0.45593999997E+02  0.45594000000E+02  0.51100000000E-03 0. -1.
    9900012    2    1    2    0    0 -0.50074538209E+01  0.14195897337E+02 -0.40706577378E+02  0.47787268015E+02  0.19999986190E+02 0.  0.
        -12    1    1    2    0    0  0.50074538209E+01 -0.14195897337E+02  0.40706577378E+02  0.43400731985E+02  0.00000000000E+00 0.  1.
         11    1    3    3    0    0 -0.14849227143E+01 -0.28403758350E+01 -0.93608234488E+01  0.98943289946E+01  0.51100000000E-03 0. -1.
        -11    1    3    3    0    0  0.15396590183E+01 -0.13068916851E+01 -0.15784344458E+01  0.25631955310E+01  0.51100000000E-03 0.  1.
        -12    1    3    3    0    0 -0.50621901248E+01  0.18343164858E+02 -0.29767319483E+02  0.35329743490E+02  0.00000000000E+00 0.  1.
</event>
<event>
 7    1  0.2294216E-010  0.4778727E+02  0.7816164E-02  0.1312668E+00
        -11   -1    0    0    0    0  0.00000000000E+00  0.00000000000E+00  0.45593999997E+02  0.45594000000E+02  0.51100000000E-03 0.  1.
         11   -1    0    0    0    0 -0.00000000000E+00 -0.00000000000E+00 -0.45593999997E+02  0.45594000000E+02  0.51100000000E-03 0. -1.
    9900012    2    1    2    0    0 -0.24643131744E+02  0.14305208695E+02 -0.32736836066E+02  0.47787269896E+02  0.19999994764E+02 0.  0.
        -12    1    1    2    0    0  0.24643131744E+02 -0.14305208695E+02  0.32736836066E+02  0.43400730104E+02  0.00000000000E+00 0.  1.
         11    1    3    3    0    0 -0.61415987561E+01  0.61837197675E+01 -0.21313068422E+01  0.89721844921E+01  0.51100000000E-03 0. -1.
        -11    1    3    3    0    0 -0.44557825910E+01 -0.23865886665E+01 -0.13063495512E+02  0.14007309492E+02  0.51100000000E-03 0.  1.
         12    1    3    3    0    0 -0.14045750397E+02  0.10508077594E+02 -0.17542033712E+02  0.24807775912E+02  0.00000000000E+00 0. -1.
</event>
<event>
 7    1  0.2294216E-010  0.4778728E+02  0.7816164E-02  0.1312668E+00
        -11   -1    0    0    0    0  0.00000000000E+00  0.00000000000E+00  0.45593999997E+02  0.45594000000E+02  0.51100000000E-03 0. -1.
         11   -1    0    0    0    0 -0.00000000000E+00 -0.00000000000E+00 -0.45593999997E+02  0.45594000000E+02  0.51100000000E-03 0.  1.
    9900012    2    1    2    0    0 -0.48552493642E+01  0.37097003945E+01  0.42968444299E+02  0.47787279628E+02  0.20000039134E+02 0.  0.
        -12    1    1    2    0    0  0.48552493642E+01 -0.37097003945E+01 -0.42968444299E+02  0.43400720372E+02  0.00000000000E+00 0.  1.
         11    1    3    3    0    0  0.94743763313E-02 -0.33450244315E+01  0.23369779982E+01  0.40805323962E+01  0.51100000000E-03 0. -1.
        -11    1    3    3    0    0  0.18125202186E+00 -0.31629274299E+01  0.29107949162E+01  0.43022888707E+01  0.51100000000E-03 0.  1.
        -12    1    3    3    0    0 -0.50459757624E+01  0.10217652256E+02  0.37720671384E+02  0.39404458361E+02  0.00000000000E+00 0.  1.
</event>
<event>
 7    1  0.2294216E-010  0.4778728E+02  0.7816164E-02  0.1312668E+00
        -11   -1    0    0    0    0  0.00000000000E+00  0.00000000000E+00  0.45593999997E+02  0.45594000000E+02  0.51100000000E-03 0. -1.
         11   -1    0    0    0    0 -0.00000000000E+00 -0.00000000000E+00 -0.45593999997E+02  0.45594000000E+02  0.51100000000E-03 0.  1.
    9900012    2    1    2    0    0 -0.34947992162E+02 -0.34011018821E+01  0.25508682950E+02  0.47787279315E+02  0.20000037707E+02 0.  0.
        -12    1    1    2    0    0  0.34947992162E+02  0.34011018821E+01 -0.25508682950E+02  0.43400720685E+02  0.00000000000E+00 0.  1.
         11    1    3    3    0    0 -0.14026631632E+00 -0.12681296694E+01 -0.41488723249E+00  0.13416255717E+01  0.51100000000E-03 0.  1.
        -11    1    3    3    0    0 -0.13312877354E+01 -0.29583684228E+00 -0.22646455138E+01  0.26435706981E+01  0.51100000000E-03 0. -1.
         12    1    3    3    0    0 -0.33476438110E+02 -0.18371353705E+01  0.28188215696E+02  0.43802083045E+02  0.00000000000E+00 0. -1.
</event>
<event>
 7    1  0.2294216E-010  0.4778727E+02  0.7816164E-02  0.1312668E+00
        -11   -1    0    0    0    0  0.00000000000E+00  0.00000000000E+00  0.45593999997E+02  0.45594000000E+02  0.51100000000E-03 0.  1.
         11   -1    0    0    0    0 -0.00000000000E+00 -0.00000000000E+00 -0.45593999997E+02  0.45594000000E+02  0.51100000000E-03 0. -1.
    9900012    2    1    2    0    0  0.23424474968E+02  0.34679377544E+02 -0.11500339534E+02  0.47787273465E+02  0.20000011036E+02 0.  0.
        -12    1    1    2    0    0 -0.23424474968E+02 -0.34679377544E+02  0.11500339534E+02  0.43400726535E+02  0.00000000000E+00 0.  1.
         11    1    3    3    0    0  0.54327486914E+01  0.96429727513E+01  0.31739973473E+00  0.11072597919E+02  0.51100000000E-03 0. -1.
        -11    1    3    3    0    0  0.17567027283E+01  0.13832111112E+02 -0.94574390188E+01  0.16848040104E+02  0.51100000000E-03 0.  1.
         12    1    3    3    0    0  0.16235023549E+02  0.11204293680E+02 -0.23603002498E+01  0.19866635442E+02  0.00000000000E+00 0. -1.
</event>
<event>
 7    1  0.2294216E-010  0.4778727E+02  0.7816164E-02  0.1312668E+00
        -11   -1    0    0    0    0  0.00000000000E+00  0.00000000000E+00  0.45593999997E+02  0.45594000000E+02  0.51100000000E-03 0. -1.
         11   -1    0    0    0    0 -0.00000000000E+00 -0.00000000000E+00 -0.45593999997E+02  0.45594000000E+02  0.51100000000E-03 0.  1.
    9900012    2    1    2    0    0  0.91354743097E+00  0.43382684687E+02  0.85527089512E+00  0.47787269731E+02  0.19999994012E+02 0.  0.
        -12    1    1    2    0    0 -0.91354743097E+00 -0.43382684687E+02 -0.85527089512E+00  0.43400730269E+02  0.00000000000E+00 0.  1.
         11    1    3    3    0    0 -0.32110179452E+01  0.21383761786E+02 -0.40903085149E+01  0.22006965451E+02  0.51100000000E-03 0.  1.
        -11    1    3    3    0    0 -0.22582021511E+01  0.17009859950E+02  0.40425314198E+01  0.17628864768E+02  0.51100000000E-03 0. -1.
        -12    1    3    3    0    0  0.63827675273E+01  0.49890629512E+01  0.90304799029E+00  0.81514395116E+01  0.00000000000E+00 0.  1.
</event>
<event>
 7    1  0.2294216E-010  0.4778727E+02  0.7816164E-02  0.1312668E+00
        -11   -1    0    0    0    0  0.00000000000E+00  0.00000000000E+00  0.45593999997E+02  0.45594000000E+02  0.51100000000E-03 0.  1.
         11   -1    0    0    0    0 -0.00000000000E+00 -0.00000000000E+00 -0.45593999997E+02  0.45594000000E+02  0.51100000000E-03 0. -1.
    9900012    2    1    2    0    0  0.41215809341E+01 -0.25764924176E+02 -0.34681476709E+02  0.47787267587E+02  0.19999984238E+02 0.  0.
        -12    1    1    2    0    0 -0.41215809341E+01  0.25764924176E+02  0.34681476709E+02  0.43400732413E+02  0.00000000000E+00 0.  1.
         11    1    3    3    0    0  0.41946699386E+01 -0.23287621835E+01 -0.22259275829E+01  0.52889642716E+01  0.51100000000E-03 0. -1.
        -11    1    3    3    0    0  0.17634347024E+01  0.10518487530E+01 -0.35790915340E+00  0.20842713288E+01  0.51100000000E-03 0.  1.
         12    1    3    3    0    0 -0.18365237069E+01 -0.24488010746E+02 -0.32097639973E+02  0.40414031987E+02  0.00000000000E+00 0. -1.
</event>
<event>
 7    1  0.2294216E-010  0.4778727E+02  0.7816164E-02  0.1312668E+00
        -11   -1    0    0    0    0  0.00000000000E+00  0.00000000000E+00  0.45593999997E+02  0.45594000000E+02  0.51100000000E-03 0.  1.
         11   -1    0    0    0    0 -0.00000000000E+00 -0.00000000000E+00 -0.45593999997E+02  0.45594000000E+02  0.51100000000E-03 0. -1.
    9900012    2    1    2    0    0 -0.23060756788E+02  0.40226658913E+01 -0.36546449699E+02  0.47787270396E+02  0.19999997045E+02 0.  0.
        -12    1    1    2    0    0  0.23060756788E+02 -0.40226658913E+01  0.36546449699E+02  0.43400729604E+02  0.00000000000E+00 0.  1.
         11    1    3    3    0    0 -0.12863082306E+02 -0.37223897681E+01 -0.20539708162E+02  0.24519271678E+02  0.51100000000E-03 0. -1.
        -11    1    3    3    0    0 -0.58914062749E+01 -0.19241758106E+01 -0.46867243431E+01  0.77702320284E+01  0.51100000000E-03 0.  1.
        -12    1    3    3    0    0 -0.43062682076E+01  0.96692314699E+01 -0.11320017194E+02  0.15497766690E+02  0.00000000000E+00 0.  1.
</event>
<event>
 7    1  0.2294216E-010  0.4778727E+02  0.7816164E-02  0.1312668E+00
        -11   -1    0    0    0    0  0.00000000000E+00  0.00000000000E+00  0.45593999997E+02  0.45594000000E+02  0.51100000000E-03 0.  1.
         11   -1    0    0    0    0 -0.00000000000E+00 -0.00000000000E+00 -0.45593999997E+02  0.45594000000E+02  0.51100000000E-03 0. -1.
    9900012    2    1    2    0    0  0.28610200253E+01  0.43300414240E+02 -0.71575377536E+00  0.47787267145E+02  0.19999982220E+02 0.  0.
        -12    1    1    2    0    0 -0.28610200253E+01 -0.43300414240E+02  0.71575377536E+00  0.43400732855E+02  0.00000000000E+00 0.  1.
         11    1    3    3    0    0 -0.71416380332E+01  0.80873534086E+01  0.21723519703E+01  0.11005789036E+02  0.51100000000E-03 0. -1.
        -11    1    3    3    0    0  0.20518667702E+01  0.75313603449E+01  0.25182210191E+00  0.78099270496E+01  0.51100000000E-03 0.  1.
         12    1    3    3    0    0  0.79507912883E+01  0.27681700486E+02 -0.31399278475E+01  0.28971551060E+02  0.00000000000E+00 0. -1.
</event>
<event>
 7    1  0.2294216E-010  0.4778728E+02  0.7816164E-02  0.1312668E+00
        -11   -1    0    0    0    0  0.00000000000E+00  0.00000000000E+00  0.45593999997E+02  0.45594000000E+02  0.51100000000E-03 0.  1.
         11   -1    0    0    0    0 -0.00000000000E+00 -0.00000000000E+00 -0.45593999997E+02  0.45594000000E+02  0.51100000000E-03 0. -1.
    9900012    2    1    2    0    0 -0.29743536718E+02 -0.13451111952E+01 -0.31577450104E+02  0.47787278166E+02  0.20000032471E+02 0.  0.
        -12    1    1    2    0    0  0.29743536718E+02  0.13451111952E+01  0.31577450104E+02  0.43400721834E+02  0.00000000000E+00 0.  1.
         11    1    3    3    0    0 -0.27472621801E+02 -0.54497341501E+01 -0.23279576200E+02  0.36419544468E+02  0.51100000000E-03 0. -1.
        -11    1    3    3    0    0 -0.38068338746E+01  0.18001268977E+01 -0.72934048296E+01  0.84217691292E+01  0.51100000000E-03 0.  1.
         12    1    3    3    0    0  0.15359189576E+01  0.23044960572E+01 -0.10044690745E+01  0.29459645693E+01  0.00000000000E+00 0. -1.
</event>
<event>
 7    1  0.2294216E-010  0.4778727E+02  0.7816164E-02  0.1312668E+00
        -11   -1    0    0    0    0  0.00000000000E+00  0.00000000000E+00  0.45593999997E+02  0.45594000000E+02  0.51100000000E-03 0. -1.
         11   -1    0    0    0    0 -0.00000000000E+00 -0.00000000000E+00 -0.45593999997E+02  0.45594000000E+02  0.51100000000E-03 0.  1.
    9900012    2    1    2    0    0 -0.32900702480E+02  0.24957454191E+02  0.13352623714E+02  0.47787270704E+02  0.19999998449E+02 0.  0.
        -12    1    1    2    0    0  0.32900702480E+02 -0.24957454191E+02 -0.13352623714E+02  0.43400729296E+02  0.00000000000E+00 0.  1.
         11    1    3    3    0    0  0.10826620664E+01 -0.47796286017E+00  0.14210082717E+01  0.18492891648E+01  0.51100000000E-03 0. -1.
        -11    1    3    3    0    0 -0.17620888227E+02  0.54426285832E+01  0.35786233998E+01  0.18786283653E+02  0.51100000000E-03 0.  1.
        -12    1    3    3    0    0 -0.16362476319E+02  0.19992788468E+02  0.83529920420E+01  0.27151697886E+02  0.00000000000E+00 0.  1.
</event>
<event>
 7    1  0.2294216E-010  0.4778728E+02  0.7816164E-02  0.1312668E+00
        -11   -1    0    0    0    0  0.00000000000E+00  0.00000000000E+00  0.45593999997E+02  0.45594000000E+02  0.51100000000E-03 0.  1.
         11   -1    0    0    0    0 -0.00000000000E+00 -0.00000000000E+00 -0.45593999997E+02  0.45594000000E+02  0.51100000000E-03 0. -1.
    9900012    2    1    2    0    0 -0.38633640113E+02 -0.17434819683E+02 -0.93322946245E+01  0.47787276403E+02  0.20000024431E+02 0.  0.
        -12    1    1    2    0    0  0.38633640113E+02  0.17434819683E+02  0.93322946245E+01  0.43400723597E+02  0.00000000000E+00 0.  1.
         11    1    3    3    0    0 -0.65711310788E+01 -0.49987570032E+01 -0.16270111140E+01  0.84151352133E+01  0.51100000000E-03 0. -1.
        -11    1    3    3    0    0 -0.90191668046E+00 -0.33619194745E+01 -0.59208160013E+01  0.68681888904E+01  0.51100000000E-03 0.  1.
        -12    1    3    3    0    0 -0.31160592354E+02 -0.90741432053E+01 -0.17844675092E+01  0.32503952299E+02  0.00000000000E+00 0.  1.
</event>
<event>
 7    1  0.2294216E-010  0.4778727E+02  0.7816164E-02  0.1312668E+00
        -11   -1    0    0    0    0  0.00000000000E+00  0.00000000000E+00  0.45593999997E+02  0.45594000000E+02  0.51100000000E-03 0.  1.
         11   -1    0    0    0    0 -0.00000000000E+00 -0.00000000000E+00 -0.45593999997E+02  0.45594000000E+02  0.51100000000E-03 0. -1.
    9900012    2    1    2    0    0 -0.39316772552E+02 -0.79779802484E+01 -0.16557972447E+02  0.47787271616E+02  0.20000002605E+02 0.  0.
        -12    1    1    2    0    0  0.39316772552E+02  0.79779802484E+01  0.16557972447E+02  0.43400728384E+02  0.00000000000E+00 0.  1.
         11    1    3    3    0    0 -0.88572927902E+01  0.21829748872E+01 -0.47582397843E+01  0.10288724947E+02  0.51100000000E-03 0. -1.
        -11    1    3    3    0    0 -0.24117962822E+01  0.11013658070E+01  0.28656929094E+01  0.39040958057E+01  0.51100000000E-03 0.  1.
        -12    1    3    3    0    0 -0.28047683479E+02 -0.11262320943E+02 -0.14665425572E+02  0.33594450863E+02  0.00000000000E+00 0.  1.
</event>
<event>
 7    1  0.2294216E-010  0.4778728E+02  0.7816164E-02  0.1312668E+00
        -11   -1    0    0    0    0  0.00000000000E+00  0.00000000000E+00  0.45593999997E+02  0.45594000000E+02  0.51100000000E-03 0.  1.
         11   -1    0    0    0    0 -0.00000000000E+00 -0.00000000000E+00 -0.45593999997E+02  0.45594000000E+02  0.51100000000E-03 0. -1.
    9900012    2    1    2    0    0 -0.19545698987E+02  0.32694118555E+02 -0.20801032207E+02  0.47787277910E+02  0.20000031304E+02 0.  0.
        -12    1    1    2    0    0  0.19545698987E+02 -0.32694118555E+02  0.20801032207E+02  0.43400722090E+02  0.00000000000E+00 0.  1.
         11    1    3    3    0    0  0.18652954555E+01  0.48908797487E+00 -0.15334666720E+01  0.24637480550E+01  0.51100000000E-03 0. -1.
        -11    1    3    3    0    0  0.14886285982E+01  0.39991729556E+00  0.21576632733E+00  0.15564396281E+01  0.51100000000E-03 0.  1.
        -12    1    3    3    0    0 -0.22899623041E+02  0.31805113285E+02 -0.19483331862E+02  0.43767090227E+02  0.00000000000E+00 0.  1.
</event>
<event>
 7    1  0.2294216E-010  0.4778727E+02  0.7816164E-02  0.1312668E+00
        -11   -1    0    0    0    0  0.00000000000E+00  0.00000000000E+00  0.45593999997E+02  0.45594000000E+02  0.51100000000E-03 0.  1.
         11   -1    0    0    0    0 -0.00000000000E+00 -0.00000000000E+00 -0.45593999997E+02  0.45594000000E+02  0.51100000000E-03 0. -1.
    9900012    2    1    2    0    0 -0.78257618712E+00  0.15754723470E+00 -0.43393388184E+02  0.47787269768E+02  0.19999994179E+02 0.  0.
        -12    1    1    2    0    0  0.78257618712E+00 -0.15754723470E+00  0.43393388184E+02  0.43400730232E+02  0.00000000000E+00 0.  1.
         11    1    3    3    0    0  0.21632211329E+01  0.27857028001E+01 -0.15973303869E+02  0.16358059252E+02  0.51100000000E-03 0. -1.
        -11    1    3    3    0    0 -0.34552900712E+01 -0.54988541443E+01 -0.27745612184E+02  0.28495533371E+02  0.51100000000E-03 0.  1.
        -12    1    3    3    0    0  0.50949275122E+00  0.28706985790E+01  0.32552786856E+00  0.29336771445E+01  0.00000000000E+00 0.  1.
</event>
<event>
 7    1  0.2294216E-010  0.4778727E+02  0.7816164E-02  0.1312668E+00
        -11   -1    0    0    0    0  0.00000000000E+00  0.00000000000E+00  0.45593999997E+02  0.45594000000E+02  0.51100000000E-03 0.  1.
         11   -1    0    0    0    0 -0.00000000000E+00 -0.00000000000E+00 -0.45593999997E+02  0.45594000000E+02  0.51100000000E-03 0. -1.
    9900012    2    1    2    0    0  0.10684611630E+02 -0.33800785204E+02 -0.25039355374E+02  0.47787270471E+02  0.19999997386E+02 0.  0.
        -12    1    1    2    0    0 -0.10684611630E+02  0.33800785204E+02  0.25039355374E+02  0.43400729529E+02  0.00000000000E+00 0.  1.
         11    1    3    3    0    0  0.85839678140E+00 -0.14274992469E+02 -0.10338270572E+02  0.17646305384E+02  0.51100000000E-03 0. -1.
        -11    1    3    3    0    0  0.63533413639E+00 -0.16220105689E+02 -0.11381090866E+02  0.19824850758E+02  0.51100000000E-03 0.  1.
        -12    1    3    3    0    0  0.91908807122E+01 -0.33056870458E+01 -0.33199939370E+01  0.10316114329E+02  0.00000000000E+00 0.  1.
</event>
<event>
 7    1  0.2294216E-010  0.4778727E+02  0.7816164E-02  0.1312668E+00
        -11   -1    0    0    0    0  0.00000000000E+00  0.00000000000E+00  0.45593999997E+02  0.45594000000E+02  0.51100000000E-03 0.  1.
         11   -1    0    0    0    0 -0.00000000000E+00 -0.00000000000E+00 -0.45593999997E+02  0.45594000000E+02  0.51100000000E-03 0. -1.
    9900012    2    1    2    0    0 -0.40340125757E+02  0.16008493649E+02  0.15964988989E+00  0.47787273012E+02  0.20000008971E+02 0.  0.
        -12    1    1    2    0    0  0.40340125757E+02 -0.16008493649E+02 -0.15964988989E+00  0.43400726988E+02  0.00000000000E+00 0.  1.
         11    1    3    3    0    0 -0.17436140803E+02  0.20238833704E+01  0.47703346424E+01  0.18189865388E+02  0.51100000000E-03 0. -1.
        -11    1    3    3    0    0 -0.40367257412E+01 -0.15990238171E+01 -0.25608727157E+01  0.50408433029E+01  0.51100000000E-03 0.  1.
        -12    1    3    3    0    0 -0.18867259213E+02  0.15583634096E+02 -0.20498120368E+01  0.24556564321E+02  0.00000000000E+00 0.  1.
</event>
<event>
 7    1  0.2294216E-010  0.4778728E+02  0.7816164E-02  0.1312668E+00
        -11   -1    0    0    0    0  0.00000000000E+00  0.00000000000E+00  0.45593999997E+02  0.45594000000E+02  0.51100000000E-03 0. -1.
         11   -1    0    0    0    0 -0.00000000000E+00 -0.00000000000E+00 -0.45593999997E+02  0.45594000000E+02  0.51100000000E-03 0.  1.
    9900012    2    1    2    0    0 -0.18899048275E+02 -0.37616488302E+02  0.10556921220E+02  0.47787276463E+02  0.20000024704E+02 0.  0.
        -12    1    1    2    0    0  0.18899048275E+02  0.37616488302E+02 -0.10556921220E+02  0.43400723537E+02  0.00000000000E+00 0.  1.
         11    1    3    3    0    0 -0.41925223536E+00 -0.12883868276E+02 -0.17646363894E+01  0.13010909885E+02  0.51100000000E-03 0.  1.
        -11    1    3    3    0    0 -0.13332925542E+01 -0.54409741174E+01  0.59889776641E+01  0.82005927898E+01  0.51100000000E-03 0. -1.
        -12    1    3    3    0    0 -0.17146503486E+02 -0.19291645909E+02  0.63325799458E+01  0.26575773788E+02  0.00000000000E+00 0.  1.
</event>
<event>
 7    1  0.2294216E-010  0.4778727E+02  0.7816164E-02  0.1312668E+00
        -11   -1    0    0    0    0  0.00000000000E+00  0.00000000000E+00  0.45593999997E+02  0.45594000000E+02  0.51100000000E-03 0. -1.
         11   -1    0    0    0    0 -0.00000000000E+00 -0.00000000000E+00 -0.45593999997E+02  0.45594000000E+02  0.51100000000E-03 0.  1.
    9900012    2    1    2    0    0 -0.18162114721E+02  0.33209116177E+02  0.21234763384E+02  0.47787274380E+02  0.20000015209E+02 0.  0.
        -12    1    1    2    0    0  0.18162114721E+02 -0.33209116177E+02 -0.21234763384E+02  0.43400725620E+02  0.00000000000E+00 0.  1.
         11    1    3    3    0    0 -0.87031771662E+01  0.21134905921E+02  0.71712606996E+01  0.23955302573E+02  0.51100000000E-03 0.  1.
        -11    1    3    3    0    0 -0.78677845916E+01  0.13238820223E+02  0.77950129076E+01  0.17260666898E+02  0.51100000000E-03 0. -1.
        -12    1    3    3    0    0 -0.15911529627E+01 -0.11646099673E+01  0.62684897769E+01  0.65713049092E+01  0.00000000000E+00 0.  1.
</event>
<event>
 7    1  0.2294216E-010  0.4778727E+02  0.7816164E-02  0.1312668E+00
        -11   -1    0    0    0    0  0.00000000000E+00  0.00000000000E+00  0.45593999997E+02  0.45594000000E+02  0.51100000000E-03 0.  1.
         11   -1    0    0    0    0 -0.00000000000E+00 -0.00000000000E+00 -0.45593999997E+02  0.45594000000E+02  0.51100000000E-03 0. -1.
    9900012    2    1    2    0    0 -0.28939230669E+00  0.43260842359E+02 -0.34697196778E+01  0.47787272078E+02  0.20000004712E+02 0.  0.
        -12    1    1    2    0    0  0.28939230669E+00 -0.43260842359E+02  0.34697196778E+01  0.43400727922E+02  0.00000000000E+00 0.  1.
         11    1    3    3    0    0  0.58900731865E+00  0.16199327315E+01 -0.31984740830E+01  0.36333659872E+01  0.51100000000E-03 0. -1.
        -11    1    3    3    0    0  0.17169080075E+01  0.81218679901E-01  0.17647997897E+01  0.24635113434E+01  0.51100000000E-03 0.  1.
        -12    1    3    3    0    0 -0.25953076328E+01  0.41559690948E+02 -0.20360453845E+01  0.41690394747E+02  0.00000000000E+00 0.  1.
</event>
<event>
 7    1  0.2294216E-010  0.4778727E+02  0.7816164E-02  0.1312668E+00
        -11   -1    0    0    0    0  0.00000000000E+00  0.00000000000E+00  0.45593999997E+02  0.45594000000E+02  0.51100000000E-03 0.  1.
         11   -1    0    0    0    0 -0.00000000000E+00 -0.00000000000E+00 -0.45593999997E+02  0.45594000000E+02  0.51100000000E-03 0. -1.
    9900012    2    1    2    0    0 -0.82703722515E+01 -0.28302795425E+02 -0.31846126838E+02  0.47787273271E+02  0.20000010153E+02 0.  0.
        -12    1    1    2    0    0  0.82703722515E+01  0.28302795425E+02  0.31846126838E+02  0.43400726729E+02  0.00000000000E+00 0.  1.
         11    1    3    3    0    0 -0.78668894370E+01 -0.10903760627E+02 -0.19293825718E+02  0.23516625105E+02  0.51100000000E-03 0. -1.
        -11    1    3    3    0    0 -0.30929523446E+01  0.70512420387E-01 -0.20313327406E+01  0.37010321765E+01  0.51100000000E-03 0.  1.
         12    1    3    3    0    0  0.26894695301E+01 -0.17469547218E+02 -0.10520968379E+02  0.20569615990E+02  0.00000000000E+00 0. -1.
</event>
<event>
 7    1  0.2294216E-010  0.4778727E+02  0.7816164E-02  0.1312668E+00
        -11   -1    0    0    0    0  0.00000000000E+00  0.00000000000E+00  0.45593999997E+02  0.45594000000E+02  0.51100000000E-03 0.  1.
         11   -1    0    0    0    0 -0.00000000000E+00 -0.00000000000E+00 -0.45593999997E+02  0.45594000000E+02  0.51100000000E-03 0. -1.
    9900012    2    1    2    0    0  0.20225242865E+01 -0.42540204541E+02 -0.83584408581E+01  0.47787272581E+02  0.20000007007E+02 0.  0.
        -12    1    1    2    0    0 -0.20225242865E+01  0.42540204541E+02  0.83584408581E+01  0.43400727419E+02  0.00000000000E+00 0.  1.
         11    1    3    3    0    0  0.86066265844E+01 -0.91192946503E+01 -0.40184241899E+00  0.12545797451E+02  0.51100000000E-03 0. -1.
        -11    1    3    3    0    0 -0.59800488252E+00 -0.83742369156E+01 -0.40634634767E+00  0.84053894242E+01  0.51100000000E-03 0.  1.
         12    1    3    3    0    0 -0.59860974153E+01 -0.25046672975E+02 -0.75502520914E+01  0.26836085706E+02  0.00000000000E+00 0. -1.
</event>
<event>
 7    1  0.2294216E-010  0.4778727E+02  0.7816164E-02  0.1312668E+00
        -11   -1    0    0    0    0  0.00000000000E+00  0.00000000000E+00  0.45593999997E+02  0.45594000000E+02  0.51100000000E-03 0. -1.
         11   -1    0    0    0    0 -0.00000000000E+00 -0.00000000000E+00 -0.45593999997E+02  0.45594000000E+02  0.51100000000E-03 0.  1.
    9900012    2    1    2    0    0  0.21358558597E+02 -0.33547324198E+02  0.17378501946E+02  0.47787270559E+02  0.19999997785E+02 0.  0.
        -12    1    1    2    0    0 -0.21358558597E+02  0.33547324198E+02 -0.17378501946E+02  0.43400729441E+02  0.00000000000E+00 0.  1.
         11    1    3    3    0    0  0.59712851597E+01 -0.69774646754E+01 -0.19865751406E+01  0.93961556397E+01  0.51100000000E-03 0. -1.
        -11    1    3    3    0    0  0.72062255248E+01 -0.25625047937E+01  0.30511939388E+01  0.82344339117E+01  0.51100000000E-03 0.  1.
         12    1    3    3    0    0  0.81810479122E+01 -0.24007354729E+02  0.16313883148E+02  0.30156681007E+02  0.00000000000E+00 0. -1.
</event>
<event>
 7    1  0.2294216E-010  0.4778730E+02  0.7816164E-02  0.1312668E+00
        -11   -1    0    0    0    0  0.00000000000E+00  0.00000000000E+00  0.45593999997E+02  0.45594000000E+02  0.51100000000E-03 0. -1.
         11   -1    0    0    0    0 -0.00000000000E+00 -0.00000000000E+00 -0.45593999997E+02  0.45594000000E+02  0.51100000000E-03 0.  1.
    9900012    2    1    2    0    0  0.18516936024E+02  0.37404425949E+02  0.11901790188E+02  0.47787301734E+02  0.20000139927E+02 0.  0.
        -12    1    1    2    0    0 -0.18516936024E+02 -0.37404425949E+02 -0.11901790188E+02  0.43400698266E+02  0.00000000000E+00 0.  1.
         11    1    3    3    0    0  0.92270312678E+00  0.15424571681E+02  0.18783555168E+00  0.15453286869E+02  0.51100000000E-03 0. -1.
        -11    1    3    3    0    0  0.60697921086E+00  0.43142608118E+01  0.55629552256E+01  0.70659564970E+01  0.51100000000E-03 0.  1.
        -12    1    3    3    0    0  0.16987253686E+02  0.17665593456E+02  0.61509994112E+01  0.25268058368E+02  0.00000000000E+00 0.  1.
</event>
<event>
 7    1  0.2294216E-010  0.4778727E+02  0.7816164E-02  0.1312668E+00
        -11   -1    0    0    0    0  0.00000000000E+00  0.00000000000E+00  0.45593999997E+02  0.45594000000E+02  0.51100000000E-03 0. -1.
         11   -1    0    0    0    0 -0.00000000000E+00 -0.00000000000E+00 -0.45593999997E+02  0.45594000000E+02  0.51100000000E-03 0.  1.
    9900012    2    1    2    0    0  0.17492947796E+02 -0.39633200525E+02  0.26133031345E+01  0.47787272359E+02  0.20000005996E+02 0.  0.
        -12    1    1    2    0    0 -0.17492947796E+02  0.39633200525E+02 -0.26133031345E+01  0.43400727641E+02  0.00000000000E+00 0.  1.
         11    1    3    3    0    0  0.58291520750E+01 -0.43425696373E+01  0.37359407809E+01  0.81727705674E+01  0.51100000000E-03 0. -1.
        -11    1    3    3    0    0 -0.18665110051E+01 -0.54429658606E+01 -0.35373475360E+01  0.67544480561E+01  0.51100000000E-03 0.  1.
         12    1    3    3    0    0  0.13530306726E+02 -0.29847665027E+02  0.24147098896E+01  0.32860053736E+02  0.00000000000E+00 0. -1.
</event>
<event>
 7    1  0.2294216E-010  0.4778727E+02  0.7816164E-02  0.1312668E+00
        -11   -1    0    0    0    0  0.00000000000E+00  0.00000000000E+00  0.45593999997E+02  0.45594000000E+02  0.51100000000E-03 0.  1.
         11   -1    0    0    0    0 -0.00000000000E+00 -0.00000000000E+00 -0.45593999997E+02  0.45594000000E+02  0.51100000000E-03 0. -1.
    9900012    2    1    2    0    0 -0.25618747021E+02  0.22300295479E+02  0.27018514323E+02  0.47787268513E+02  0.19999988459E+02 0.  0.
        -12    1    1    2    0    0  0.25618747021E+02 -0.22300295479E+02 -0.27018514323E+02  0.43400731487E+02  0.00000000000E+00 0.  1.
         11    1    3    3    0    0 -0.44508487496E+01  0.77267019827E+01  0.72093877483E+00  0.89460455565E+01  0.51100000000E-03 0. -1.
        -11    1    3    3    0    0 -0.15655270100E+01 -0.21914383969E+01  0.16144542471E+01  0.31400222680E+01  0.51100000000E-03 0.  1.
         12    1    3    3    0    0 -0.19602371261E+02  0.16765031894E+02  0.24683121301E+02  0.35701200689E+02  0.00000000000E+00 0. -1.
</event>
<event>
 7    1  0.2294216E-010  0.4778727E+02  0.7816164E-02  0.1312668E+00
        -11   -1    0    0    0    0  0.00000000000E+00  0.00000000000E+00  0.45593999997E+02  0.45594000000E+02  0.51100000000E-03 0.  1.
         11   -1    0    0    0    0 -0.00000000000E+00 -0.00000000000E+00 -0.45593999997E+02  0.45594000000E+02  0.51100000000E-03 0. -1.
    9900012    2    1    2    0    0 -0.21094176271E+02  0.37626955161E+02 -0.47823994727E+01  0.47787269914E+02  0.19999994846E+02 0.  0.
        -12    1    1    2    0    0  0.21094176271E+02 -0.37626955161E+02  0.47823994727E+01  0.43400730086E+02  0.00000000000E+00 0.  1.
         11    1    3    3    0    0 -0.80781362420E+01  0.17536895463E+02  0.16905072870E+01  0.19381867886E+02  0.51100000000E-03 0.  1.
        -11    1    3    3    0    0 -0.87027433515E+01  0.20715950597E+02 -0.79018914532E+01  0.23818653190E+02  0.51100000000E-03 0. -1.
        -12    1    3    3    0    0 -0.43132966778E+01 -0.62589089826E+00  0.14289846936E+01  0.45867488378E+01  0.00000000000E+00 0.  1.
</event>
<event>
 7    1  0.2294216E-010  0.4778726E+02  0.7816164E-02  0.1312668E+00
        -11   -1    0    0    0    0  0.00000000000E+00  0.00000000000E+00  0.45593999997E+02  0.45594000000E+02  0.51100000000E-03 0.  1.
         11   -1    0    0    0    0 -0.00000000000E+00 -0.00000000000E+00 -0.45593999997E+02  0.45594000000E+02  0.51100000000E-03 0. -1.
    9900012    2    1    2    0    0  0.16484006020E+02 -0.23995478671E+02 -0.32188796478E+02  0.47787261875E+02  0.19999958193E+02 0.  0.
        -12    1    1    2    0    0 -0.16484006020E+02  0.23995478671E+02  0.32188796478E+02  0.43400738125E+02  0.00000000000E+00 0.  1.
         11    1    3    3    0    0  0.97934432119E+01 -0.90404559971E+01 -0.11137472474E+02  0.17369072167E+02  0.51100000000E-03 0. -1.
        -11    1    3    3    0    0  0.20353703454E+01  0.15242786686E+01  0.79137277719E+00  0.26631614739E+01  0.51100000000E-03 0.  1.
         12    1    3    3    0    0  0.46551924628E+01 -0.16479301342E+02 -0.21842696781E+02  0.27755028234E+02  0.00000000000E+00 0. -1.
</event>
<event>
 7    1  0.2294216E-010  0.4778726E+02  0.7816164E-02  0.1312668E+00
        -11   -1    0    0    0    0  0.00000000000E+00  0.00000000000E+00  0.45593999997E+02  0.45594000000E+02  0.51100000000E-03 0. -1.
         11   -1    0    0    0    0 -0.00000000000E+00 -0.00000000000E+00 -0.45593999997E+02  0.45594000000E+02  0.51100000000E-03 0.  1.
    9900012    2    1    2    0    0  0.14494232419E+02  0.37947133531E+02  0.15282548152E+02  0.47787262741E+02  0.19999962140E+02 0.  0.
        -12    1    1    2    0    0 -0.14494232419E+02 -0.37947133531E+02 -0.15282548152E+02  0.43400737259E+02  0.00000000000E+00 0.  1.
         11    1    3    3    0    0  0.42052710909E+01  0.18325739011E+01 -0.19322781302E+01  0.49775828556E+01  0.51100000000E-03 0. -1.
        -11    1    3    3    0    0  0.58048203976E+01  0.63847355368E+01  0.11047496113E+01  0.86994976687E+01  0.51100000000E-03 0.  1.
         12    1    3    3    0    0  0.44841409307E+01  0.29729824093E+02  0.16110076670E+02  0.34110182216E+02  0.00000000000E+00 0. -1.
</event>
<event>
 7    1  0.2294216E-010  0.4778726E+02  0.7816164E-02  0.1312668E+00
        -11   -1    0    0    0    0  0.00000000000E+00  0.00000000000E+00  0.45593999997E+02  0.45594000000E+02  0.51100000000E-03 0. -1.
         11   -1    0    0    0    0 -0.00000000000E+00 -0.00000000000E+00 -0.45593999997E+02  0.45594000000E+02  0.51100000000E-03 0.  1.
    9900012    2    1    2    0    0 -0.35634981934E+02 -0.21288031913E+02  0.12672480664E+02  0.47787262606E+02  0.19999961525E+02 0.  0.
        -12    1    1    2    0    0  0.35634981934E+02  0.21288031913E+02 -0.12672480664E+02  0.43400737394E+02  0.00000000000E+00 0.  1.
         11    1    3    3    0    0 -0.98352963506E+01 -0.58567937434E+01  0.17327169512E+01  0.11577452032E+02  0.51100000000E-03 0. -1.
        -11    1    3    3    0    0 -0.11930697091E+02  0.13893053274E+01  0.45811019043E+00  0.12020048568E+02  0.51100000000E-03 0.  1.
        -12    1    3    3    0    0 -0.13868988493E+02 -0.16820543497E+02  0.10481653522E+02  0.24189762006E+02  0.00000000000E+00 0.  1.
</event>
<event>
 7    1  0.2294216E-010  0.4778727E+02  0.7816164E-02  0.1312668E+00
        -11   -1    0    0    0    0  0.00000000000E+00  0.00000000000E+00  0.45593999997E+02  0.45594000000E+02  0.51100000000E-03 0.  1.
         11   -1    0    0    0    0 -0.00000000000E+00 -0.00000000000E+00 -0.45593999997E+02  0.45594000000E+02  0.51100000000E-03 0. -1.
    9900012    2    1    2    0    0  0.33025853012E+02 -0.25144823613E+02 -0.12674950517E+02  0.47787268528E+02  0.19999988526E+02 0.  0.
        -12    1    1    2    0    0 -0.33025853012E+02  0.25144823613E+02  0.12674950517E+02  0.43400731472E+02  0.00000000000E+00 0.  1.
         11    1    3    3    0    0  0.15436122225E+02 -0.13439581379E+02 -0.28804685862E+01  0.20668655412E+02  0.51100000000E-03 0. -1.
        -11    1    3    3    0    0  0.16760229232E+02 -0.13861450854E+02 -0.11148896391E+02  0.24440601357E+02  0.51100000000E-03 0.  1.
        -12    1    3    3    0    0  0.82950155448E+00  0.21562086209E+01  0.13544144609E+01  0.26780117582E+01  0.00000000000E+00 0.  1.
</event>
<event>
 7    1  0.2294216E-010  0.4778728E+02  0.7816164E-02  0.1312668E+00
        -11   -1    0    0    0    0  0.00000000000E+00  0.00000000000E+00  0.45593999997E+02  0.45594000000E+02  0.51100000000E-03 0.  1.
         11   -1    0    0    0    0 -0.00000000000E+00 -0.00000000000E+00 -0.45593999997E+02  0.45594000000E+02  0.51100000000E-03 0. -1.
    9900012    2    1    2    0    0  0.21008767245E+02 -0.71290056228E+01 -0.37301898146E+02  0.47787278490E+02  0.20000033947E+02 0.  0.
        -12    1    1    2    0    0 -0.21008767245E+02  0.71290056228E+01  0.37301898146E+02  0.43400721510E+02  0.00000000000E+00 0.  1.
         11    1    3    3    0    0  0.41767685964E+01 -0.72452819055E+01 -0.15184125624E+02  0.17334854398E+02  0.51100000000E-03 0. -1.
        -11    1    3    3    0    0  0.24294307918E+01 -0.24029839965E+01  0.56710963821E+00  0.34638244272E+01  0.51100000000E-03 0.  1.
         12    1    3    3    0    0  0.14402567857E+02  0.25192602792E+01 -0.22684882160E+02  0.26988599664E+02  0.00000000000E+00 0. -1.
</event>
<event>
 7    1  0.2294216E-010  0.4778726E+02  0.7816164E-02  0.1312668E+00
        -11   -1    0    0    0    0  0.00000000000E+00  0.00000000000E+00  0.45593999997E+02  0.45594000000E+02  0.51100000000E-03 0.  1.
         11   -1    0    0    0    0 -0.00000000000E+00 -0.00000000000E+00 -0.45593999997E+02  0.45594000000E+02  0.51100000000E-03 0. -1.
    9900012    2    1    2    0    0 -0.29329695712E+02  0.25848713540E+02 -0.18847744564E+02  0.47787256719E+02  0.19999934683E+02 0.  0.
        -12    1    1    2    0    0  0.29329695712E+02 -0.25848713540E+02  0.18847744564E+02  0.43400743281E+02  0.00000000000E+00 0.  1.
         11    1    3    3    0    0 -0.14561300449E+02  0.89601180516E+01 -0.15552158384E+02  0.23112438576E+02  0.51100000000E-03 0. -1.
        -11    1    3    3    0    0 -0.25936654363E+01 -0.80441812188E+00  0.75613568155E+00  0.28188526638E+01  0.51100000000E-03 0.  1.
         12    1    3    3    0    0 -0.12174729826E+02  0.17693013611E+02 -0.40517218610E+01  0.21855965479E+02  0.00000000000E+00 0. -1.
</event>
<event>
 7    1  0.2294216E-010  0.4778727E+02  0.7816164E-02  0.1312668E+00
        -11   -1    0    0    0    0  0.00000000000E+00  0.00000000000E+00  0.45593999997E+02  0.45594000000E+02  0.51100000000E-03 0. -1.
         11   -1    0    0    0    0 -0.00000000000E+00 -0.00000000000E+00 -0.45593999997E+02  0.45594000000E+02  0.51100000000E-03 0.  1.
    9900012    2    1    2    0    0 -0.28939721723E+02  0.27799822454E+02  0.16531352833E+02  0.47787271338E+02  0.20000001338E+02 0.  0.
        -12    1    1    2    0    0  0.28939721723E+02 -0.27799822454E+02 -0.16531352833E+02  0.43400728662E+02  0.00000000000E+00 0.  1.
         11    1    3    3    0    0  0.11799175813E+01  0.31793032049E+01 -0.12351702482E+01  0.36091301127E+01  0.51100000000E-03 0. -1.
        -11    1    3    3    0    0 -0.28479429562E+01 -0.52149798230E+00  0.32327687743E+01  0.43397619101E+01  0.51100000000E-03 0.  1.
         12    1    3    3    0    0 -0.27271696348E+02  0.25142017232E+02  0.14533754307E+02  0.39838379315E+02  0.00000000000E+00 0. -1.
</event>
<event>
 7    1  0.2294216E-010  0.4778726E+02  0.7816164E-02  0.1312668E+00
        -11   -1    0    0    0    0  0.00000000000E+00  0.00000000000E+00  0.45593999997E+02  0.45594000000E+02  0.51100000000E-03 0.  1.
         11   -1    0    0    0    0 -0.00000000000E+00 -0.00000000000E+00 -0.45593999997E+02  0.45594000000E+02  0.51100000000E-03 0. -1.
    9900012    2    1    2    0    0  0.31901407551E+02  0.22269074827E+02 -0.19235719516E+02  0.47787258040E+02  0.19999940708E+02 0.  0.
        -12    1    1    2    0    0 -0.31901407551E+02 -0.22269074827E+02  0.19235719516E+02  0.43400741960E+02  0.00000000000E+00 0.  1.
         11    1    3    3    0    0  0.67927109598E+01  0.68264036846E+01 -0.28536211805E+01  0.10044095955E+02  0.51100000000E-03 0. -1.
        -11    1    3    3    0    0  0.57264457170E+01 -0.30863219261E+01 -0.64160439056E+01  0.91369132228E+01  0.51100000000E-03 0.  1.
        -12    1    3    3    0    0  0.19382250874E+02  0.18528993068E+02 -0.99660544296E+01  0.28606248862E+02  0.00000000000E+00 0.  1.
</event>
<event>
 7    1  0.2294216E-010  0.4778726E+02  0.7816164E-02  0.1312668E+00
        -11   -1    0    0    0    0  0.00000000000E+00  0.00000000000E+00  0.45593999997E+02  0.45594000000E+02  0.51100000000E-03 0. -1.
         11   -1    0    0    0    0 -0.00000000000E+00 -0.00000000000E+00 -0.45593999997E+02  0.45594000000E+02  0.51100000000E-03 0.  1.
    9900012    2    1    2    0    0 -0.79641368906E+01  0.35954979391E+02  0.22965970338E+02  0.47787264834E+02  0.19999971685E+02 0.  0.
        -12    1    1    2    0    0  0.79641368906E+01 -0.35954979391E+02 -0.22965970338E+02  0.43400735166E+02  0.00000000000E+00 0.  1.
         11    1    3    3    0    0 -0.24615777777E+01  0.40395744372E+00  0.35574761228E+01  0.43449031516E+01  0.51100000000E-03 0. -1.
        -11    1    3    3    0    0 -0.17017343607E+01  0.49331782288E+01 -0.23150865439E+01  0.57089204968E+01  0.51100000000E-03 0.  1.
        -12    1    3    3    0    0 -0.38008247522E+01  0.30617843718E+02  0.21723580759E+02  0.37733441186E+02  0.00000000000E+00 0.  1.
</event>
<event>
 7    1  0.2294216E-010  0.4778729E+02  0.7816164E-02  0.1312668E+00
        -11   -1    0    0    0    0  0.00000000000E+00  0.00000000000E+00  0.45593999997E+02  0.45594000000E+02  0.51100000000E-03 0.  1.
         11   -1    0    0    0    0 -0.00000000000E+00 -0.00000000000E+00 -0.45593999997E+02  0.45594000000E+02  0.51100000000E-03 0. -1.
    9900012    2    1    2    0    0  0.28939766689E+02 -0.22463702857E+02 -0.23270012423E+02  0.47787291248E+02  0.20000092114E+02 0.  0.
        -12    1    1    2    0    0 -0.28939766689E+02  0.22463702857E+02  0.23270012423E+02  0.43400708752E+02  0.00000000000E+00 0.  1.
         11    1    3    3    0    0  0.19165471648E+02 -0.86428387789E+01 -0.68533856896E+01  0.22112956865E+02  0.51100000000E-03 0.  1.
        -11    1    3    3    0    0  0.11588436998E+02 -0.97338226289E+01 -0.11353608509E+02  0.18919397492E+02  0.51100000000E-03 0. -1.
         12    1    3    3    0    0 -0.18141419575E+01 -0.40870414490E+01 -0.50630182243E+01  0.67549368900E+01  0.00000000000E+00 0. -1.
</event>
<event>
 7    1  0.2294216E-010  0.4778727E+02  0.7816164E-02  0.1312668E+00
        -11   -1    0    0    0    0  0.00000000000E+00  0.00000000000E+00  0.45593999997E+02  0.45594000000E+02  0.51100000000E-03 0. -1.
         11   -1    0    0    0    0 -0.00000000000E+00 -0.00000000000E+00 -0.45593999997E+02  0.45594000000E+02  0.51100000000E-03 0.  1.
    9900012    2    1    2    0    0 -0.18147676470E+02 -0.13641514242E+02  0.36989105525E+02  0.47787274204E+02  0.20000014405E+02 0.  0.
        -12    1    1    2    0    0  0.18147676470E+02  0.13641514242E+02 -0.36989105525E+02  0.43400725796E+02  0.00000000000E+00 0.  1.
         11    1    3    3    0    0 -0.75544744207E+01 -0.77049633201E+01  0.17053799288E+02  0.20180897254E+02  0.51100000000E-03 0. -1.
        -11    1    3    3    0    0 -0.55459216314E+01 -0.10728934842E+02  0.11582150852E+02  0.16733604161E+02  0.51100000000E-03 0.  1.
        -12    1    3    3    0    0 -0.50472804182E+01  0.47923839196E+01  0.83531553846E+01  0.10872772789E+02  0.00000000000E+00 0.  1.
</event>
<event>
 7    1  0.2294216E-010  0.4778724E+02  0.7816164E-02  0.1312668E+00
        -11   -1    0    0    0    0  0.00000000000E+00  0.00000000000E+00  0.45593999997E+02  0.45594000000E+02  0.51100000000E-03 0.  1.
         11   -1    0    0    0    0 -0.00000000000E+00 -0.00000000000E+00 -0.45593999997E+02  0.45594000000E+02  0.51100000000E-03 0. -1.
    9900012    2    1    2    0    0 -0.16062997015E+02 -0.63419535418E+01 -0.39816907737E+02  0.47787235150E+02  0.19999836342E+02 0.  0.
        -12    1    1    2    0    0  0.16062997015E+02  0.63419535418E+01  0.39816907737E+02  0.43400764850E+02  0.00000000000E+00 0.  1.
         11    1    3    3    0    0 -0.27150197467E+01 -0.25051135102E+01 -0.14946713715E+02  0.15396466382E+02  0.51100000000E-03 0. -1.
        -11    1    3    3    0    0  0.15951655760E+01  0.11391424104E+01 -0.11691158081E+02  0.11854339973E+02  0.51100000000E-03 0.  1.
        -12    1    3    3    0    0 -0.14943142844E+02 -0.49759824420E+01 -0.13179035941E+02  0.20536428795E+02  0.00000000000E+00 0.  1.
</event>
<event>
 7    1  0.2294216E-010  0.4778727E+02  0.7816164E-02  0.1312668E+00
        -11   -1    0    0    0    0  0.00000000000E+00  0.00000000000E+00  0.45593999997E+02  0.45594000000E+02  0.51100000000E-03 0.  1.
         11   -1    0    0    0    0 -0.00000000000E+00 -0.00000000000E+00 -0.45593999997E+02  0.45594000000E+02  0.51100000000E-03 0. -1.
    9900012    2    1    2    0    0 -0.14893434632E+00  0.38366320052E+02 -0.20288581025E+02  0.47787271714E+02  0.20000003052E+02 0.  0.
        -12    1    1    2    0    0  0.14893434632E+00 -0.38366320052E+02  0.20288581025E+02  0.43400728286E+02  0.00000000000E+00 0.  1.
         11    1    3    3    0    0 -0.17455860485E+01  0.27980979017E+01 -0.85198377050E+00  0.34062147799E+01  0.51100000000E-03 0. -1.
        -11    1    3    3    0    0 -0.58174028725E+01  0.12134231342E+02 -0.13571802552E+02  0.19112183842E+02  0.51100000000E-03 0.  1.
         12    1    3    3    0    0  0.74140545747E+01  0.23433990808E+02 -0.58647947023E+01  0.25268873092E+02  0.00000000000E+00 0. -1.
</event>
<event>
 7    1  0.2294216E-010  0.4778727E+02  0.7816164E-02  0.1312668E+00
        -11   -1    0    0    0    0  0.00000000000E+00  0.00000000000E+00  0.45593999997E+02  0.45594000000E+02  0.51100000000E-03 0. -1.
         11   -1    0    0    0    0 -0.00000000000E+00 -0.00000000000E+00 -0.45593999997E+02  0.45594000000E+02  0.51100000000E-03 0.  1.
    9900012    2    1    2    0    0 -0.94766198432E+01  0.25930133916E+02  0.33487987620E+02  0.47787268630E+02  0.19999988994E+02 0.  0.
        -12    1    1    2    0    0  0.94766198432E+01 -0.25930133916E+02 -0.33487987620E+02  0.43400731370E+02  0.00000000000E+00 0.  1.
         11    1    3    3    0    0  0.30035794978E+01  0.56397393760E+01  0.14091214914E+01  0.65432234921E+01  0.51100000000E-03 0. -1.
        -11    1    3    3    0    0 -0.32597521533E+00  0.47902300292E+01  0.12847756274E+02  0.13715589856E+02  0.51100000000E-03 0.  1.
         12    1    3    3    0    0 -0.12154224126E+02  0.15500164511E+02  0.19231109855E+02  0.27528455282E+02  0.00000000000E+00 0. -1.
</event>
<event>
 7    1  0.2294216E-010  0.4778727E+02  0.7816164E-02  0.1312668E+00
        -11   -1    0    0    0    0  0.00000000000E+00  0.00000000000E+00  0.45593999997E+02  0.45594000000E+02  0.51100000000E-03 0. -1.
         11   -1    0    0    0    0 -0.00000000000E+00 -0.00000000000E+00 -0.45593999997E+02  0.45594000000E+02  0.51100000000E-03 0.  1.
    9900012    2    1    2    0    0  0.33106732439E+02 -0.26331408673E+02  0.97069214941E+01  0.47787272582E+02  0.20000007011E+02 0.  0.
        -12    1    1    2    0    0 -0.33106732439E+02  0.26331408673E+02 -0.97069214941E+01  0.43400727418E+02  0.00000000000E+00 0.  1.
         11    1    3    3    0    0  0.13769002654E+02 -0.14240048483E+02 -0.20680084869E+00  0.19809270096E+02  0.51100000000E-03 0. -1.
        -11    1    3    3    0    0 -0.14498107189E+01 -0.28281445498E+01  0.60961187381E-01  0.31786898626E+01  0.51100000000E-03 0.  1.
         12    1    3    3    0    0  0.20787540505E+02 -0.92632156403E+01  0.98527611554E+01  0.24799312624E+02  0.00000000000E+00 0. -1.
</event>
<event>
 7    1  0.2294216E-010  0.4778727E+02  0.7816164E-02  0.1312668E+00
        -11   -1    0    0    0    0  0.00000000000E+00  0.00000000000E+00  0.45593999997E+02  0.45594000000E+02  0.51100000000E-03 0.  1.
         11   -1    0    0    0    0 -0.00000000000E+00 -0.00000000000E+00 -0.45593999997E+02  0.45594000000E+02  0.51100000000E-03 0. -1.
    9900012    2    1    2    0    0 -0.76577694262E+01  0.45949548182E+01 -0.42471967893E+02  0.47787273058E+02  0.20000009182E+02 0.  0.
        -12    1    1    2    0    0  0.76577694262E+01 -0.45949548182E+01  0.42471967893E+02  0.43400726942E+02  0.00000000000E+00 0.  1.
         11    1    3    3    0    0 -0.22325220459E+01  0.44128284936E+01 -0.23502322981E+02  0.24017002223E+02  0.51100000000E-03 0. -1.
        -11    1    3    3    0    0  0.35790117989E+01  0.31221577799E+01 -0.50400110536E+01  0.69252369158E+01  0.51100000000E-03 0.  1.
         12    1    3    3    0    0 -0.90042591792E+01 -0.29400314552E+01 -0.13929633858E+02  0.16845033919E+02  0.00000000000E+00 0. -1.
</event>
<event>
 7    1  0.2294216E-010  0.4778727E+02  0.7816164E-02  0.1312668E+00
        -11   -1    0    0    0    0  0.00000000000E+00  0.00000000000E+00  0.45593999997E+02  0.45594000000E+02  0.51100000000E-03 0.  1.
         11   -1    0    0    0    0 -0.00000000000E+00 -0.00000000000E+00 -0.45593999997E+02  0.45594000000E+02  0.51100000000E-03 0. -1.
    9900012    2    1    2    0    0  0.22558182699E+02  0.30726740168E+02 -0.20751368565E+02  0.47787268838E+02  0.19999989941E+02 0.  0.
        -12    1    1    2    0    0 -0.22558182699E+02 -0.30726740168E+02  0.20751368565E+02  0.43400731162E+02  0.00000000000E+00 0.  1.
         11    1    3    3    0    0  0.11595691400E+02  0.51171337029E+01  0.52713761274E+00  0.12685542586E+02  0.51100000000E-03 0.  1.
        -11    1    3    3    0    0  0.90836997081E+01  0.19343680508E+02 -0.16005985717E+02  0.26699871816E+02  0.51100000000E-03 0. -1.
        -12    1    3    3    0    0  0.18787915901E+01  0.62659259578E+01 -0.52725204609E+01  0.84018544356E+01  0.00000000000E+00 0.  1.
</event>
<event>
 7    1  0.2294216E-010  0.4778726E+02  0.7816164E-02  0.1312668E+00
        -11   -1    0    0    0    0  0.00000000000E+00  0.00000000000E+00  0.45593999997E+02  0.45594000000E+02  0.51100000000E-03 0.  1.
         11   -1    0    0    0    0 -0.00000000000E+00 -0.00000000000E+00 -0.45593999997E+02  0.45594000000E+02  0.51100000000E-03 0. -1.
    9900012    2    1    2    0    0  0.54510012208E+01  0.32921407487E+02 -0.27750521226E+02  0.47787263675E+02  0.19999966401E+02 0.  0.
        -12    1    1    2    0    0 -0.54510012208E+01 -0.32921407487E+02  0.27750521226E+02  0.43400736325E+02  0.00000000000E+00 0.  1.
         11    1    3    3    0    0  0.91339205975E+01  0.23766440919E+02 -0.17536481365E+02  0.30916021710E+02  0.51100000000E-03 0. -1.
        -11    1    3    3    0    0  0.28296025558E+01  0.12866963736E+01 -0.15292584606E+01  0.34642271695E+01  0.51100000000E-03 0.  1.
        -12    1    3    3    0    0 -0.65125219326E+01  0.78682701942E+01 -0.86847814006E+01  0.13407014796E+02  0.00000000000E+00 0.  1.
</event>
<event>
 7    1  0.2294216E-010  0.4778727E+02  0.7816164E-02  0.1312668E+00
        -11   -1    0    0    0    0  0.00000000000E+00  0.00000000000E+00  0.45593999997E+02  0.45594000000E+02  0.51100000000E-03 0.  1.
         11   -1    0    0    0    0 -0.00000000000E+00 -0.00000000000E+00 -0.45593999997E+02  0.45594000000E+02  0.51100000000E-03 0. -1.
    9900012    2    1    2    0    0  0.23818592305E+02 -0.29138271140E+02 -0.21616176271E+02  0.47787271193E+02  0.20000000678E+02 0.  0.
        -12    1    1    2    0    0 -0.23818592305E+02  0.29138271140E+02  0.21616176271E+02  0.43400728807E+02  0.00000000000E+00 0.  1.
         11    1    3    3    0    0 -0.64728560824E+00 -0.23903775390E+01  0.11100925782E+01  0.27138882127E+01  0.51100000000E-03 0. -1.
        -11    1    3    3    0    0 -0.34070777732E+00 -0.37562613075E+01 -0.66027398341E+01  0.76040617027E+01  0.51100000000E-03 0.  1.
         12    1    3    3    0    0  0.24806585691E+02 -0.22991632293E+02 -0.16123529015E+02  0.37469321278E+02  0.00000000000E+00 0. -1.
</event>
<event>
 7    1  0.2294216E-010  0.4778727E+02  0.7816164E-02  0.1312668E+00
        -11   -1    0    0    0    0  0.00000000000E+00  0.00000000000E+00  0.45593999997E+02  0.45594000000E+02  0.51100000000E-03 0. -1.
         11   -1    0    0    0    0 -0.00000000000E+00 -0.00000000000E+00 -0.45593999997E+02  0.45594000000E+02  0.51100000000E-03 0.  1.
    9900012    2    1    2    0    0  0.23573691131E+02 -0.30953682333E+02  0.19229502700E+02  0.47787272614E+02  0.20000007156E+02 0.  0.
        -12    1    1    2    0    0 -0.23573691131E+02  0.30953682333E+02 -0.19229502700E+02  0.43400727386E+02  0.00000000000E+00 0.  1.
         11    1    3    3    0    0  0.80758364889E+01 -0.57916227129E+01  0.14037541844E+02  0.17199261901E+02  0.51100000000E-03 0. -1.
        -11    1    3    3    0    0  0.19121425775E+01 -0.38028579627E+01  0.29422988550E+01  0.51744700922E+01  0.51100000000E-03 0.  1.
        -12    1    3    3    0    0  0.13585712065E+02 -0.21359201658E+02  0.22496620007E+01  0.25413540621E+02  0.00000000000E+00 0.  1.
</event>
<event>
 7    1  0.2294216E-010  0.4778728E+02  0.7816164E-02  0.1312668E+00
        -11   -1    0    0    0    0  0.00000000000E+00  0.00000000000E+00  0.45593999997E+02  0.45594000000E+02  0.51100000000E-03 0. -1.
         11   -1    0    0    0    0 -0.00000000000E+00 -0.00000000000E+00 -0.45593999997E+02  0.45594000000E+02  0.51100000000E-03 0.  1.
    9900012    2    1    2    0    0 -0.30900003775E+00 -0.38229171300E+02  0.20544031485E+02  0.47787282852E+02  0.20000053834E+02 0.  0.
        -12    1    1    2    0    0  0.30900003775E+00  0.38229171300E+02 -0.20544031485E+02  0.43400717148E+02  0.00000000000E+00 0.  1.
         11    1    3    3    0    0 -0.88776043226E+00  0.97384731028E-01  0.18636075051E+01  0.20665516120E+01  0.51100000000E-03 0. -1.
        -11    1    3    3    0    0  0.58415085068E+01 -0.13876517412E+02  0.99366228404E+00  0.15088681921E+02  0.51100000000E-03 0.  1.
        -12    1    3    3    0    0 -0.52627481123E+01 -0.24450038620E+02  0.17686761696E+02  0.30632049319E+02  0.00000000000E+00 0.  1.
</event>
<event>
 7    1  0.2294216E-010  0.4778727E+02  0.7816164E-02  0.1312668E+00
        -11   -1    0    0    0    0  0.00000000000E+00  0.00000000000E+00  0.45593999997E+02  0.45594000000E+02  0.51100000000E-03 0.  1.
         11   -1    0    0    0    0 -0.00000000000E+00 -0.00000000000E+00 -0.45593999997E+02  0.45594000000E+02  0.51100000000E-03 0. -1.
    9900012    2    1    2    0    0 -0.12501749792E+02  0.28151277347E+02 -0.30575073678E+02  0.47787270806E+02  0.19999998914E+02 0.  0.
        -12    1    1    2    0    0  0.12501749792E+02 -0.28151277347E+02  0.30575073678E+02  0.43400729194E+02  0.00000000000E+00 0.  1.
         11    1    3    3    0    0 -0.97749138128E+01  0.10570708855E+02 -0.13715731302E+02  0.19884921703E+02  0.51100000000E-03 0. -1.
        -11    1    3    3    0    0  0.13166170205E+01 -0.11178058404E+01  0.76677315087E+00  0.18896855828E+01  0.51100000000E-03 0.  1.
         12    1    3    3    0    0 -0.40434530000E+01  0.18698374333E+02 -0.17626115527E+02  0.26012663520E+02  0.00000000000E+00 0. -1.
</event>
<event>
 7    1  0.2294216E-010  0.4778727E+02  0.7816164E-02  0.1312668E+00
        -11   -1    0    0    0    0  0.00000000000E+00  0.00000000000E+00  0.45593999997E+02  0.45594000000E+02  0.51100000000E-03 0.  1.
         11   -1    0    0    0    0 -0.00000000000E+00 -0.00000000000E+00 -0.45593999997E+02  0.45594000000E+02  0.51100000000E-03 0. -1.
    9900012    2    1    2    0    0 -0.19966754453E+02  0.37937351754E+02 -0.67608682123E+01  0.47787270969E+02  0.19999999654E+02 0.  0.
        -12    1    1    2    0    0  0.19966754453E+02 -0.37937351754E+02  0.67608682123E+01  0.43400729031E+02  0.00000000000E+00 0.  1.
         11    1    3    3    0    0 -0.93307842380E+00  0.20683028911E+01 -0.24715399905E+00  0.22824542832E+01  0.51100000000E-03 0. -1.
        -11    1    3    3    0    0  0.12049491453E+01  0.13368651375E+02  0.30524534922E+01  0.13765544472E+02  0.51100000000E-03 0.  1.
         12    1    3    3    0    0 -0.20238625175E+02  0.22500397488E+02 -0.95661677054E+01  0.31739272213E+02  0.00000000000E+00 0. -1.
</event>
<event>
 7    1  0.2294216E-010  0.4778727E+02  0.7816164E-02  0.1312668E+00
        -11   -1    0    0    0    0  0.00000000000E+00  0.00000000000E+00  0.45593999997E+02  0.45594000000E+02  0.51100000000E-03 0.  1.
         11   -1    0    0    0    0 -0.00000000000E+00 -0.00000000000E+00 -0.45593999997E+02  0.45594000000E+02  0.51100000000E-03 0. -1.
    9900012    2    1    2    0    0 -0.37921758227E+02 -0.33040534394E+01 -0.20848181076E+02  0.47787272237E+02  0.20000005437E+02 0.  0.
        -12    1    1    2    0    0  0.37921758227E+02  0.33040534394E+01  0.20848181076E+02  0.43400727763E+02  0.00000000000E+00 0.  1.
         11    1    3    3    0    0 -0.11532461564E+01  0.93927191268E+00 -0.24255380863E+01  0.28452493200E+01  0.51100000000E-03 0. -1.
        -11    1    3    3    0    0 -0.14848383450E+02  0.66439186394E+01 -0.49476194421E+01  0.17002796369E+02  0.51100000000E-03 0.  1.
         12    1    3    3    0    0 -0.21920128621E+02 -0.10887243991E+02 -0.13475023548E+02  0.27939226548E+02  0.00000000000E+00 0. -1.
</event>
<event>
 7    1  0.2294216E-010  0.4778727E+02  0.7816164E-02  0.1312668E+00
        -11   -1    0    0    0    0  0.00000000000E+00  0.00000000000E+00  0.45593999997E+02  0.45594000000E+02  0.51100000000E-03 0. -1.
         11   -1    0    0    0    0 -0.00000000000E+00 -0.00000000000E+00 -0.45593999997E+02  0.45594000000E+02  0.51100000000E-03 0.  1.
    9900012    2    1    2    0    0  0.64893591251E+01  0.42652483125E+02  0.47198958742E+01  0.47787268259E+02  0.19999987300E+02 0.  0.
        -12    1    1    2    0    0 -0.64893591251E+01 -0.42652483125E+02 -0.47198958742E+01  0.43400731741E+02  0.00000000000E+00 0.  1.
         11    1    3    3    0    0  0.32106483781E+01  0.65953720763E+01 -0.25692171797E+00  0.73398368417E+01  0.51100000000E-03 0. -1.
        -11    1    3    3    0    0  0.70778761051E+01  0.94872240845E+01 -0.34265614111E+01  0.12322543339E+02  0.51100000000E-03 0.  1.
         12    1    3    3    0    0 -0.37991653581E+01  0.26569886964E+02  0.84033790033E+01  0.28124888078E+02  0.00000000000E+00 0. -1.
</event>
<event>
 7    1  0.2294216E-010  0.4778727E+02  0.7816164E-02  0.1312668E+00
        -11   -1    0    0    0    0  0.00000000000E+00  0.00000000000E+00  0.45593999997E+02  0.45594000000E+02  0.51100000000E-03 0.  1.
         11   -1    0    0    0    0 -0.00000000000E+00 -0.00000000000E+00 -0.45593999997E+02  0.45594000000E+02  0.51100000000E-03 0. -1.
    9900012    2    1    2    0    0 -0.51262536672E+01 -0.35613199898E+02 -0.24270250832E+02  0.47787267759E+02  0.19999985018E+02 0.  0.
        -12    1    1    2    0    0  0.51262536672E+01  0.35613199898E+02  0.24270250832E+02  0.43400732241E+02  0.00000000000E+00 0.  1.
         11    1    3    3    0    0 -0.73689392663E+01 -0.75148071431E+01 -0.53038001846E+01  0.11785749402E+02  0.51100000000E-03 0. -1.
        -11    1    3    3    0    0  0.28891471279E+01 -0.17775817799E+01  0.25677313379E+00  0.34018966495E+01  0.51100000000E-03 0.  1.
         12    1    3    3    0    0 -0.64646152872E+00 -0.26320810975E+02 -0.19223223781E+02  0.32599621707E+02  0.00000000000E+00 0. -1.
</event>
<event>
 7    1  0.2294216E-010  0.4778727E+02  0.7816164E-02  0.1312668E+00
        -11   -1    0    0    0    0  0.00000000000E+00  0.00000000000E+00  0.45593999997E+02  0.45594000000E+02  0.51100000000E-03 0.  1.
         11   -1    0    0    0    0 -0.00000000000E+00 -0.00000000000E+00 -0.45593999997E+02  0.45594000000E+02  0.51100000000E-03 0. -1.
    9900012    2    1    2    0    0  0.56520031896E+01 -0.27104071114E+02 -0.33422260207E+02  0.47787270877E+02  0.19999999238E+02 0.  0.
        -12    1    1    2    0    0 -0.56520031896E+01  0.27104071114E+02  0.33422260207E+02  0.43400729123E+02  0.00000000000E+00 0.  1.
         11    1    3    3    0    0 -0.48248716811E+01 -0.90368946258E+01 -0.16422863766E+02  0.19356014718E+02  0.51100000000E-03 0. -1.
        -11    1    3    3    0    0  0.80425625991E-01 -0.51068695880E+01 -0.81192683973E+01  0.95921376574E+01  0.51100000000E-03 0.  1.
        -12    1    3    3    0    0  0.10396449245E+02 -0.12960306900E+02 -0.88801280437E+01  0.18839118502E+02  0.00000000000E+00 0.  1.
</event>
<event>
 7    1  0.2294216E-010  0.4778727E+02  0.7816164E-02  0.1312668E+00
        -11   -1    0    0    0    0  0.00000000000E+00  0.00000000000E+00  0.45593999997E+02  0.45594000000E+02  0.51100000000E-03 0. -1.
         11   -1    0    0    0    0 -0.00000000000E+00 -0.00000000000E+00 -0.45593999997E+02  0.45594000000E+02  0.51100000000E-03 0.  1.
    9900012    2    1    2    0    0  0.10778523715E+02 -0.22302410947E+02  0.35637747975E+02  0.47787272030E+02  0.20000004495E+02 0.  0.
        -12    1    1    2    0    0 -0.10778523715E+02  0.22302410947E+02 -0.35637747975E+02  0.43400727970E+02  0.00000000000E+00 0.  1.
         11    1    3    3    0    0  0.43463478896E+01 -0.98930564010E+01  0.10112469232E+02  0.14799504693E+02  0.51100000000E-03 0. -1.
        -11    1    3    3    0    0 -0.10779373290E+01 -0.16070505858E+00 -0.18064264248E+01  0.21097278712E+01  0.51100000000E-03 0.  1.
        -12    1    3    3    0    0  0.75101131547E+01 -0.12248649488E+02  0.27331705168E+02  0.30878039466E+02  0.00000000000E+00 0.  1.
</event>
<event>
 7    1  0.2294216E-010  0.4778727E+02  0.7816164E-02  0.1312668E+00
        -11   -1    0    0    0    0  0.00000000000E+00  0.00000000000E+00  0.45593999997E+02  0.45594000000E+02  0.51100000000E-03 0.  1.
         11   -1    0    0    0    0 -0.00000000000E+00 -0.00000000000E+00 -0.45593999997E+02  0.45594000000E+02  0.51100000000E-03 0. -1.
    9900012    2    1    2    0    0  0.90475173602E+01  0.24786533284E+02 -0.34458572175E+02  0.47787274212E+02  0.20000014440E+02 0.  0.
        -12    1    1    2    0    0 -0.90475173602E+01 -0.24786533284E+02  0.34458572175E+02  0.43400725788E+02  0.00000000000E+00 0.  1.
         11    1    3    3    0    0  0.11029656624E+01  0.80487118283E+01 -0.14593503201E+02  0.16702354065E+02  0.51100000000E-03 0. -1.
        -11    1    3    3    0    0  0.38166087686E+01  0.14029356234E+02 -0.21438011291E+02  0.25903236616E+02  0.51100000000E-03 0.  1.
        -12    1    3    3    0    0  0.41279429291E+01  0.27084652211E+01  0.15729423168E+01  0.51816835307E+01  0.00000000000E+00 0.  1.
</event>
<event>
 7    1  0.2294216E-010  0.4778727E+02  0.7816164E-02  0.1312668E+00
        -11   -1    0    0    0    0  0.00000000000E+00  0.00000000000E+00  0.45593999997E+02  0.45594000000E+02  0.51100000000E-03 0.  1.
         11   -1    0    0    0    0 -0.00000000000E+00 -0.00000000000E+00 -0.45593999997E+02  0.45594000000E+02  0.51100000000E-03 0. -1.
    9900012    2    1    2    0    0 -0.93178021748E+01 -0.98139768057E+01 -0.41236970190E+02  0.47787270876E+02  0.19999999230E+02 0.  0.
        -12    1    1    2    0    0  0.93178021748E+01  0.98139768057E+01  0.41236970190E+02  0.43400729124E+02  0.00000000000E+00 0.  1.
         11    1    3    3    0    0 -0.31815650070E+01 -0.12115250740E+02 -0.15259139642E+02  0.19741909716E+02  0.51100000000E-03 0.  1.
        -11    1    3    3    0    0 -0.24364964333E+01 -0.53919362271E+00 -0.10881097495E+01  0.27223570156E+01  0.51100000000E-03 0. -1.
        -12    1    3    3    0    0 -0.36997407345E+01  0.28404675566E+01 -0.24889720798E+02  0.25323004143E+02  0.00000000000E+00 0.  1.
</event>
<event>
 7    1  0.2294216E-010  0.4778727E+02  0.7816164E-02  0.1312668E+00
        -11   -1    0    0    0    0  0.00000000000E+00  0.00000000000E+00  0.45593999997E+02  0.45594000000E+02  0.51100000000E-03 0.  1.
         11   -1    0    0    0    0 -0.00000000000E+00 -0.00000000000E+00 -0.45593999997E+02  0.45594000000E+02  0.51100000000E-03 0. -1.
    9900012    2    1    2    0    0  0.26076182880E+02  0.32928293245E+02 -0.10926287443E+02  0.47787267668E+02  0.19999984608E+02 0.  0.
        -12    1    1    2    0    0 -0.26076182880E+02 -0.32928293245E+02  0.10926287443E+02  0.43400732332E+02  0.00000000000E+00 0.  1.
         11    1    3    3    0    0  0.23185208185E+02  0.32864551902E+02 -0.12202501167E+02  0.42030152097E+02  0.51100000000E-03 0. -1.
        -11    1    3    3    0    0  0.41850119643E+01  0.19643518287E+00  0.44450497514E+00  0.42131338521E+01  0.51100000000E-03 0.  1.
        -12    1    3    3    0    0 -0.12940372686E+01 -0.13269383988E+00  0.83170874890E+00  0.15439817197E+01  0.00000000000E+00 0.  1.
</event>
<event>
 7    1  0.2294216E-010  0.4778727E+02  0.7816164E-02  0.1312668E+00
        -11   -1    0    0    0    0  0.00000000000E+00  0.00000000000E+00  0.45593999997E+02  0.45594000000E+02  0.51100000000E-03 0.  1.
         11   -1    0    0    0    0 -0.00000000000E+00 -0.00000000000E+00 -0.45593999997E+02  0.45594000000E+02  0.51100000000E-03 0. -1.
    9900012    2    1    2    0    0 -0.27145576738E+02 -0.32655065161E+02 -0.89659063919E+01  0.47787273110E+02  0.20000009418E+02 0.  0.
        -12    1    1    2    0    0  0.27145576738E+02  0.32655065161E+02  0.89659063919E+01  0.43400726890E+02  0.00000000000E+00 0.  1.
         11    1    3    3    0    0 -0.16319263503E+02 -0.97360559019E+01 -0.26290222650E+01  0.19183870937E+02  0.51100000000E-03 0. -1.
        -11    1    3    3    0    0 -0.60925218512E+00  0.13691734457E+01 -0.71614076603E+00  0.16609280560E+01  0.51100000000E-03 0.  1.
        -12    1    3    3    0    0 -0.10217061051E+02 -0.24288182705E+02 -0.56207433609E+01  0.26942474117E+02  0.00000000000E+00 0.  1.
</event>
<event>
 7    1  0.2294216E-010  0.4778727E+02  0.7816164E-02  0.1312668E+00
        -11   -1    0    0    0    0  0.00000000000E+00  0.00000000000E+00  0.45593999997E+02  0.45594000000E+02  0.51100000000E-03 0.  1.
         11   -1    0    0    0    0 -0.00000000000E+00 -0.00000000000E+00 -0.45593999997E+02  0.45594000000E+02  0.51100000000E-03 0. -1.
    9900012    2    1    2    0    0 -0.95971199532E+01  0.14194750682E+02 -0.39875150628E+02  0.47787270791E+02  0.19999998843E+02 0.  0.
        -12    1    1    2    0    0  0.95971199532E+01 -0.14194750682E+02  0.39875150628E+02  0.43400729209E+02  0.00000000000E+00 0.  1.
         11    1    3    3    0    0 -0.36745783515E+00 -0.22950122254E+01 -0.61964992867E+01  0.66180593868E+01  0.51100000000E-03 0. -1.
        -11    1    3    3    0    0  0.30297072471E+01  0.82861331301E+01 -0.14511760424E+02  0.16983236415E+02  0.51100000000E-03 0.  1.
        -12    1    3    3    0    0 -0.12259369365E+02  0.82036297770E+01 -0.19166890917E+02  0.24185974989E+02  0.00000000000E+00 0.  1.
</event>
<event>
 7    1  0.2294216E-010  0.4778727E+02  0.7816164E-02  0.1312668E+00
        -11   -1    0    0    0    0  0.00000000000E+00  0.00000000000E+00  0.45593999997E+02  0.45594000000E+02  0.51100000000E-03 0.  1.
         11   -1    0    0    0    0 -0.00000000000E+00 -0.00000000000E+00 -0.45593999997E+02  0.45594000000E+02  0.51100000000E-03 0. -1.
    9900012    2    1    2    0    0  0.18949289790E+01 -0.43860255298E+01 -0.43136935971E+02  0.47787271656E+02  0.20000002790E+02 0.  0.
        -12    1    1    2    0    0 -0.18949289790E+01  0.43860255298E+01  0.43136935971E+02  0.43400728344E+02  0.00000000000E+00 0.  1.
         11    1    3    3    0    0 -0.17276985885E+01 -0.30328284486E+01 -0.25379447329E+02  0.25618339872E+02  0.51100000000E-03 0. -1.
        -11    1    3    3    0    0 -0.41273974695E+01  0.22474640454E+01 -0.56437165064E+01  0.73442522269E+01  0.51100000000E-03 0.  1.
        -12    1    3    3    0    0  0.77500250370E+01 -0.36006611266E+01 -0.12113772136E+02  0.14824679557E+02  0.00000000000E+00 0.  1.
</event>
<event>
 7    1  0.2294216E-010  0.4778727E+02  0.7816164E-02  0.1312668E+00
        -11   -1    0    0    0    0  0.00000000000E+00  0.00000000000E+00  0.45593999997E+02  0.45594000000E+02  0.51100000000E-03 0. -1.
         11   -1    0    0    0    0 -0.00000000000E+00 -0.00000000000E+00 -0.45593999997E+02  0.45594000000E+02  0.51100000000E-03 0.  1.
    9900012    2    1    2    0    0 -0.42891821671E+02 -0.32136695048E+01  0.57954219479E+01  0.47787274735E+02  0.20000016827E+02 0.  0.
        -12    1    1    2    0    0  0.42891821671E+02  0.32136695048E+01 -0.57954219479E+01  0.43400725265E+02  0.00000000000E+00 0.  1.
         11    1    3    3    0    0 -0.22910046417E+02  0.31623486479E+00  0.58062911837E+01  0.23636481314E+02  0.51100000000E-03 0. -1.
        -11    1    3    3    0    0 -0.17753651559E+02 -0.31360000701E+01  0.49521963431E+01  0.18696280085E+02  0.51100000000E-03 0.  1.
        -12    1    3    3    0    0 -0.22281236952E+01 -0.39390429958E+00 -0.49630655789E+01  0.54545133365E+01  0.00000000000E+00 0.  1.
</event>
<event>
 7    1  0.2294216E-010  0.4778727E+02  0.7816164E-02  0.1312668E+00
        -11   -1    0    0    0    0  0.00000000000E+00  0.00000000000E+00  0.45593999997E+02  0.45594000000E+02  0.51100000000E-03 0. -1.
         11   -1    0    0    0    0 -0.00000000000E+00 -0.00000000000E+00 -0.45593999997E+02  0.45594000000E+02  0.51100000000E-03 0.  1.
    9900012    2    1    2    0    0 -0.94838422504E+01 -0.41606407321E+02 -0.79111666977E+01  0.47787274747E+02  0.20000016880E+02 0.  0.
        -12    1    1    2    0    0  0.94838422504E+01  0.41606407321E+02  0.79111666977E+01  0.43400725253E+02  0.00000000000E+00 0.  1.
         11    1    3    3    0    0  0.15425425547E+00  0.25181761808E+00 -0.10595406856E+01  0.10999241855E+01  0.51100000000E-03 0. -1.
        -11    1    3    3    0    0 -0.49864037200E+01 -0.91716806700E+01 -0.87434149296E+01  0.13617314466E+02  0.51100000000E-03 0.  1.
         12    1    3    3    0    0 -0.46516927859E+01 -0.32686544269E+02  0.18917889175E+01  0.33070036095E+02  0.00000000000E+00 0. -1.
</event>
<event>
 7    1  0.2294216E-010  0.4778729E+02  0.7816164E-02  0.1312668E+00
        -11   -1    0    0    0    0  0.00000000000E+00  0.00000000000E+00  0.45593999997E+02  0.45594000000E+02  0.51100000000E-03 0. -1.
         11   -1    0    0    0    0 -0.00000000000E+00 -0.00000000000E+00 -0.45593999997E+02  0.45594000000E+02  0.51100000000E-03 0.  1.
    9900012    2    1    2    0    0  0.31850408879E+02  0.11195872059E+02  0.27273158977E+02  0.47787293813E+02  0.20000103812E+02 0.  0.
        -12    1    1    2    0    0 -0.31850408879E+02 -0.11195872059E+02 -0.27273158977E+02  0.43400706187E+02  0.00000000000E+00 0.  1.
         11    1    3    3    0    0  0.33395305327E+01  0.20075652558E+01  0.12200599951E+02  0.12807709470E+02  0.51100000000E-03 0. -1.
        -11    1    3    3    0    0  0.43573032188E+01  0.45090478779E+01  0.28928739720E+00  0.62770448115E+01  0.51100000000E-03 0.  1.
         12    1    3    3    0    0  0.24153575128E+02  0.46792589254E+01  0.14783271628E+02  0.28702539532E+02  0.00000000000E+00 0. -1.
</event>
<event>
 7    1  0.2294216E-010  0.4778727E+02  0.7816164E-02  0.1312668E+00
        -11   -1    0    0    0    0  0.00000000000E+00  0.00000000000E+00  0.45593999997E+02  0.45594000000E+02  0.51100000000E-03 0. -1.
         11   -1    0    0    0    0 -0.00000000000E+00 -0.00000000000E+00 -0.45593999997E+02  0.45594000000E+02  0.51100000000E-03 0.  1.
    9900012    2    1    2    0    0  0.29165694161E+02 -0.22170855345E+02  0.23268841006E+02  0.47787268389E+02  0.19999987892E+02 0.  0.
        -12    1    1    2    0    0 -0.29165694161E+02  0.22170855345E+02 -0.23268841006E+02  0.43400731611E+02  0.00000000000E+00 0.  1.
         11    1    3    3    0    0  0.21522057040E+02 -0.16365192445E+02  0.19086894296E+02  0.33095739863E+02  0.51100000000E-03 0. -1.
        -11    1    3    3    0    0  0.74347474826E+01 -0.78431991212E+01  0.92820384395E+00  0.10846787784E+02  0.51100000000E-03 0.  1.
        -12    1    3    3    0    0  0.20888963883E+00  0.20375362209E+01  0.32537428664E+01  0.38447407420E+01  0.00000000000E+00 0.  1.
</event>
<event>
 7    1  0.2294216E-010  0.4778727E+02  0.7816164E-02  0.1312668E+00
        -11   -1    0    0    0    0  0.00000000000E+00  0.00000000000E+00  0.45593999997E+02  0.45594000000E+02  0.51100000000E-03 0.  1.
         11   -1    0    0    0    0 -0.00000000000E+00 -0.00000000000E+00 -0.45593999997E+02  0.45594000000E+02  0.51100000000E-03 0. -1.
    9900012    2    1    2    0    0 -0.20744928291E+02  0.16643731340E+01 -0.38085443975E+02  0.47787271544E+02  0.20000002279E+02 0.  0.
        -12    1    1    2    0    0  0.20744928291E+02 -0.16643731340E+01  0.38085443975E+02  0.43400728456E+02  0.00000000000E+00 0.  1.
         11    1    3    3    0    0  0.10381997716E+01 -0.24252026559E+01 -0.19414619207E+01  0.32754757423E+01  0.51100000000E-03 0. -1.
        -11    1    3    3    0    0  0.14375349391E+01  0.88171535109E+00 -0.34559044947E+00  0.17214417449E+01  0.51100000000E-03 0.  1.
         12    1    3    3    0    0 -0.23220663001E+02  0.32078604388E+01 -0.35798391605E+02  0.42790354057E+02  0.00000000000E+00 0. -1.
</event>
<event>
 7    1  0.2294216E-010  0.4778727E+02  0.7816164E-02  0.1312668E+00
        -11   -1    0    0    0    0  0.00000000000E+00  0.00000000000E+00  0.45593999997E+02  0.45594000000E+02  0.51100000000E-03 0. -1.
         11   -1    0    0    0    0 -0.00000000000E+00 -0.00000000000E+00 -0.45593999997E+02  0.45594000000E+02  0.51100000000E-03 0.  1.
    9900012    2    1    2    0    0  0.20090561691E+02 -0.19709338287E+02  0.33038381382E+02  0.47787270408E+02  0.19999997098E+02 0.  0.
        -12    1    1    2    0    0 -0.20090561691E+02  0.19709338287E+02 -0.33038381382E+02  0.43400729592E+02  0.00000000000E+00 0.  1.
         11    1    3    3    0    0  0.87485364558E+01 -0.74127172716E+01  0.14316843931E+02  0.18342772088E+02  0.51100000000E-03 0. -1.
        -11    1    3    3    0    0  0.53590265394E+01 -0.20608888928E+01  0.16383010614E+02  0.17359996127E+02  0.51100000000E-03 0.  1.
         12    1    3    3    0    0  0.59829986954E+01 -0.10235732122E+02  0.23385268365E+01  0.12084502192E+02  0.00000000000E+00 0. -1.
</event>
<event>
 7    1  0.2294216E-010  0.4778724E+02  0.7816164E-02  0.1312668E+00
        -11   -1    0    0    0    0  0.00000000000E+00  0.00000000000E+00  0.45593999997E+02  0.45594000000E+02  0.51100000000E-03 0.  1.
         11   -1    0    0    0    0 -0.00000000000E+00 -0.00000000000E+00 -0.45593999997E+02  0.45594000000E+02  0.51100000000E-03 0. -1.
    9900012    2    1    2    0    0  0.51824161051E+01 -0.20404565700E+02 -0.37952890119E+02  0.47787244171E+02  0.19999877473E+02 0.  0.
        -12    1    1    2    0    0 -0.51824161051E+01  0.20404565700E+02  0.37952890119E+02  0.43400755829E+02  0.00000000000E+00 0.  1.
         11    1    3    3    0    0  0.30227268366E+00 -0.10903576900E+01 -0.30298976498E+01  0.32342740603E+01  0.51100000000E-03 0. -1.
        -11    1    3    3    0    0 -0.42123140895E+01 -0.17721471906E+02 -0.20442314573E+02  0.27380328374E+02  0.51100000000E-03 0.  1.
        -12    1    3    3    0    0  0.90924575109E+01 -0.15927361048E+01 -0.14480677897E+02  0.17172641737E+02  0.00000000000E+00 0.  1.
</event>
<event>
 7    1  0.2294216E-010  0.4778727E+02  0.7816164E-02  0.1312668E+00
        -11   -1    0    0    0    0  0.00000000000E+00  0.00000000000E+00  0.45593999997E+02  0.45594000000E+02  0.51100000000E-03 0.  1.
         11   -1    0    0    0    0 -0.00000000000E+00 -0.00000000000E+00 -0.45593999997E+02  0.45594000000E+02  0.51100000000E-03 0. -1.
    9900012    2    1    2    0    0 -0.35404196968E+01  0.30787756691E+02 -0.30384252912E+02  0.47787270067E+02  0.19999995542E+02 0.  0.
        -12    1    1    2    0    0  0.35404196968E+01 -0.30787756691E+02  0.30384252912E+02  0.43400729933E+02  0.00000000000E+00 0.  1.
         11    1    3    3    0    0 -0.38163479046E+01  0.20313370598E+02 -0.22221718956E+02  0.30348020199E+02  0.51100000000E-03 0. -1.
        -11    1    3    3    0    0 -0.41878233875E+01  0.89227024492E+01 -0.27070896350E+01  0.10221585898E+02  0.51100000000E-03 0.  1.
        -12    1    3    3    0    0  0.44637515954E+01  0.15516836444E+01 -0.54554443211E+01  0.72176639696E+01  0.00000000000E+00 0.  1.
</event>
<event>
 7    1  0.2294216E-010  0.4778727E+02  0.7816164E-02  0.1312668E+00
        -11   -1    0    0    0    0  0.00000000000E+00  0.00000000000E+00  0.45593999997E+02  0.45594000000E+02  0.51100000000E-03 0. -1.
         11   -1    0    0    0    0 -0.00000000000E+00 -0.00000000000E+00 -0.45593999997E+02  0.45594000000E+02  0.51100000000E-03 0.  1.
    9900012    2    1    2    0    0  0.38373943087E+02  0.18527060552E+02 -0.82348040624E+01  0.47787268685E+02  0.19999989244E+02 0.  0.
        -12    1    1    2    0    0 -0.38373943087E+02 -0.18527060552E+02  0.82348040624E+01  0.43400731315E+02  0.00000000000E+00 0.  1.
         11    1    3    3    0    0  0.29131279023E+02  0.10822819465E+02 -0.40028086461E+01  0.31333485538E+02  0.51100000000E-03 0. -1.
        -11    1    3    3    0    0  0.98083876768E+01  0.33599914443E+01 -0.76607981949E-02  0.10367934716E+02  0.51100000000E-03 0.  1.
        -12    1    3    3    0    0 -0.56572361289E+00  0.43442496421E+01 -0.42243346182E+01  0.60858484310E+01  0.00000000000E+00 0.  1.
</event>
<event>
 7    1  0.2294216E-010  0.4778727E+02  0.7816164E-02  0.1312668E+00
        -11   -1    0    0    0    0  0.00000000000E+00  0.00000000000E+00  0.45593999997E+02  0.45594000000E+02  0.51100000000E-03 0.  1.
         11   -1    0    0    0    0 -0.00000000000E+00 -0.00000000000E+00 -0.45593999997E+02  0.45594000000E+02  0.51100000000E-03 0. -1.
    9900012    2    1    2    0    0  0.28487960836E+01 -0.42129892181E+02 -0.10028942231E+02  0.47787272626E+02  0.20000007212E+02 0.  0.
        -12    1    1    2    0    0 -0.28487960836E+01  0.42129892181E+02  0.10028942231E+02  0.43400727374E+02  0.00000000000E+00 0.  1.
         11    1    3    3    0    0  0.28672006178E+01 -0.17971849682E+02  0.11418519198E+01  0.18234912845E+02  0.51100000000E-03 0. -1.
        -11    1    3    3    0    0 -0.96229353542E+00 -0.25304624811E+02 -0.89046396233E+01  0.26842925563E+02  0.51100000000E-03 0.  1.
        -12    1    3    3    0    0  0.94388900115E+00  0.11465823124E+01 -0.22661545274E+01  0.27094342191E+01  0.00000000000E+00 0.  1.
</event>
<event>
 7    1  0.2294216E-010  0.4778726E+02  0.7816164E-02  0.1312668E+00
        -11   -1    0    0    0    0  0.00000000000E+00  0.00000000000E+00  0.45593999997E+02  0.45594000000E+02  0.51100000000E-03 0. -1.
         11   -1    0    0    0    0 -0.00000000000E+00 -0.00000000000E+00 -0.45593999997E+02  0.45594000000E+02  0.51100000000E-03 0.  1.
    9900012    2    1    2    0    0 -0.31943449989E+02  0.28749674998E+02  0.60577704333E+01  0.47787258160E+02  0.19999941252E+02 0.  0.
        -12    1    1    2    0    0  0.31943449989E+02 -0.28749674998E+02 -0.60577704333E+01  0.43400741840E+02  0.00000000000E+00 0.  1.
         11    1    3    3    0    0 -0.12707159909E+02  0.20159584412E+02  0.88507296448E+01  0.25420782288E+02  0.51100000000E-03 0. -1.
        -11    1    3    3    0    0 -0.11033576220E+02  0.53203354882E+01  0.18526470886E+01  0.12388626857E+02  0.51100000000E-03 0.  1.
         12    1    3    3    0    0 -0.82027138597E+01  0.32697550981E+01 -0.46456063001E+01  0.99778490147E+01  0.00000000000E+00 0. -1.
</event>
<event>
 7    1  0.2294216E-010  0.4778727E+02  0.7816164E-02  0.1312668E+00
        -11   -1    0    0    0    0  0.00000000000E+00  0.00000000000E+00  0.45593999997E+02  0.45594000000E+02  0.51100000000E-03 0.  1.
         11   -1    0    0    0    0 -0.00000000000E+00 -0.00000000000E+00 -0.45593999997E+02  0.45594000000E+02  0.51100000000E-03 0. -1.
    9900012    2    1    2    0    0 -0.96297043808E+01 -0.16840808095E+01 -0.42285406735E+02  0.47787274691E+02  0.20000016626E+02 0.  0.
        -12    1    1    2    0    0  0.96297043808E+01  0.16840808095E+01  0.42285406735E+02  0.43400725309E+02  0.00000000000E+00 0.  1.
         11    1    3    3    0    0 -0.18690880908E+01 -0.63940315990E+01 -0.11132962341E+02  0.12973819065E+02  0.51100000000E-03 0. -1.
        -11    1    3    3    0    0 -0.81454647783E+01  0.16754968195E+01 -0.82722367345E+01  0.11729696795E+02  0.51100000000E-03 0.  1.
         12    1    3    3    0    0  0.38484848823E+00  0.30344539700E+01 -0.22880207659E+02  0.23083758831E+02  0.00000000000E+00 0. -1.
</event>
<event>
 7    1  0.2294216E-010  0.4778727E+02  0.7816164E-02  0.1312668E+00
        -11   -1    0    0    0    0  0.00000000000E+00  0.00000000000E+00  0.45593999997E+02  0.45594000000E+02  0.51100000000E-03 0.  1.
         11   -1    0    0    0    0 -0.00000000000E+00 -0.00000000000E+00 -0.45593999997E+02  0.45594000000E+02  0.51100000000E-03 0. -1.
    9900012    2    1    2    0    0 -0.29757565064E+02  0.21271265711E+02 -0.23359030544E+02  0.47787265773E+02  0.19999975965E+02 0.  0.
        -12    1    1    2    0    0  0.29757565064E+02 -0.21271265711E+02  0.23359030544E+02  0.43400734227E+02  0.00000000000E+00 0.  1.
         11    1    3    3    0    0 -0.46816130702E+01  0.88089672932E+01 -0.14794714959E+01  0.10084852100E+02  0.51100000000E-03 0. -1.
        -11    1    3    3    0    0 -0.38453852890E+01  0.79389746327E+01 -0.45453966916E+01  0.99234539141E+01  0.51100000000E-03 0.  1.
         12    1    3    3    0    0 -0.21230566705E+02  0.45233237847E+01 -0.17334162357E+02  0.27778959759E+02  0.00000000000E+00 0. -1.
</event>
<event>
 7    1  0.2294216E-010  0.4778727E+02  0.7816164E-02  0.1312668E+00
        -11   -1    0    0    0    0  0.00000000000E+00  0.00000000000E+00  0.45593999997E+02  0.45594000000E+02  0.51100000000E-03 0.  1.
         11   -1    0    0    0    0 -0.00000000000E+00 -0.00000000000E+00 -0.45593999997E+02  0.45594000000E+02  0.51100000000E-03 0. -1.
    9900012    2    1    2    0    0 -0.16936848349E+02  0.22484913376E+02 -0.33033246681E+02  0.47787267888E+02  0.19999985610E+02 0.  0.
        -12    1    1    2    0    0  0.16936848349E+02 -0.22484913376E+02  0.33033246681E+02  0.43400732112E+02  0.00000000000E+00 0.  1.
         11    1    3    3    0    0 -0.50191188574E+01  0.39427553705E+01 -0.12464842982E+02  0.14003898916E+02  0.51100000000E-03 0. -1.
        -11    1    3    3    0    0 -0.10505706606E+02  0.55269954722E+01 -0.37067209529E+01  0.12436130054E+02  0.51100000000E-03 0.  1.
         12    1    3    3    0    0 -0.14120228861E+01  0.13015162533E+02 -0.16861682746E+02  0.21347238918E+02  0.00000000000E+00 0. -1.
</event>
<event>
 7    1  0.2294216E-010  0.4778727E+02  0.7816164E-02  0.1312668E+00
        -11   -1    0    0    0    0  0.00000000000E+00  0.00000000000E+00  0.45593999997E+02  0.45594000000E+02  0.51100000000E-03 0.  1.
         11   -1    0    0    0    0 -0.00000000000E+00 -0.00000000000E+00 -0.45593999997E+02  0.45594000000E+02  0.51100000000E-03 0. -1.
    9900012    2    1    2    0    0  0.43089910151E+02 -0.45752188717E+01  0.24394130588E+01  0.47787265898E+02  0.19999976534E+02 0.  0.
        -12    1    1    2    0    0 -0.43089910151E+02  0.45752188717E+01 -0.24394130588E+01  0.43400734102E+02  0.00000000000E+00 0.  1.
         11    1    3    3    0    0  0.27721698879E+02 -0.48804749246E+01 -0.24415574994E+01  0.28253722365E+02  0.51100000000E-03 0. -1.
        -11    1    3    3    0    0  0.34283334487E+01  0.17487019741E+01 -0.32324067479E+01  0.50259210573E+01  0.51100000000E-03 0.  1.
         12    1    3    3    0    0  0.11939877823E+02 -0.14434459211E+01  0.81133773060E+01  0.14507622475E+02  0.00000000000E+00 0. -1.
</event>
<event>
 7    1  0.2294216E-010  0.4778727E+02  0.7816164E-02  0.1312668E+00
        -11   -1    0    0    0    0  0.00000000000E+00  0.00000000000E+00  0.45593999997E+02  0.45594000000E+02  0.51100000000E-03 0.  1.
         11   -1    0    0    0    0 -0.00000000000E+00 -0.00000000000E+00 -0.45593999997E+02  0.45594000000E+02  0.51100000000E-03 0. -1.
    9900012    2    1    2    0    0 -0.18710351412E+02  0.26437921550E+02 -0.28889141206E+02  0.47787269298E+02  0.19999992037E+02 0.  0.
        -12    1    1    2    0    0  0.18710351412E+02 -0.26437921550E+02  0.28889141206E+02  0.43400730702E+02  0.00000000000E+00 0.  1.
         11    1    3    3    0    0  0.52052496171E+00  0.51087449470E+01 -0.46141821062E+01  0.69036872713E+01  0.51100000000E-03 0. -1.
        -11    1    3    3    0    0 -0.59351210452E+01 -0.68721966759E+00 -0.94986692040E+01  0.11221526171E+02  0.51100000000E-03 0.  1.
        -12    1    3    3    0    0 -0.13295755328E+02  0.22016396271E+02 -0.14776289896E+02  0.29662055856E+02  0.00000000000E+00 0.  1.
</event>
<event>
 7    1  0.2294216E-010  0.4778727E+02  0.7816164E-02  0.1312668E+00
        -11   -1    0    0    0    0  0.00000000000E+00  0.00000000000E+00  0.45593999997E+02  0.45594000000E+02  0.51100000000E-03 0.  1.
         11   -1    0    0    0    0 -0.00000000000E+00 -0.00000000000E+00 -0.45593999997E+02  0.45594000000E+02  0.51100000000E-03 0. -1.
    9900012    2    1    2    0    0  0.27252432543E+02 -0.25653949120E+02 -0.21972781507E+02  0.47787270604E+02  0.19999997992E+02 0.  0.
        -12    1    1    2    0    0 -0.27252432543E+02  0.25653949120E+02  0.21972781507E+02  0.43400729396E+02  0.00000000000E+00 0.  1.
         11    1    3    3    0    0  0.67927815736E+01 -0.14446827426E+01 -0.26926217272E+01  0.74484361957E+01  0.51100000000E-03 0. -1.
        -11    1    3    3    0    0  0.27605594073E+01 -0.34555333638E+01  0.28097362108E+01  0.52398489391E+01  0.51100000000E-03 0.  1.
         12    1    3    3    0    0  0.17699091562E+02 -0.20753733014E+02 -0.22089895990E+02  0.35098985469E+02  0.00000000000E+00 0. -1.
</event>
<event>
 7    1  0.2294216E-010  0.4778727E+02  0.7816164E-02  0.1312668E+00
        -11   -1    0    0    0    0  0.00000000000E+00  0.00000000000E+00  0.45593999997E+02  0.45594000000E+02  0.51100000000E-03 0.  1.
         11   -1    0    0    0    0 -0.00000000000E+00 -0.00000000000E+00 -0.45593999997E+02  0.45594000000E+02  0.51100000000E-03 0. -1.
    9900012    2    1    2    0    0 -0.26092596514E+02  0.12537596750E+02 -0.32335867359E+02  0.47787271400E+02  0.20000001623E+02 0.  0.
        -12    1    1    2    0    0  0.26092596514E+02 -0.12537596750E+02  0.32335867359E+02  0.43400728600E+02  0.00000000000E+00 0.  1.
         11    1    3    3    0    0 -0.36360910916E+01  0.71701419223E+01 -0.57646880309E+01  0.98926094620E+01  0.51100000000E-03 0.  1.
        -11    1    3    3    0    0 -0.19397866418E+02  0.89204983725E+01 -0.17203080673E+02  0.27418944139E+02  0.51100000000E-03 0. -1.
        -12    1    3    3    0    0 -0.30586390040E+01 -0.35530435451E+01 -0.93680986559E+01  0.10475717800E+02  0.00000000000E+00 0.  1.
</event>
<event>
 7    1  0.2294216E-010  0.4778727E+02  0.7816164E-02  0.1312668E+00
        -11   -1    0    0    0    0  0.00000000000E+00  0.00000000000E+00  0.45593999997E+02  0.45594000000E+02  0.51100000000E-03 0. -1.
         11   -1    0    0    0    0 -0.00000000000E+00 -0.00000000000E+00 -0.45593999997E+02  0.45594000000E+02  0.51100000000E-03 0.  1.
    9900012    2    1    2    0    0 -0.27200333343E+02  0.22422043728E+02  0.25318316044E+02  0.47787270672E+02  0.19999998303E+02 0.  0.
        -12    1    1    2    0    0  0.27200333343E+02 -0.22422043728E+02 -0.25318316044E+02  0.43400729328E+02  0.00000000000E+00 0.  1.
         11    1    3    3    0    0 -0.81783788559E+01  0.45693085727E+00  0.26391338336E+01  0.86057942208E+01  0.51100000000E-03 0. -1.
        -11    1    3    3    0    0 -0.30862768168E+01 -0.15220627885E+01  0.14342276409E+01  0.37281079530E+01  0.51100000000E-03 0.  1.
         12    1    3    3    0    0 -0.15935677670E+02  0.23487175659E+02  0.21244954569E+02  0.35453368498E+02  0.00000000000E+00 0. -1.
</event>
<event>
 7    1  0.2294216E-010  0.4778727E+02  0.7816164E-02  0.1312668E+00
        -11   -1    0    0    0    0  0.00000000000E+00  0.00000000000E+00  0.45593999997E+02  0.45594000000E+02  0.51100000000E-03 0.  1.
         11   -1    0    0    0    0 -0.00000000000E+00 -0.00000000000E+00 -0.45593999997E+02  0.45594000000E+02  0.51100000000E-03 0. -1.
    9900012    2    1    2    0    0 -0.40739996020E+02 -0.14935689374E+02 -0.89516444476E+00  0.47787269451E+02  0.19999992733E+02 0.  0.
        -12    1    1    2    0    0  0.40739996020E+02  0.14935689374E+02  0.89516444476E+00  0.43400730549E+02  0.00000000000E+00 0.  1.
         11    1    3    3    0    0 -0.30186855754E+01 -0.11287040484E+01  0.37753748727E+00  0.32448374763E+01  0.51100000000E-03 0. -1.
        -11    1    3    3    0    0 -0.84379860422E+00 -0.38213162841E+01  0.44329711842E+01  0.59131791795E+01  0.51100000000E-03 0.  1.
         12    1    3    3    0    0 -0.36877511841E+02 -0.99856690418E+01 -0.57056731162E+01  0.38629252795E+02  0.00000000000E+00 0. -1.
</event>
<event>
 7    1  0.2294216E-010  0.4778727E+02  0.7816164E-02  0.1312668E+00
        -11   -1    0    0    0    0  0.00000000000E+00  0.00000000000E+00  0.45593999997E+02  0.45594000000E+02  0.51100000000E-03 0.  1.
         11   -1    0    0    0    0 -0.00000000000E+00 -0.00000000000E+00 -0.45593999997E+02  0.45594000000E+02  0.51100000000E-03 0. -1.
    9900012    2    1    2    0    0  0.33636880374E+02 -0.52433278205E+01 -0.26920086025E+02  0.47787271440E+02  0.20000001805E+02 0.  0.
        -12    1    1    2    0    0 -0.33636880374E+02  0.52433278205E+01  0.26920086025E+02  0.43400728560E+02  0.00000000000E+00 0.  1.
         11    1    3    3    0    0  0.68223532794E+01 -0.14351324126E+01 -0.56602610662E+01  0.89801261076E+01  0.51100000000E-03 0. -1.
        -11    1    3    3    0    0  0.12617123745E+02 -0.60044192523E+00  0.48475699104E+00  0.12640701393E+02  0.51100000000E-03 0.  1.
         12    1    3    3    0    0  0.14197403349E+02 -0.32077534826E+01 -0.21744581950E+02  0.26166443940E+02  0.00000000000E+00 0. -1.
</event>
<event>
 7    1  0.2294216E-010  0.4778727E+02  0.7816164E-02  0.1312668E+00
        -11   -1    0    0    0    0  0.00000000000E+00  0.00000000000E+00  0.45593999997E+02  0.45594000000E+02  0.51100000000E-03 0.  1.
         11   -1    0    0    0    0 -0.00000000000E+00 -0.00000000000E+00 -0.45593999997E+02  0.45594000000E+02  0.51100000000E-03 0. -1.
    9900012    2    1    2    0    0  0.20409714736E+02  0.14018435406E+02 -0.35644780973E+02  0.47787269621E+02  0.19999993508E+02 0.  0.
        -12    1    1    2    0    0 -0.20409714736E+02 -0.14018435406E+02  0.35644780973E+02  0.43400730379E+02  0.00000000000E+00 0.  1.
         11    1    3    3    0    0  0.75821602974E+01  0.39692503603E+01 -0.19368738260E+02  0.21175271551E+02  0.51100000000E-03 0. -1.
        -11    1    3    3    0    0  0.10464621703E+02  0.12529023813E+02 -0.16459300263E+02  0.23181745200E+02  0.51100000000E-03 0.  1.
        -12    1    3    3    0    0  0.23629327348E+01 -0.24798387674E+01  0.18325754950E+00  0.34302528698E+01  0.00000000000E+00 0.  1.
</event>
<event>
 7    1  0.2294216E-010  0.4778727E+02  0.7816164E-02  0.1312668E+00
        -11   -1    0    0    0    0  0.00000000000E+00  0.00000000000E+00  0.45593999997E+02  0.45594000000E+02  0.51100000000E-03 0.  1.
         11   -1    0    0    0    0 -0.00000000000E+00 -0.00000000000E+00 -0.45593999997E+02  0.45594000000E+02  0.51100000000E-03 0. -1.
    9900012    2    1    2    0    0 -0.17356773992E+02  0.38970634071E+02 -0.79784326842E+01  0.47787270612E+02  0.19999998028E+02 0.  0.
        -12    1    1    2    0    0  0.17356773992E+02 -0.38970634071E+02  0.79784326842E+01  0.43400729388E+02  0.00000000000E+00 0.  1.
         11    1    3    3    0    0 -0.14377555183E+02  0.26288384062E+02 -0.10219699816E+02  0.31658103137E+02  0.51100000000E-03 0. -1.
        -11    1    3    3    0    0 -0.55678015140E+01  0.56952094259E+01 -0.95442660968E+00  0.80216428816E+01  0.51100000000E-03 0.  1.
        -12    1    3    3    0    0  0.25885827057E+01  0.69870405831E+01  0.31956937420E+01  0.81075245930E+01  0.00000000000E+00 0.  1.
</event>
<event>
 7    1  0.2294216E-010  0.4778727E+02  0.7816164E-02  0.1312668E+00
        -11   -1    0    0    0    0  0.00000000000E+00  0.00000000000E+00  0.45593999997E+02  0.45594000000E+02  0.51100000000E-03 0.  1.
         11   -1    0    0    0    0 -0.00000000000E+00 -0.00000000000E+00 -0.45593999997E+02  0.45594000000E+02  0.51100000000E-03 0. -1.
    9900012    2    1    2    0    0 -0.36469894402E+02 -0.23438740541E+02  0.20483201526E+01  0.47787269922E+02  0.19999994883E+02 0.  0.
        -12    1    1    2    0    0  0.36469894402E+02  0.23438740541E+02 -0.20483201526E+01  0.43400730078E+02  0.00000000000E+00 0.  1.
         11    1    3    3    0    0  0.37059707985E+00  0.41425037431E+00 -0.15919008400E+00  0.57817584883E+00  0.51100000000E-03 0. -1.
        -11    1    3    3    0    0  0.75722770952E+00  0.47161082425E+00 -0.20412701777E+01  0.22276882127E+01  0.51100000000E-03 0.  1.
         12    1    3    3    0    0 -0.37597719192E+02 -0.24324601739E+02  0.42487804143E+01  0.44981405861E+02  0.00000000000E+00 0. -1.
</event>
<event>
 7    1  0.2294216E-010  0.4778727E+02  0.7816164E-02  0.1312668E+00
        -11   -1    0    0    0    0  0.00000000000E+00  0.00000000000E+00  0.45593999997E+02  0.45594000000E+02  0.51100000000E-03 0. -1.
         11   -1    0    0    0    0 -0.00000000000E+00 -0.00000000000E+00 -0.45593999997E+02  0.45594000000E+02  0.51100000000E-03 0.  1.
    9900012    2    1    2    0    0 -0.11938639452E+02 -0.13055260551E+01  0.41705969433E+02  0.47787269631E+02  0.19999993555E+02 0.  0.
        -12    1    1    2    0    0  0.11938639452E+02  0.13055260551E+01 -0.41705969433E+02  0.43400730369E+02  0.00000000000E+00 0.  1.
         11    1    3    3    0    0 -0.83002234538E+00 -0.28135587958E+01  0.45880108864E+00  0.29690990033E+01  0.51100000000E-03 0. -1.
        -11    1    3    3    0    0 -0.80278479750E+00 -0.44119550459E+00 -0.96023166557E+00  0.13270877955E+01  0.51100000000E-03 0.  1.
         12    1    3    3    0    0 -0.10305832309E+02  0.19492282453E+01  0.42207400010E+02  0.43491082832E+02  0.00000000000E+00 0. -1.
</event>
<event>
 7    1  0.2294216E-010  0.4778727E+02  0.7816164E-02  0.1312668E+00
        -11   -1    0    0    0    0  0.00000000000E+00  0.00000000000E+00  0.45593999997E+02  0.45594000000E+02  0.51100000000E-03 0.  1.
         11   -1    0    0    0    0 -0.00000000000E+00 -0.00000000000E+00 -0.45593999997E+02  0.45594000000E+02  0.51100000000E-03 0. -1.
    9900012    2    1    2    0    0  0.35696719026E+02 -0.83307313826E+01 -0.23237177667E+02  0.47787271198E+02  0.20000000700E+02 0.  0.
        -12    1    1    2    0    0 -0.35696719026E+02  0.83307313826E+01  0.23237177667E+02  0.43400728802E+02  0.00000000000E+00 0.  1.
         11    1    3    3    0    0  0.91107307894E+01  0.16966234025E+01 -0.54582714763E+01  0.10755309120E+02  0.51100000000E-03 0. -1.
        -11    1    3    3    0    0  0.12521049711E+02 -0.67747966414E+01 -0.17544556476E+02  0.22593937629E+02  0.51100000000E-03 0.  1.
        -12    1    3    3    0    0  0.14064938526E+02 -0.32525581437E+01 -0.23434971531E+00  0.14438024449E+02  0.00000000000E+00 0.  1.
</event>
<event>
 7    1  0.2294216E-010  0.4778727E+02  0.7816164E-02  0.1312668E+00
        -11   -1    0    0    0    0  0.00000000000E+00  0.00000000000E+00  0.45593999997E+02  0.45594000000E+02  0.51100000000E-03 0.  1.
         11   -1    0    0    0    0 -0.00000000000E+00 -0.00000000000E+00 -0.45593999997E+02  0.45594000000E+02  0.51100000000E-03 0. -1.
    9900012    2    1    2    0    0  0.20596196425E+02 -0.44785630553E+01 -0.37938927426E+02  0.47787273641E+02  0.20000011839E+02 0.  0.
        -12    1    1    2    0    0 -0.20596196425E+02  0.44785630553E+01  0.37938927426E+02  0.43400726359E+02  0.00000000000E+00 0.  1.
         11    1    3    3    0    0  0.88223290847E+01 -0.21399732287E+01 -0.39701926570E+01  0.99083503114E+01  0.51100000000E-03 0. -1.
        -11    1    3    3    0    0  0.35828609860E+01  0.44810582316E+01 -0.83460566122E+01  0.10127854509E+02  0.51100000000E-03 0.  1.
         12    1    3    3    0    0  0.81910063544E+01 -0.68196480582E+01 -0.25622678157E+02  0.27751068821E+02  0.00000000000E+00 0. -1.
</event>
<event>
 7    1  0.2294216E-010  0.4778729E+02  0.7816164E-02  0.1312668E+00
        -11   -1    0    0    0    0  0.00000000000E+00  0.00000000000E+00  0.45593999997E+02  0.45594000000E+02  0.51100000000E-03 0. -1.
         11   -1    0    0    0    0 -0.00000000000E+00 -0.00000000000E+00 -0.45593999997E+02  0.45594000000E+02  0.51100000000E-03 0.  1.
    9900012    2    1    2    0    0 -0.16655080298E+02  0.39806923457E+02 -0.46517327936E+01  0.47787291793E+02  0.20000094601E+02 0.  0.
        -12    1    1    2    0    0  0.16655080298E+02 -0.39806923457E+02  0.46517327936E+01  0.43400708207E+02  0.00000000000E+00 0.  1.
         11    1    3    3    0    0 -0.95837346636E+01  0.16297627353E+02  0.32573426281E+01  0.19185174190E+02  0.51100000000E-03 0. -1.
        -11    1    3    3    0    0 -0.13233481229E+01  0.17799742447E+02 -0.87076451289E+00  0.17870095482E+02  0.51100000000E-03 0.  1.
        -12    1    3    3    0    0 -0.57479975113E+01  0.57095536570E+01 -0.70383109088E+01  0.10732022121E+02  0.00000000000E+00 0.  1.
</event>
<event>
 7    1  0.2294216E-010  0.4778725E+02  0.7816164E-02  0.1312668E+00
        -11   -1    0    0    0    0  0.00000000000E+00  0.00000000000E+00  0.45593999997E+02  0.45594000000E+02  0.51100000000E-03 0.  1.
         11   -1    0    0    0    0 -0.00000000000E+00 -0.00000000000E+00 -0.45593999997E+02  0.45594000000E+02  0.51100000000E-03 0. -1.
    9900012    2    1    2    0    0  0.17063151627E+02 -0.39557283676E+02 -0.52625890599E+01  0.47787254858E+02  0.19999926199E+02 0.  0.
        -12    1    1    2    0    0 -0.17063151627E+02  0.39557283676E+02  0.52625890599E+01  0.43400745142E+02  0.00000000000E+00 0.  1.
         11    1    3    3    0    0  0.75829294129E+01 -0.12143341515E+02 -0.81561217466E+01  0.16476768004E+02  0.51100000000E-03 0. -1.
        -11    1    3    3    0    0 -0.25637752782E+01 -0.38112239263E+01 -0.38978873937E+00  0.46098055291E+01  0.51100000000E-03 0.  1.
         12    1    3    3    0    0  0.12043997492E+02 -0.23602718234E+02  0.32833214260E+01  0.26700681325E+02  0.00000000000E+00 0. -1.
</event>
<event>
 7    1  0.2294216E-010  0.4778727E+02  0.7816164E-02  0.1312668E+00
        -11   -1    0    0    0    0  0.00000000000E+00  0.00000000000E+00  0.45593999997E+02  0.45594000000E+02  0.51100000000E-03 0. -1.
         11   -1    0    0    0    0 -0.00000000000E+00 -0.00000000000E+00 -0.45593999997E+02  0.45594000000E+02  0.51100000000E-03 0.  1.
    9900012    2    1    2    0    0  0.23499246196E+01  0.59190369680E+00  0.43333019541E+02  0.47787273298E+02  0.20000010276E+02 0.  0.
        -12    1    1    2    0    0 -0.23499246196E+01 -0.59190369680E+00 -0.43333019541E+02  0.43400726702E+02  0.00000000000E+00 0.  1.
         11    1    3    3    0    0 -0.76426672737E+01  0.13055595136E+01  0.15691400903E+02  0.17502425868E+02  0.51100000000E-03 0. -1.
        -11    1    3    3    0    0  0.15387709755E+01 -0.26650330642E+01  0.36587303310E+01  0.47808498454E+01  0.51100000000E-03 0.  1.
         12    1    3    3    0    0  0.84538209179E+01  0.19513772473E+01  0.23982888307E+02  0.25503997585E+02  0.00000000000E+00 0. -1.
</event>
<event>
 7    1  0.2294216E-010  0.4778727E+02  0.7816164E-02  0.1312668E+00
        -11   -1    0    0    0    0  0.00000000000E+00  0.00000000000E+00  0.45593999997E+02  0.45594000000E+02  0.51100000000E-03 0.  1.
         11   -1    0    0    0    0 -0.00000000000E+00 -0.00000000000E+00 -0.45593999997E+02  0.45594000000E+02  0.51100000000E-03 0. -1.
    9900012    2    1    2    0    0 -0.23292303698E+02 -0.36310819885E+02 -0.47557042194E+01  0.47787265273E+02  0.19999973684E+02 0.  0.
        -12    1    1    2    0    0  0.23292303698E+02  0.36310819885E+02  0.47557042194E+01  0.43400734727E+02  0.00000000000E+00 0.  1.
         11    1    3    3    0    0 -0.71219753563E+01 -0.10323048256E+02 -0.56024569230E+01  0.13735915773E+02  0.51100000000E-03 0. -1.
        -11    1    3    3    0    0 -0.98091229299E+01 -0.18004426348E+02  0.75391855811E+01  0.21845310258E+02  0.51100000000E-03 0.  1.
        -12    1    3    3    0    0 -0.63612054116E+01 -0.79833452806E+01 -0.66924328776E+01  0.12206039242E+02  0.00000000000E+00 0.  1.
</event>
<event>
 7    1  0.2294216E-010  0.4778725E+02  0.7816164E-02  0.1312668E+00
        -11   -1    0    0    0    0  0.00000000000E+00  0.00000000000E+00  0.45593999997E+02  0.45594000000E+02  0.51100000000E-03 0. -1.
         11   -1    0    0    0    0 -0.00000000000E+00 -0.00000000000E+00 -0.45593999997E+02  0.45594000000E+02  0.51100000000E-03 0.  1.
    9900012    2    1    2    0    0  0.18240936801E+02 -0.32871868213E+02  0.21687183718E+02  0.47787246172E+02  0.19999886596E+02 0.  0.
        -12    1    1    2    0    0 -0.18240936801E+02  0.32871868213E+02 -0.21687183718E+02  0.43400753828E+02  0.00000000000E+00 0.  1.
         11    1    3    3    0    0  0.18675732382E+02 -0.23753136378E+02  0.93137404794E+01  0.31618669007E+02  0.51100000000E-03 0. -1.
        -11    1    3    3    0    0  0.21262109762E+01 -0.29465578407E+01  0.54143927347E+01  0.65206307342E+01  0.51100000000E-03 0.  1.
         12    1    3    3    0    0 -0.25610065574E+01 -0.61721739947E+01  0.69590505041E+01  0.96479464305E+01  0.00000000000E+00 0. -1.
</event>
<event>
 7    1  0.2294216E-010  0.4778727E+02  0.7816164E-02  0.1312668E+00
        -11   -1    0    0    0    0  0.00000000000E+00  0.00000000000E+00  0.45593999997E+02  0.45594000000E+02  0.51100000000E-03 0. -1.
         11   -1    0    0    0    0 -0.00000000000E+00 -0.00000000000E+00 -0.45593999997E+02  0.45594000000E+02  0.51100000000E-03 0.  1.
    9900012    2    1    2    0    0  0.34348589424E+02  0.22130055795E+02  0.14630738551E+02  0.47787268722E+02  0.19999989411E+02 0.  0.
        -12    1    1    2    0    0 -0.34348589424E+02 -0.22130055795E+02 -0.14630738551E+02  0.43400731278E+02  0.00000000000E+00 0.  1.
         11    1    3    3    0    0  0.44081841456E+00  0.29320965945E+01  0.29610437014E+01  0.41903808152E+01  0.51100000000E-03 0. -1.
        -11    1    3    3    0    0  0.21118239784E+02  0.18570060918E+02  0.33358293299E+01  0.28318809503E+02  0.51100000000E-03 0.  1.
        -12    1    3    3    0    0  0.12789531225E+02  0.62789828269E+00  0.83338655201E+01  0.15278078404E+02  0.00000000000E+00 0.  1.
</event>
<event>
 7    1  0.2294216E-010  0.4778727E+02  0.7816164E-02  0.1312668E+00
        -11   -1    0    0    0    0  0.00000000000E+00  0.00000000000E+00  0.45593999997E+02  0.45594000000E+02  0.51100000000E-03 0.  1.
         11   -1    0    0    0    0 -0.00000000000E+00 -0.00000000000E+00 -0.45593999997E+02  0.45594000000E+02  0.51100000000E-03 0. -1.
    9900012    2    1    2    0    0 -0.18165889993E+02 -0.15237890445E+02 -0.36351487855E+02  0.47787268051E+02  0.19999986352E+02 0.  0.
        -12    1    1    2    0    0  0.18165889993E+02  0.15237890445E+02  0.36351487855E+02  0.43400731949E+02  0.00000000000E+00 0.  1.
         11    1    3    3    0    0 -0.31125205797E+01 -0.30347604964E+01 -0.38154469880E+01  0.57840463007E+01  0.51100000000E-03 0. -1.
        -11    1    3    3    0    0 -0.19381668671E+01 -0.87657034876E+01 -0.24841250306E+02  0.26413666264E+02  0.51100000000E-03 0.  1.
        -12    1    3    3    0    0 -0.13115202546E+02 -0.34374264605E+01 -0.76947905605E+01  0.15589555487E+02  0.00000000000E+00 0.  1.
</event>
<event>
 7    1  0.2294216E-010  0.4778726E+02  0.7816164E-02  0.1312668E+00
        -11   -1    0    0    0    0  0.00000000000E+00  0.00000000000E+00  0.45593999997E+02  0.45594000000E+02  0.51100000000E-03 0. -1.
         11   -1    0    0    0    0 -0.00000000000E+00 -0.00000000000E+00 -0.45593999997E+02  0.45594000000E+02  0.51100000000E-03 0.  1.
    9900012    2    1    2    0    0  0.92693487920E+01 -0.71961201375E+01  0.41784201577E+02  0.47787257224E+02  0.19999936987E+02 0.  0.
        -12    1    1    2    0    0 -0.92693487920E+01  0.71961201375E+01 -0.41784201577E+02  0.43400742776E+02  0.00000000000E+00 0.  1.
         11    1    3    3    0    0  0.49890287167E+01 -0.78961056194E+01  0.12759706773E+02  0.15812938015E+02  0.51100000000E-03 0. -1.
        -11    1    3    3    0    0  0.73537206295E+01 -0.15218396616E+01  0.96267036643E+01  0.12209284449E+02  0.51100000000E-03 0.  1.
         12    1    3    3    0    0 -0.30734005541E+01  0.22218251434E+01  0.19397791140E+02  0.19765034760E+02  0.00000000000E+00 0. -1.
</event>
<event>
 7    1  0.2294216E-010  0.4778727E+02  0.7816164E-02  0.1312668E+00
        -11   -1    0    0    0    0  0.00000000000E+00  0.00000000000E+00  0.45593999997E+02  0.45594000000E+02  0.51100000000E-03 0.  1.
         11   -1    0    0    0    0 -0.00000000000E+00 -0.00000000000E+00 -0.45593999997E+02  0.45594000000E+02  0.51100000000E-03 0. -1.
    9900012    2    1    2    0    0 -0.11839293232E+02 -0.14459042292E+00 -0.41754446316E+02  0.47787267774E+02  0.19999985089E+02 0.  0.
        -12    1    1    2    0    0  0.11839293232E+02  0.14459042292E+00  0.41754446316E+02  0.43400732226E+02  0.00000000000E+00 0.  1.
         11    1    3    3    0    0 -0.47326671648E+01 -0.16129443211E+01 -0.70064158540E+01  0.86075310778E+01  0.51100000000E-03 0. -1.
        -11    1    3    3    0    0  0.13711575986E+01  0.34186789877E+01 -0.35143046033E+00  0.37001274046E+01  0.51100000000E-03 0.  1.
         12    1    3    3    0    0 -0.84777836655E+01 -0.19503250895E+01 -0.34396600001E+02  0.35479609292E+02  0.00000000000E+00 0. -1.
</event>
<event>
 7    1  0.2294216E-010  0.4778727E+02  0.7816164E-02  0.1312668E+00
        -11   -1    0    0    0    0  0.00000000000E+00  0.00000000000E+00  0.45593999997E+02  0.45594000000E+02  0.51100000000E-03 0.  1.
         11   -1    0    0    0    0 -0.00000000000E+00 -0.00000000000E+00 -0.45593999997E+02  0.45594000000E+02  0.51100000000E-03 0. -1.
    9900012    2    1    2    0    0 -0.28165271863E+02  0.10308003036E+02 -0.31370142036E+02  0.47787271008E+02  0.19999999833E+02 0.  0.
        -12    1    1    2    0    0  0.28165271863E+02 -0.10308003036E+02  0.31370142036E+02  0.43400728992E+02  0.00000000000E+00 0.  1.
         11    1    3    3    0    0 -0.15963278714E+02  0.10712632437E+02 -0.14959867516E+02  0.24359482699E+02  0.51100000000E-03 0. -1.
        -11    1    3    3    0    0 -0.10304921431E+02  0.41794335372E+01 -0.81305582491E+01  0.13775523515E+02  0.51100000000E-03 0.  1.
        -12    1    3    3    0    0 -0.18970717176E+01 -0.45840629385E+01 -0.82797162707E+01  0.96522647938E+01  0.00000000000E+00 0.  1.
</event>
<event>
 7    1  0.2294216E-010  0.4778727E+02  0.7816164E-02  0.1312668E+00
        -11   -1    0    0    0    0  0.00000000000E+00  0.00000000000E+00  0.45593999997E+02  0.45594000000E+02  0.51100000000E-03 0.  1.
         11   -1    0    0    0    0 -0.00000000000E+00 -0.00000000000E+00 -0.45593999997E+02  0.45594000000E+02  0.51100000000E-03 0. -1.
    9900012    2    1    2    0    0  0.12089519235E+02  0.20733457726E+02 -0.36160620470E+02  0.47787271695E+02  0.20000002967E+02 0.  0.
        -12    1    1    2    0    0 -0.12089519235E+02 -0.20733457726E+02  0.36160620470E+02  0.43400728305E+02  0.00000000000E+00 0.  1.
         11    1    3    3    0    0  0.11157615890E+02  0.13490540915E+02 -0.15134911738E+02  0.23142010287E+02  0.51100000000E-03 0. -1.
        -11    1    3    3    0    0  0.37479315075E+01 -0.14157698487E-01 -0.23797357057E+01  0.44396321149E+01  0.51100000000E-03 0.  1.
        -12    1    3    3    0    0 -0.28160281626E+01  0.72570745089E+01 -0.18645973027E+02  0.20205629294E+02  0.00000000000E+00 0.  1.
</event>
<event>
 7    1  0.2294216E-010  0.4778725E+02  0.7816164E-02  0.1312668E+00
        -11   -1    0    0    0    0  0.00000000000E+00  0.00000000000E+00  0.45593999997E+02  0.45594000000E+02  0.51100000000E-03 0. -1.
         11   -1    0    0    0    0 -0.00000000000E+00 -0.00000000000E+00 -0.45593999997E+02  0.45594000000E+02  0.51100000000E-03 0.  1.
    9900012    2    1    2    0    0 -0.21411956318E+02 -0.36625457763E+02  0.91503662082E+01  0.47787248492E+02  0.19999897175E+02 0.  0.
        -12    1    1    2    0    0  0.21411956318E+02  0.36625457763E+02 -0.91503662082E+01  0.43400751508E+02  0.00000000000E+00 0.  1.
         11    1    3    3    0    0 -0.14471788985E+02 -0.10197677459E+02  0.98924650720E+01  0.20280191504E+02  0.51100000000E-03 0. -1.
        -11    1    3    3    0    0  0.14352302207E+00 -0.32134818390E+01  0.14353417888E+00  0.32198861329E+01  0.51100000000E-03 0.  1.
         12    1    3    3    0    0 -0.70836903552E+01 -0.23214298465E+02 -0.88563304269E+00  0.24287170855E+02  0.00000000000E+00 0. -1.
</event>
<event>
 7    1  0.2294216E-010  0.4778727E+02  0.7816164E-02  0.1312668E+00
        -11   -1    0    0    0    0  0.00000000000E+00  0.00000000000E+00  0.45593999997E+02  0.45594000000E+02  0.51100000000E-03 0. -1.
         11   -1    0    0    0    0 -0.00000000000E+00 -0.00000000000E+00 -0.45593999997E+02  0.45594000000E+02  0.51100000000E-03 0.  1.
    9900012    2    1    2    0    0 -0.18799028023E+02  0.30843337048E+01  0.38996239602E+02  0.47787271065E+02  0.20000000092E+02 0.  0.
        -12    1    1    2    0    0  0.18799028023E+02 -0.30843337048E+01 -0.38996239602E+02  0.43400728935E+02  0.00000000000E+00 0.  1.
         11    1    3    3    0    0  0.20681593201E+01  0.80492131092E+00  0.84773374475E+00  0.23756754941E+01  0.51100000000E-03 0. -1.
        -11    1    3    3    0    0  0.17864617162E+01 -0.31806727024E+00  0.33012577948E+01  0.37670831608E+01  0.51100000000E-03 0.  1.
         12    1    3    3    0    0 -0.22653649059E+02  0.25974796642E+01  0.34847248063E+02  0.41644512410E+02  0.00000000000E+00 0. -1.
</event>
<event>
 7    1  0.2294216E-010  0.4778729E+02  0.7816164E-02  0.1312668E+00
        -11   -1    0    0    0    0  0.00000000000E+00  0.00000000000E+00  0.45593999997E+02  0.45594000000E+02  0.51100000000E-03 0.  1.
         11   -1    0    0    0    0 -0.00000000000E+00 -0.00000000000E+00 -0.45593999997E+02  0.45594000000E+02  0.51100000000E-03 0. -1.
    9900012    2    1    2    0    0  0.94551948050E+01  0.12334414530E+00 -0.42358066639E+02  0.47787288808E+02  0.20000080989E+02 0.  0.
        -12    1    1    2    0    0 -0.94551948050E+01 -0.12334414530E+00  0.42358066639E+02  0.43400711192E+02  0.00000000000E+00 0.  1.
         11    1    3    3    0    0  0.41663830937E+01  0.20782793688E+00 -0.34277943509E+02  0.34530846385E+02  0.51100000000E-03 0. -1.
        -11    1    3    3    0    0  0.25927385607E+01  0.33334329162E+01 -0.78297067818E+01  0.88959753148E+01  0.51100000000E-03 0.  1.
        -12    1    3    3    0    0  0.26960731506E+01 -0.34179167078E+01 -0.25041634823E+00  0.43604671082E+01  0.00000000000E+00 0.  1.
</event>
<event>
 7    1  0.2294216E-010  0.4778727E+02  0.7816164E-02  0.1312668E+00
        -11   -1    0    0    0    0  0.00000000000E+00  0.00000000000E+00  0.45593999997E+02  0.45594000000E+02  0.51100000000E-03 0. -1.
         11   -1    0    0    0    0 -0.00000000000E+00 -0.00000000000E+00 -0.45593999997E+02  0.45594000000E+02  0.51100000000E-03 0.  1.
    9900012    2    1    2    0    0 -0.10208142715E+02  0.42183102198E+02 -0.56489165982E-01  0.47787268672E+02  0.19999989184E+02 0.  0.
        -12    1    1    2    0    0  0.10208142715E+02 -0.42183102198E+02  0.56489165982E-01  0.43400731328E+02  0.00000000000E+00 0.  1.
         11    1    3    3    0    0  0.18261266361E+01  0.15027019564E+00 -0.21105796281E+01  0.27949716010E+01  0.51100000000E-03 0. -1.
        -11    1    3    3    0    0 -0.29162128547E+01  0.72876311824E+01  0.43919406120E+01  0.89946099562E+01  0.51100000000E-03 0.  1.
         12    1    3    3    0    0 -0.91180564967E+01  0.34745200820E+02 -0.23378501499E+01  0.35997687115E+02  0.00000000000E+00 0. -1.
</event>
<event>
 7    1  0.2294216E-010  0.4778727E+02  0.7816164E-02  0.1312668E+00
        -11   -1    0    0    0    0  0.00000000000E+00  0.00000000000E+00  0.45593999997E+02  0.45594000000E+02  0.51100000000E-03 0.  1.
         11   -1    0    0    0    0 -0.00000000000E+00 -0.00000000000E+00 -0.45593999997E+02  0.45594000000E+02  0.51100000000E-03 0. -1.
    9900012    2    1    2    0    0  0.54938293687E+01 -0.33944667717E+01 -0.42917578855E+02  0.47787272580E+02  0.20000007000E+02 0.  0.
        -12    1    1    2    0    0 -0.54938293687E+01  0.33944667717E+01  0.42917578855E+02  0.43400727420E+02  0.00000000000E+00 0.  1.
         11    1    3    3    0    0 -0.23873290118E+01  0.30326363426E+01 -0.32149912300E+02  0.32380751754E+02  0.51100000000E-03 0. -1.
        -11    1    3    3    0    0  0.36883202796E+01 -0.13882155497E+01 -0.64450346421E+01  0.75544239155E+01  0.51100000000E-03 0.  1.
         12    1    3    3    0    0  0.41928381010E+01 -0.50388875647E+01 -0.43226319135E+01  0.78520969104E+01  0.00000000000E+00 0. -1.
</event>
<event>
 7    1  0.2294216E-010  0.4778727E+02  0.7816164E-02  0.1312668E+00
        -11   -1    0    0    0    0  0.00000000000E+00  0.00000000000E+00  0.45593999997E+02  0.45594000000E+02  0.51100000000E-03 0.  1.
         11   -1    0    0    0    0 -0.00000000000E+00 -0.00000000000E+00 -0.45593999997E+02  0.45594000000E+02  0.51100000000E-03 0. -1.
    9900012    2    1    2    0    0  0.35362219384E+02 -0.11618551578E+02 -0.22319184110E+02  0.47787270975E+02  0.19999999685E+02 0.  0.
        -12    1    1    2    0    0 -0.35362219384E+02  0.11618551578E+02  0.22319184110E+02  0.43400729025E+02  0.00000000000E+00 0.  1.
         11    1    3    3    0    0  0.10842513784E+02 -0.44689244497E+01 -0.95724743357E+01  0.15138152333E+02  0.51100000000E-03 0. -1.
        -11    1    3    3    0    0  0.22227523412E+02 -0.11333829870E+02 -0.87980078876E+01  0.26456066216E+02  0.51100000000E-03 0.  1.
        -12    1    3    3    0    0  0.22921821870E+01  0.41842027414E+01 -0.39487018872E+01  0.61930524262E+01  0.00000000000E+00 0.  1.
</event>
<event>
 7    1  0.2294216E-010  0.4778727E+02  0.7816164E-02  0.1312668E+00
        -11   -1    0    0    0    0  0.00000000000E+00  0.00000000000E+00  0.45593999997E+02  0.45594000000E+02  0.51100000000E-03 0.  1.
         11   -1    0    0    0    0 -0.00000000000E+00 -0.00000000000E+00 -0.45593999997E+02  0.45594000000E+02  0.51100000000E-03 0. -1.
    9900012    2    1    2    0    0 -0.24595030869E+02  0.35751313100E+02 -0.74253011119E+00  0.47787270941E+02  0.19999999530E+02 0.  0.
        -12    1    1    2    0    0  0.24595030869E+02 -0.35751313100E+02  0.74253011119E+00  0.43400729059E+02  0.00000000000E+00 0.  1.
         11    1    3    3    0    0 -0.19180713342E+02  0.23763733761E+02  0.30311621700E+00  0.30540246991E+02  0.51100000000E-03 0. -1.
        -11    1    3    3    0    0 -0.76547052887E+01  0.34646706239E+01 -0.44104843026E+00  0.84138564028E+01  0.51100000000E-03 0.  1.
        -12    1    3    3    0    0  0.22403877620E+01  0.85229087156E+01 -0.60459789794E+00  0.88331675472E+01  0.00000000000E+00 0.  1.
</event>
<event>
 7    1  0.2294216E-010  0.4778727E+02  0.7816164E-02  0.1312668E+00
        -11   -1    0    0    0    0  0.00000000000E+00  0.00000000000E+00  0.45593999997E+02  0.45594000000E+02  0.51100000000E-03 0.  1.
         11   -1    0    0    0    0 -0.00000000000E+00 -0.00000000000E+00 -0.45593999997E+02  0.45594000000E+02  0.51100000000E-03 0. -1.
    9900012    2    1    2    0    0  0.31673745381E+02 -0.17461739469E+02 -0.23989262928E+02  0.47787271578E+02  0.20000002432E+02 0.  0.
        -12    1    1    2    0    0 -0.31673745381E+02  0.17461739469E+02  0.23989262928E+02  0.43400728422E+02  0.00000000000E+00 0.  1.
         11    1    3    3    0    0  0.29545611595E+02 -0.20505166227E+02 -0.19530396744E+02  0.40924826253E+02  0.51100000000E-03 0. -1.
        -11    1    3    3    0    0  0.26308503430E+01  0.60879436127E+00 -0.19526642323E+01  0.33324018315E+01  0.51100000000E-03 0.  1.
         12    1    3    3    0    0 -0.50271655728E+00  0.24346323971E+01 -0.25062019515E+01  0.35300434937E+01  0.00000000000E+00 0. -1.
</event>
<event>
 7    1 -0.2294216E-010  0.4778727E+02  0.7816164E-02  0.1312668E+00
        -11   -1    0    0    0    0  0.00000000000E+00  0.00000000000E+00  0.45593999997E+02  0.45594000000E+02  0.51100000000E-03 0.  1.
         11   -1    0    0    0    0 -0.00000000000E+00 -0.00000000000E+00 -0.45593999997E+02  0.45594000000E+02  0.51100000000E-03 0. -1.
    9900012    2    1    2    0    0  0.18216648093E+01  0.49480448783E+01 -0.43079249411E+02  0.47787270276E+02  0.19999996495E+02 0.  0.
        -12    1    1    2    0    0 -0.18216648093E+01 -0.49480448783E+01  0.43079249411E+02  0.43400729724E+02  0.00000000000E+00 0.  1.
         11    1    3    3    0    0  0.64949845705E+01 -0.11763059895E+01 -0.27385818147E+02  0.28170047146E+02  0.51100000000E-03 0. -1.
        -11    1    3    3    0    0 -0.16015023679E+01  0.41141358721E+01 -0.15301018229E+02  0.15925202759E+02  0.51100000000E-03 0.  1.
         12    1    3    3    0    0 -0.30718173932E+01  0.20102149956E+01 -0.39241303430E+00  0.36920203704E+01  0.00000000000E+00 0. -1.
</event>
<event>
 7    1  0.2294216E-010  0.4778727E+02  0.7816164E-02  0.1312668E+00
        -11   -1    0    0    0    0  0.00000000000E+00  0.00000000000E+00  0.45593999997E+02  0.45594000000E+02  0.51100000000E-03 0.  1.
         11   -1    0    0    0    0 -0.00000000000E+00 -0.00000000000E+00 -0.45593999997E+02  0.45594000000E+02  0.51100000000E-03 0. -1.
    9900012    2    1    2    0    0 -0.14131578768E+02  0.40920658690E+02 -0.30694362690E+01  0.47787271145E+02  0.20000000460E+02 0.  0.
        -12    1    1    2    0    0  0.14131578768E+02 -0.40920658690E+02  0.30694362690E+01  0.43400728855E+02  0.00000000000E+00 0.  1.
         11    1    3    3    0    0 -0.90109544498E+00  0.87889313476E+01 -0.36119723633E+01  0.95448222534E+01  0.51100000000E-03 0. -1.
        -11    1    3    3    0    0 -0.14281764334E+02  0.32818710803E+02  0.25415415807E+01  0.35881694569E+02  0.51100000000E-03 0.  1.
        -12    1    3    3    0    0  0.10512810105E+01 -0.68698346094E+00 -0.19990054864E+01  0.23607543229E+01  0.00000000000E+00 0.  1.
</event>
<event>
 7    1  0.2294216E-010  0.4778727E+02  0.7816164E-02  0.1312668E+00
        -11   -1    0    0    0    0  0.00000000000E+00  0.00000000000E+00  0.45593999997E+02  0.45594000000E+02  0.51100000000E-03 0.  1.
         11   -1    0    0    0    0 -0.00000000000E+00 -0.00000000000E+00 -0.45593999997E+02  0.45594000000E+02  0.51100000000E-03 0. -1.
    9900012    2    1    2    0    0 -0.25034154813E+01 -0.15138322443E+02 -0.40597873920E+02  0.47787271178E+02  0.20000000608E+02 0.  0.
        -12    1    1    2    0    0  0.25034154813E+01  0.15138322443E+02  0.40597873920E+02  0.43400728822E+02  0.00000000000E+00 0.  1.
         11    1    3    3    0    0  0.76325699401E+00 -0.77703915454E+01 -0.15140106494E+02  0.17034798823E+02  0.51100000000E-03 0.  1.
        -11    1    3    3    0    0 -0.25248809389E+01 -0.11483962927E+02 -0.23176109000E+02  0.25988236895E+02  0.51100000000E-03 0. -1.
        -12    1    3    3    0    0 -0.74179153638E+00  0.41160320292E+01 -0.22816584258E+01  0.47642354603E+01  0.00000000000E+00 0.  1.
</event>
<event>
 7    1  0.2294216E-010  0.4778727E+02  0.7816164E-02  0.1312668E+00
        -11   -1    0    0    0    0  0.00000000000E+00  0.00000000000E+00  0.45593999997E+02  0.45594000000E+02  0.51100000000E-03 0. -1.
         11   -1    0    0    0    0 -0.00000000000E+00 -0.00000000000E+00 -0.45593999997E+02  0.45594000000E+02  0.51100000000E-03 0.  1.
    9900012    2    1    2    0    0  0.41143963925E+02 -0.83439285993E+01 -0.11008010697E+02  0.47787271764E+02  0.20000003281E+02 0.  0.
        -12    1    1    2    0    0 -0.41143963925E+02  0.83439285993E+01  0.11008010697E+02  0.43400728236E+02  0.00000000000E+00 0.  1.
         11    1    3    3    0    0  0.53291591468E+01  0.14607155370E+00  0.41924546776E+01  0.67821788974E+01  0.51100000000E-03 0. -1.
        -11    1    3    3    0    0  0.10156156152E+02 -0.19104722248E+01  0.25431413640E+00  0.10337412048E+02  0.51100000000E-03 0.  1.
        -12    1    3    3    0    0  0.25658648626E+02 -0.65795279283E+01 -0.15454779511E+02  0.30667680819E+02  0.00000000000E+00 0.  1.
</event>
<event>
 7    1  0.2294216E-010  0.4778727E+02  0.7816164E-02  0.1312668E+00
        -11   -1    0    0    0    0  0.00000000000E+00  0.00000000000E+00  0.45593999997E+02  0.45594000000E+02  0.51100000000E-03 0.  1.
         11   -1    0    0    0    0 -0.00000000000E+00 -0.00000000000E+00 -0.45593999997E+02  0.45594000000E+02  0.51100000000E-03 0. -1.
    9900012    2    1    2    0    0  0.58490905876E+00  0.37361437409E+02 -0.22077231300E+02  0.47787271138E+02  0.20000000427E+02 0.  0.
        -12    1    1    2    0    0 -0.58490905876E+00 -0.37361437409E+02  0.22077231300E+02  0.43400728862E+02  0.00000000000E+00 0.  1.
         11    1    3    3    0    0 -0.16652970665E+01  0.13097176234E+02 -0.57327324774E+01  0.14393521513E+02  0.51100000000E-03 0.  1.
        -11    1    3    3    0    0  0.31591423998E+01  0.13851546787E+02 -0.17871384091E+02  0.22830503688E+02  0.51100000000E-03 0. -1.
         12    1    3    3    0    0 -0.90893627453E+00  0.10412714389E+02  0.15268852687E+01  0.10563245937E+02  0.00000000000E+00 0. -1.
</event>
<event>
 7    1  0.2294216E-010  0.4778727E+02  0.7816164E-02  0.1312668E+00
        -11   -1    0    0    0    0  0.00000000000E+00  0.00000000000E+00  0.45593999997E+02  0.45594000000E+02  0.51100000000E-03 0. -1.
         11   -1    0    0    0    0 -0.00000000000E+00 -0.00000000000E+00 -0.45593999997E+02  0.45594000000E+02  0.51100000000E-03 0.  1.
    9900012    2    1    2    0    0 -0.57548045700E+01  0.34212613525E+02  0.26076856925E+02  0.47787272277E+02  0.20000005620E+02 0.  0.
        -12    1    1    2    0    0  0.57548045700E+01 -0.34212613525E+02 -0.26076856925E+02  0.43400727723E+02  0.00000000000E+00 0.  1.
         11    1    3    3    0    0 -0.31253745032E+01  0.44066833378E+01  0.10900282972E+02  0.12165648070E+02  0.51100000000E-03 0. -1.
        -11    1    3    3    0    0 -0.73546991907E+01  0.15564506097E+02  0.84870697832E+01  0.19193118663E+02  0.51100000000E-03 0.  1.
         12    1    3    3    0    0  0.47252691240E+01  0.14241424090E+02  0.66895041696E+01  0.16428505545E+02  0.00000000000E+00 0. -1.
</event>
<event>
 7    1  0.2294216E-010  0.4778727E+02  0.7816164E-02  0.1312668E+00
        -11   -1    0    0    0    0  0.00000000000E+00  0.00000000000E+00  0.45593999997E+02  0.45594000000E+02  0.51100000000E-03 0.  1.
         11   -1    0    0    0    0 -0.00000000000E+00 -0.00000000000E+00 -0.45593999997E+02  0.45594000000E+02  0.51100000000E-03 0. -1.
    9900012    2    1    2    0    0 -0.32506812962E+01  0.39983222193E+02 -0.16564979128E+02  0.47787268216E+02  0.19999987106E+02 0.  0.
        -12    1    1    2    0    0  0.32506812962E+01 -0.39983222193E+02  0.16564979128E+02  0.43400731784E+02  0.00000000000E+00 0.  1.
         11    1    3    3    0    0 -0.25924930509E+01  0.42387007822E+01  0.17581876230E+01  0.52705624480E+01  0.51100000000E-03 0. -1.
        -11    1    3    3    0    0  0.59313833311E+01  0.10401466837E+02 -0.37414539048E+01  0.12544731889E+02  0.51100000000E-03 0.  1.
         12    1    3    3    0    0 -0.65895715764E+01  0.25343054574E+02 -0.14581712846E+02  0.29971973879E+02  0.00000000000E+00 0. -1.
</event>
<event>
 7    1  0.2294216E-010  0.4778729E+02  0.7816164E-02  0.1312668E+00
        -11   -1    0    0    0    0  0.00000000000E+00  0.00000000000E+00  0.45593999997E+02  0.45594000000E+02  0.51100000000E-03 0. -1.
         11   -1    0    0    0    0 -0.00000000000E+00 -0.00000000000E+00 -0.45593999997E+02  0.45594000000E+02  0.51100000000E-03 0.  1.
    9900012    2    1    2    0    0 -0.25838024136E+02  0.34725964547E+02  0.31820884377E+01  0.47787288119E+02  0.20000077849E+02 0.  0.
        -12    1    1    2    0    0  0.25838024136E+02 -0.34725964547E+02 -0.31820884377E+01  0.43400711881E+02  0.00000000000E+00 0.  1.
         11    1    3    3    0    0 -0.41998059736E+01  0.59003114923E+01  0.55537536935E+01  0.91266766279E+01  0.51100000000E-03 0. -1.
        -11    1    3    3    0    0 -0.12386154397E+01 -0.10615203195E+01  0.15663397194E+01  0.22615070139E+01  0.51100000000E-03 0.  1.
        -12    1    3    3    0    0 -0.20399602723E+02  0.29887173374E+02 -0.39380049751E+01  0.36399104477E+02  0.00000000000E+00 0.  1.
</event>
<event>
 7    1  0.2294216E-010  0.4778727E+02  0.7816164E-02  0.1312668E+00
        -11   -1    0    0    0    0  0.00000000000E+00  0.00000000000E+00  0.45593999997E+02  0.45594000000E+02  0.51100000000E-03 0.  1.
         11   -1    0    0    0    0 -0.00000000000E+00 -0.00000000000E+00 -0.45593999997E+02  0.45594000000E+02  0.51100000000E-03 0. -1.
    9900012    2    1    2    0    0 -0.28685840460E+02 -0.21548213869E+02 -0.24421718500E+02  0.47787270762E+02  0.19999998714E+02 0.  0.
        -12    1    1    2    0    0  0.28685840460E+02  0.21548213869E+02  0.24421718500E+02  0.43400729238E+02  0.00000000000E+00 0.  1.
         11    1    3    3    0    0 -0.36611159451E+01 -0.95220350072E+00 -0.26769874881E+01  0.46342986247E+01  0.51100000000E-03 0. -1.
        -11    1    3    3    0    0 -0.12260623699E+02 -0.14111884854E+02 -0.20523497647E+01  0.18806390601E+02  0.51100000000E-03 0.  1.
        -12    1    3    3    0    0 -0.12764100817E+02 -0.64841255141E+01 -0.19692381247E+02  0.24346581537E+02  0.00000000000E+00 0.  1.
</event>
<event>
 7    1  0.2294216E-010  0.4778728E+02  0.7816164E-02  0.1312668E+00
        -11   -1    0    0    0    0  0.00000000000E+00  0.00000000000E+00  0.45593999997E+02  0.45594000000E+02  0.51100000000E-03 0.  1.
         11   -1    0    0    0    0 -0.00000000000E+00 -0.00000000000E+00 -0.45593999997E+02  0.45594000000E+02  0.51100000000E-03 0. -1.
    9900012    2    1    2    0    0  0.21949629414E+02 -0.86556351002E+01 -0.36426862732E+02  0.47787279051E+02  0.20000036506E+02 0.  0.
        -12    1    1    2    0    0 -0.21949629414E+02  0.86556351002E+01  0.36426862732E+02  0.43400720949E+02  0.00000000000E+00 0.  1.
         11    1    3    3    0    0  0.55594591077E+01 -0.12152874931E+01 -0.10750839135E+01  0.57914000849E+01  0.51100000000E-03 0. -1.
        -11    1    3    3    0    0 -0.48147238280E+00 -0.21037651483E+01  0.31466279600E+00  0.21809760180E+01  0.51100000000E-03 0.  1.
         12    1    3    3    0    0  0.16871642689E+02 -0.53365824588E+01 -0.35666441614E+02  0.39814902948E+02  0.00000000000E+00 0. -1.
</event>
<event>
 7    1  0.2294216E-010  0.4778727E+02  0.7816164E-02  0.1312668E+00
        -11   -1    0    0    0    0  0.00000000000E+00  0.00000000000E+00  0.45593999997E+02  0.45594000000E+02  0.51100000000E-03 0. -1.
         11   -1    0    0    0    0 -0.00000000000E+00 -0.00000000000E+00 -0.45593999997E+02  0.45594000000E+02  0.51100000000E-03 0.  1.
    9900012    2    1    2    0    0  0.22585885015E+02 -0.31686445472E+02 -0.19221612267E+02  0.47787269514E+02  0.19999993022E+02 0.  0.
        -12    1    1    2    0    0 -0.22585885015E+02  0.31686445472E+02  0.19221612267E+02  0.43400730486E+02  0.00000000000E+00 0.  1.
         11    1    3    3    0    0  0.11944434744E+02 -0.12132141792E+02 -0.78393182561E+01  0.18743353403E+02  0.51100000000E-03 0. -1.
        -11    1    3    3    0    0  0.63937451364E+01 -0.16785294212E+01  0.12755173355E+01  0.67323385701E+01  0.51100000000E-03 0.  1.
        -12    1    3    3    0    0  0.42477051343E+01 -0.17875774259E+02 -0.12657811347E+02  0.22311577541E+02  0.00000000000E+00 0.  1.
</event>
<event>
 7    1  0.2294216E-010  0.4778728E+02  0.7816164E-02  0.1312668E+00
        -11   -1    0    0    0    0  0.00000000000E+00  0.00000000000E+00  0.45593999997E+02  0.45594000000E+02  0.51100000000E-03 0. -1.
         11   -1    0    0    0    0 -0.00000000000E+00 -0.00000000000E+00 -0.45593999997E+02  0.45594000000E+02  0.51100000000E-03 0.  1.
    9900012    2    1    2    0    0  0.18818125005E+02 -0.11995524730E+02  0.37223762311E+02  0.47787275089E+02  0.20000018439E+02 0.  0.
        -12    1    1    2    0    0 -0.18818125005E+02  0.11995524730E+02 -0.37223762311E+02  0.43400724911E+02  0.00000000000E+00 0.  1.
         11    1    3    3    0    0  0.53295037392E+01  0.18028440587E+01  0.25771267650E+01  0.61883309083E+01  0.51100000000E-03 0. -1.
        -11    1    3    3    0    0 -0.15494437756E+00  0.20799352163E+01  0.33352450895E+01  0.39337003358E+01  0.51100000000E-03 0.  1.
        -12    1    3    3    0    0  0.13643565644E+02 -0.15878304005E+02  0.31311390456E+02  0.37665243844E+02  0.00000000000E+00 0.  1.
</event>
<event>
 7    1  0.2294216E-010  0.4778724E+02  0.7816164E-02  0.1312668E+00
        -11   -1    0    0    0    0  0.00000000000E+00  0.00000000000E+00  0.45593999997E+02  0.45594000000E+02  0.51100000000E-03 0.  1.
         11   -1    0    0    0    0 -0.00000000000E+00 -0.00000000000E+00 -0.45593999997E+02  0.45594000000E+02  0.51100000000E-03 0. -1.
    9900012    2    1    2    0    0  0.41138289410E+02 -0.51979157511E-01 -0.13829844744E+02  0.47787237760E+02  0.19999848241E+02 0.  0.
        -12    1    1    2    0    0 -0.41138289410E+02  0.51979157511E-01  0.13829844744E+02  0.43400762240E+02  0.00000000000E+00 0.  1.
         11    1    3    3    0    0  0.38966067010E+01 -0.32330800265E+01 -0.44845445729E+01  0.67636891212E+01  0.51100000000E-03 0. -1.
        -11    1    3    3    0    0  0.17707609795E+02 -0.55005420097E+01 -0.50830026341E+01  0.19226344507E+02  0.51100000000E-03 0.  1.
        -12    1    3    3    0    0  0.19534072914E+02  0.86816428787E+01 -0.42622975374E+01  0.21797204132E+02  0.00000000000E+00 0.  1.
</event>
<event>
 7    1  0.2294216E-010  0.4778725E+02  0.7816164E-02  0.1312668E+00
        -11   -1    0    0    0    0  0.00000000000E+00  0.00000000000E+00  0.45593999997E+02  0.45594000000E+02  0.51100000000E-03 0.  1.
         11   -1    0    0    0    0 -0.00000000000E+00 -0.00000000000E+00 -0.45593999997E+02  0.45594000000E+02  0.51100000000E-03 0. -1.
    9900012    2    1    2    0    0  0.11043733501E+02  0.13337017627E+02 -0.39796792380E+02  0.47787253779E+02  0.19999921278E+02 0.  0.
        -12    1    1    2    0    0 -0.11043733501E+02 -0.13337017627E+02  0.39796792380E+02  0.43400746221E+02  0.00000000000E+00 0.  1.
         11    1    3    3    0    0  0.37818480328E+01  0.10073685301E+02 -0.35385605031E+02  0.36985437049E+02  0.51100000000E-03 0. -1.
        -11    1    3    3    0    0  0.20062376539E+01  0.37041071472E+01 -0.34408572084E+01  0.54392001132E+01  0.51100000000E-03 0.  1.
        -12    1    3    3    0    0  0.52556478143E+01 -0.44077482059E+00 -0.97033014095E+00  0.53626166162E+01  0.00000000000E+00 0.  1.
</event>
<event>
 7    1  0.2294216E-010  0.4778731E+02  0.7816164E-02  0.1312668E+00
        -11   -1    0    0    0    0  0.00000000000E+00  0.00000000000E+00  0.45593999997E+02  0.45594000000E+02  0.51100000000E-03 0.  1.
         11   -1    0    0    0    0 -0.00000000000E+00 -0.00000000000E+00 -0.45593999997E+02  0.45594000000E+02  0.51100000000E-03 0. -1.
    9900012    2    1    2    0    0  0.99939255254E+01  0.12969643753E+02 -0.40193651241E+02  0.47787310990E+02  0.20000182125E+02 0.  0.
        -12    1    1    2    0    0 -0.99939255254E+01 -0.12969643753E+02  0.40193651241E+02  0.43400689010E+02  0.00000000000E+00 0.  1.
         11    1    3    3    0    0  0.63658271521E+00 -0.10337725027E+01 -0.64697410173E+01  0.65826645237E+01  0.51100000000E-03 0. -1.
        -11    1    3    3    0    0 -0.26791892020E+01  0.10750453291E+02 -0.18011152657E+02  0.21145967016E+02  0.51100000000E-03 0.  1.
        -12    1    3    3    0    0  0.12036532012E+02  0.32529629651E+01 -0.15712757567E+02  0.20058679450E+02  0.00000000000E+00 0.  1.
</event>
<event>
 7    1  0.2294216E-010  0.4778727E+02  0.7816164E-02  0.1312668E+00
        -11   -1    0    0    0    0  0.00000000000E+00  0.00000000000E+00  0.45593999997E+02  0.45594000000E+02  0.51100000000E-03 0.  1.
         11   -1    0    0    0    0 -0.00000000000E+00 -0.00000000000E+00 -0.45593999997E+02  0.45594000000E+02  0.51100000000E-03 0. -1.
    9900012    2    1    2    0    0 -0.34086090598E+02 -0.82027820717E+01 -0.25582737566E+02  0.47787266511E+02  0.19999979332E+02 0.  0.
        -12    1    1    2    0    0  0.34086090598E+02  0.82027820717E+01  0.25582737566E+02  0.43400733489E+02  0.00000000000E+00 0.  1.
         11    1    3    3    0    0 -0.70641806806E+01 -0.13835035992E+01 -0.40525582787E+01  0.82607481357E+01  0.51100000000E-03 0. -1.
        -11    1    3    3    0    0 -0.27213727323E+00  0.33562470390E+01  0.50735549377E+00  0.34052698484E+01  0.51100000000E-03 0.  1.
        -12    1    3    3    0    0 -0.26749772644E+02 -0.10175525511E+02 -0.22037534781E+02  0.36121248527E+02  0.00000000000E+00 0.  1.
</event>
<event>
 7    1  0.2294216E-010  0.4778726E+02  0.7816164E-02  0.1312668E+00
        -11   -1    0    0    0    0  0.00000000000E+00  0.00000000000E+00  0.45593999997E+02  0.45594000000E+02  0.51100000000E-03 0. -1.
         11   -1    0    0    0    0 -0.00000000000E+00 -0.00000000000E+00 -0.45593999997E+02  0.45594000000E+02  0.51100000000E-03 0.  1.
    9900012    2    1    2    0    0  0.27518848488E+02  0.23392471629E+02  0.24065114352E+02  0.47787257151E+02  0.19999936655E+02 0.  0.
        -12    1    1    2    0    0 -0.27518848488E+02 -0.23392471629E+02 -0.24065114352E+02  0.43400742849E+02  0.00000000000E+00 0.  1.
         11    1    3    3    0    0  0.72858748520E+01  0.82060537734E+01  0.35103035008E+01  0.11521524284E+02  0.51100000000E-03 0. -1.
        -11    1    3    3    0    0  0.59993074456E+01  0.14135974769E+02  0.83106303832E+01  0.17460929246E+02  0.51100000000E-03 0.  1.
         12    1    3    3    0    0  0.14233666191E+02  0.10504430866E+01  0.12244180468E+02  0.18804803621E+02  0.00000000000E+00 0. -1.
</event>
<event>
 7    1  0.2294216E-010  0.4778727E+02  0.7816164E-02  0.1312668E+00
        -11   -1    0    0    0    0  0.00000000000E+00  0.00000000000E+00  0.45593999997E+02  0.45594000000E+02  0.51100000000E-03 0.  1.
         11   -1    0    0    0    0 -0.00000000000E+00 -0.00000000000E+00 -0.45593999997E+02  0.45594000000E+02  0.51100000000E-03 0. -1.
    9900012    2    1    2    0    0  0.79215094957E+01  0.27491167629E+02 -0.32636001066E+02  0.47787272173E+02  0.20000005148E+02 0.  0.
        -12    1    1    2    0    0 -0.79215094957E+01 -0.27491167629E+02  0.32636001066E+02  0.43400727827E+02  0.00000000000E+00 0.  1.
         11    1    3    3    0    0  0.32759548517E+01  0.10872877969E+02 -0.10927680734E+02  0.15759618079E+02  0.51100000000E-03 0. -1.
        -11    1    3    3    0    0  0.10580645937E+01  0.14366519314E+02 -0.23390211467E+02  0.27470317992E+02  0.51100000000E-03 0.  1.
        -12    1    3    3    0    0  0.35874900503E+01  0.22517703470E+01  0.16818911352E+01  0.45573361021E+01  0.00000000000E+00 0.  1.
</event>
<event>
 7    1  0.2294216E-010  0.4778727E+02  0.7816164E-02  0.1312668E+00
        -11   -1    0    0    0    0  0.00000000000E+00  0.00000000000E+00  0.45593999997E+02  0.45594000000E+02  0.51100000000E-03 0. -1.
         11   -1    0    0    0    0 -0.00000000000E+00 -0.00000000000E+00 -0.45593999997E+02  0.45594000000E+02  0.51100000000E-03 0.  1.
    9900012    2    1    2    0    0 -0.18107453502E+01  0.43320043088E+02 -0.19282525536E+01  0.47787273165E+02  0.20000009671E+02 0.  0.
        -12    1    1    2    0    0  0.18107453502E+01 -0.43320043088E+02  0.19282525536E+01  0.43400726835E+02  0.00000000000E+00 0.  1.
         11    1    3    3    0    0 -0.22208010575E+01  0.40653422340E+01 -0.43756643457E+01  0.63722369340E+01  0.51100000000E-03 0. -1.
        -11    1    3    3    0    0 -0.52743274787E+01  0.20801631528E+02 -0.21475676433E+01  0.21567068684E+02  0.51100000000E-03 0.  1.
         12    1    3    3    0    0  0.56843831860E+01  0.18453069326E+02  0.45949794354E+01  0.19847967548E+02  0.00000000000E+00 0. -1.
</event>
<event>
 7    1  0.2294216E-010  0.4778727E+02  0.7816164E-02  0.1312668E+00
        -11   -1    0    0    0    0  0.00000000000E+00  0.00000000000E+00  0.45593999997E+02  0.45594000000E+02  0.51100000000E-03 0.  1.
         11   -1    0    0    0    0 -0.00000000000E+00 -0.00000000000E+00 -0.45593999997E+02  0.45594000000E+02  0.51100000000E-03 0. -1.
    9900012    2    1    2    0    0  0.31557375095E+02  0.29664673281E+02 -0.27861339177E+01  0.47787270675E+02  0.19999998314E+02 0.  0.
        -12    1    1    2    0    0 -0.31557375095E+02 -0.29664673281E+02  0.27861339177E+01  0.43400729325E+02  0.00000000000E+00 0.  1.
         11    1    3    3    0    0  0.82082682399E+01  0.28253569453E+01 -0.17631439085E+01  0.88581592936E+01  0.51100000000E-03 0. -1.
        -11    1    3    3    0    0 -0.19157614742E+01  0.45434234996E+01 -0.17305840902E+01  0.52256827953E+01  0.51100000000E-03 0.  1.
         12    1    3    3    0    0  0.25264868329E+02  0.22295892836E+02  0.70759408106E+00  0.33703428586E+02  0.00000000000E+00 0. -1.
</event>
<event>
 7    1  0.2294216E-010  0.4778727E+02  0.7816164E-02  0.1312668E+00
        -11   -1    0    0    0    0  0.00000000000E+00  0.00000000000E+00  0.45593999997E+02  0.45594000000E+02  0.51100000000E-03 0. -1.
         11   -1    0    0    0    0 -0.00000000000E+00 -0.00000000000E+00 -0.45593999997E+02  0.45594000000E+02  0.51100000000E-03 0.  1.
    9900012    2    1    2    0    0 -0.35806165001E+02  0.45936433640E+01  0.24092328517E+02  0.47787270688E+02  0.19999998375E+02 0.  0.
        -12    1    1    2    0    0  0.35806165001E+02 -0.45936433640E+01 -0.24092328517E+02  0.43400729312E+02  0.00000000000E+00 0.  1.
         11    1    3    3    0    0 -0.23070059259E+02  0.28707233252E+01  0.22151933960E+02  0.32111942717E+02  0.51100000000E-03 0. -1.
        -11    1    3    3    0    0 -0.60971296690E+01  0.32142523535E+01  0.46895162452E+01  0.83365443241E+01  0.51100000000E-03 0.  1.
        -12    1    3    3    0    0 -0.66389760729E+01 -0.14913323146E+01 -0.27491216876E+01  0.73387836474E+01  0.00000000000E+00 0.  1.
</event>
<event>
 7    1  0.2294216E-010  0.4778727E+02  0.7816164E-02  0.1312668E+00
        -11   -1    0    0    0    0  0.00000000000E+00  0.00000000000E+00  0.45593999997E+02  0.45594000000E+02  0.51100000000E-03 0.  1.
         11   -1    0    0    0    0 -0.00000000000E+00 -0.00000000000E+00 -0.45593999997E+02  0.45594000000E+02  0.51100000000E-03 0. -1.
    9900012    2    1    2    0    0  0.11498893574E+02 -0.70367605005E+01 -0.41253886564E+02  0.47787266039E+02  0.19999977178E+02 0.  0.
        -12    1    1    2    0    0 -0.11498893574E+02  0.70367605005E+01  0.41253886564E+02  0.43400733961E+02  0.00000000000E+00 0.  1.
         11    1    3    3    0    0  0.47135021038E+00  0.12328465493E+01 -0.19004477325E+01  0.23138244272E+01  0.51100000000E-03 0. -1.
        -11    1    3    3    0    0 -0.34715314486E+01 -0.11515359309E+01 -0.90174945154E+00  0.37670569326E+01  0.51100000000E-03 0.  1.
         12    1    3    3    0    0  0.14499074812E+02 -0.71180711189E+01 -0.38451689379E+02  0.41706384679E+02  0.00000000000E+00 0. -1.
</event>
<event>
 7    1  0.2294216E-010  0.4778726E+02  0.7816164E-02  0.1312668E+00
        -11   -1    0    0    0    0  0.00000000000E+00  0.00000000000E+00  0.45593999997E+02  0.45594000000E+02  0.51100000000E-03 0. -1.
         11   -1    0    0    0    0 -0.00000000000E+00 -0.00000000000E+00 -0.45593999997E+02  0.45594000000E+02  0.51100000000E-03 0.  1.
    9900012    2    1    2    0    0 -0.30005843247E+02  0.18937415781E+02  0.24992951783E+02  0.47787262861E+02  0.19999962688E+02 0.  0.
        -12    1    1    2    0    0  0.30005843247E+02 -0.18937415781E+02 -0.24992951783E+02  0.43400737139E+02  0.00000000000E+00 0.  1.
         11    1    3    3    0    0 -0.91118100405E+01  0.51492876849E+01  0.25876959899E+01  0.10781299396E+02  0.51100000000E-03 0. -1.
        -11    1    3    3    0    0  0.15718584555E+01  0.51235059810E+01  0.45318622013E+01  0.70184633513E+01  0.51100000000E-03 0.  1.
        -12    1    3    3    0    0 -0.22465891662E+02  0.86646221147E+01  0.17873393592E+02  0.29987500113E+02  0.00000000000E+00 0.  1.
</event>
<event>
 7    1  0.2294216E-010  0.4778727E+02  0.7816164E-02  0.1312668E+00
        -11   -1    0    0    0    0  0.00000000000E+00  0.00000000000E+00  0.45593999997E+02  0.45594000000E+02  0.51100000000E-03 0.  1.
         11   -1    0    0    0    0 -0.00000000000E+00 -0.00000000000E+00 -0.45593999997E+02  0.45594000000E+02  0.51100000000E-03 0. -1.
    9900012    2    1    2    0    0 -0.49909926156E+01 -0.11282704337E+02 -0.41610262048E+02  0.47787270373E+02  0.19999996940E+02 0.  0.
        -12    1    1    2    0    0  0.49909926156E+01  0.11282704337E+02  0.41610262048E+02  0.43400729627E+02  0.00000000000E+00 0.  1.
         11    1    3    3    0    0 -0.62001829117E+01 -0.63799575004E+01 -0.29513003628E+02  0.30824722371E+02  0.51100000000E-03 0. -1.
        -11    1    3    3    0    0 -0.33576761038E+01  0.10154938993E+01 -0.72474120475E+01  0.80517202090E+01  0.51100000000E-03 0.  1.
        -12    1    3    3    0    0  0.45668663999E+01 -0.59182407363E+01 -0.48498463726E+01  0.89108277935E+01  0.00000000000E+00 0.  1.
</event>
<event>
 7    1  0.2294216E-010  0.4778727E+02  0.7816164E-02  0.1312668E+00
        -11   -1    0    0    0    0  0.00000000000E+00  0.00000000000E+00  0.45593999997E+02  0.45594000000E+02  0.51100000000E-03 0.  1.
         11   -1    0    0    0    0 -0.00000000000E+00 -0.00000000000E+00 -0.45593999997E+02  0.45594000000E+02  0.51100000000E-03 0. -1.
    9900012    2    1    2    0    0 -0.40745116030E+01  0.13421971031E+01 -0.43188195020E+02  0.47787270433E+02  0.19999997214E+02 0.  0.
        -12    1    1    2    0    0  0.40745116030E+01 -0.13421971031E+01  0.43188195020E+02  0.43400729567E+02  0.00000000000E+00 0.  1.
         11    1    3    3    0    0 -0.19824505687E+01 -0.19819807066E+01  0.19266206732E+00  0.28098890925E+01  0.51100000000E-03 0. -1.
        -11    1    3    3    0    0  0.97023271237E+00 -0.36924499416E+01 -0.94189017783E+01  0.10163230247E+02  0.51100000000E-03 0.  1.
         12    1    3    3    0    0 -0.30622937467E+01  0.70166277514E+01 -0.33961955309E+02  0.34814151094E+02  0.00000000000E+00 0. -1.
</event>
<event>
 7    1  0.2294216E-010  0.4778727E+02  0.7816164E-02  0.1312668E+00
        -11   -1    0    0    0    0  0.00000000000E+00  0.00000000000E+00  0.45593999997E+02  0.45594000000E+02  0.51100000000E-03 0.  1.
         11   -1    0    0    0    0 -0.00000000000E+00 -0.00000000000E+00 -0.45593999997E+02  0.45594000000E+02  0.51100000000E-03 0. -1.
    9900012    2    1    2    0    0 -0.30333160297E+02  0.38713261358E+01 -0.30798304276E+02  0.47787270445E+02  0.19999997266E+02 0.  0.
        -12    1    1    2    0    0  0.30333160297E+02 -0.38713261358E+01  0.30798304276E+02  0.43400729555E+02  0.00000000000E+00 0.  1.
         11    1    3    3    0    0 -0.84059376822E+01  0.58542516493E+01 -0.31865877770E+01  0.10727832615E+02  0.51100000000E-03 0. -1.
        -11    1    3    3    0    0 -0.86045813329E+01  0.45997104669E+01 -0.93273233067E+01  0.13497967129E+02  0.51100000000E-03 0.  1.
         12    1    3    3    0    0 -0.13322641282E+02 -0.65826359804E+01 -0.18284393192E+02  0.23561470701E+02  0.00000000000E+00 0. -1.
</event>
<event>
 7    1  0.2294216E-010  0.4778726E+02  0.7816164E-02  0.1312668E+00
        -11   -1    0    0    0    0  0.00000000000E+00  0.00000000000E+00  0.45593999997E+02  0.45594000000E+02  0.51100000000E-03 0. -1.
         11   -1    0    0    0    0 -0.00000000000E+00 -0.00000000000E+00 -0.45593999997E+02  0.45594000000E+02  0.51100000000E-03 0.  1.
    9900012    2    1    2    0    0 -0.17581453797E+02 -0.31035707123E+02  0.24724518817E+02  0.47787257322E+02  0.19999937434E+02 0.  0.
        -12    1    1    2    0    0  0.17581453797E+02  0.31035707123E+02 -0.24724518817E+02  0.43400742678E+02  0.00000000000E+00 0.  1.
         11    1    3    3    0    0  0.40294908861E+00 -0.66482418252E+01  0.83774595991E+01  0.10702491155E+02  0.51100000000E-03 0. -1.
        -11    1    3    3    0    0 -0.50606241752E+00 -0.11526309899E+02  0.47167869818E+01  0.12464349111E+02  0.51100000000E-03 0.  1.
         12    1    3    3    0    0 -0.17478340468E+02 -0.12861155398E+02  0.11630272236E+02  0.24620417056E+02  0.00000000000E+00 0. -1.
</event>
<event>
 7    1  0.2294216E-010  0.4778727E+02  0.7816164E-02  0.1312668E+00
        -11   -1    0    0    0    0  0.00000000000E+00  0.00000000000E+00  0.45593999997E+02  0.45594000000E+02  0.51100000000E-03 0. -1.
         11   -1    0    0    0    0 -0.00000000000E+00 -0.00000000000E+00 -0.45593999997E+02  0.45594000000E+02  0.51100000000E-03 0.  1.
    9900012    2    1    2    0    0  0.19250682616E+02  0.13697699190E+02  0.36406144785E+02  0.47787272790E+02  0.20000007957E+02 0.  0.
        -12    1    1    2    0    0 -0.19250682616E+02 -0.13697699190E+02 -0.36406144785E+02  0.43400727210E+02  0.00000000000E+00 0.  1.
         11    1    3    3    0    0  0.43949641161E+01  0.11137316652E+02  0.82883691067E+01  0.14562025769E+02  0.51100000000E-03 0. -1.
        -11    1    3    3    0    0 -0.11980828651E+01  0.83185713651E+00  0.34165314023E+01  0.37148453442E+01  0.51100000000E-03 0.  1.
        -12    1    3    3    0    0  0.16053801365E+02  0.17285254017E+01  0.24701244276E+02  0.29510401677E+02  0.00000000000E+00 0.  1.
</event>
<event>
 7    1  0.2294216E-010  0.4778727E+02  0.7816164E-02  0.1312668E+00
        -11   -1    0    0    0    0  0.00000000000E+00  0.00000000000E+00  0.45593999997E+02  0.45594000000E+02  0.51100000000E-03 0. -1.
         11   -1    0    0    0    0 -0.00000000000E+00 -0.00000000000E+00 -0.45593999997E+02  0.45594000000E+02  0.51100000000E-03 0.  1.
    9900012    2    1    2    0    0 -0.40068079816E+02  0.10717271581E+02  0.12779361934E+02  0.47787273949E+02  0.20000013243E+02 0.  0.
        -12    1    1    2    0    0  0.40068079816E+02 -0.10717271581E+02 -0.12779361934E+02  0.43400726051E+02  0.00000000000E+00 0.  1.
         11    1    3    3    0    0 -0.11553097042E+02  0.82104034924E+01  0.61404574392E+01  0.15446358619E+02  0.51100000000E-03 0. -1.
        -11    1    3    3    0    0 -0.28806064300E+01  0.32704834395E+01 -0.26081239179E+01  0.50790024577E+01  0.51100000000E-03 0.  1.
        -12    1    3    3    0    0 -0.25634376345E+02 -0.76361535054E+00  0.92470284128E+01  0.27261912872E+02  0.00000000000E+00 0.  1.
</event>
<event>
 7    1  0.2294216E-010  0.4778727E+02  0.7816164E-02  0.1312668E+00
        -11   -1    0    0    0    0  0.00000000000E+00  0.00000000000E+00  0.45593999997E+02  0.45594000000E+02  0.51100000000E-03 0.  1.
         11   -1    0    0    0    0 -0.00000000000E+00 -0.00000000000E+00 -0.45593999997E+02  0.45594000000E+02  0.51100000000E-03 0. -1.
    9900012    2    1    2    0    0  0.21812146278E+02  0.36492120694E+02 -0.87280550948E+01  0.47787267936E+02  0.19999985825E+02 0.  0.
        -12    1    1    2    0    0 -0.21812146278E+02 -0.36492120694E+02  0.87280550948E+01  0.43400732064E+02  0.00000000000E+00 0.  1.
         11    1    3    3    0    0 -0.85778633376E+00  0.10725955947E+02 -0.11000861320E+01  0.10816289481E+02  0.51100000000E-03 0. -1.
        -11    1    3    3    0    0  0.11984612320E+02  0.18417283353E+02 -0.95299170062E-01  0.21973537283E+02  0.51100000000E-03 0.  1.
         12    1    3    3    0    0  0.10685320292E+02  0.73488813944E+01 -0.75326697927E+01  0.14997441171E+02  0.00000000000E+00 0. -1.
</event>
<event>
 7    1  0.2294216E-010  0.4778732E+02  0.7816164E-02  0.1312668E+00
        -11   -1    0    0    0    0  0.00000000000E+00  0.00000000000E+00  0.45593999997E+02  0.45594000000E+02  0.51100000000E-03 0. -1.
         11   -1    0    0    0    0 -0.00000000000E+00 -0.00000000000E+00 -0.45593999997E+02  0.45594000000E+02  0.51100000000E-03 0.  1.
    9900012    2    1    2    0    0  0.32689424582E+02 -0.23815607486E+02  0.15742864332E+02  0.47787315480E+02  0.20000202599E+02 0.  0.
        -12    1    1    2    0    0 -0.32689424582E+02  0.23815607486E+02 -0.15742864332E+02  0.43400684520E+02  0.00000000000E+00 0.  1.
         11    1    3    3    0    0  0.11452914859E+02 -0.14127231884E+02  0.10682515222E+02  0.21091801042E+02  0.51100000000E-03 0. -1.
        -11    1    3    3    0    0  0.16368744272E+01  0.25819158901E+01  0.17965190687E+00  0.30623394036E+01  0.51100000000E-03 0.  1.
         12    1    3    3    0    0  0.19599635295E+02 -0.12270291492E+02  0.48806972026E+01  0.23633175034E+02  0.00000000000E+00 0. -1.
</event>
<event>
 7    1  0.2294216E-010  0.4778727E+02  0.7816164E-02  0.1312668E+00
        -11   -1    0    0    0    0  0.00000000000E+00  0.00000000000E+00  0.45593999997E+02  0.45594000000E+02  0.51100000000E-03 0.  1.
         11   -1    0    0    0    0 -0.00000000000E+00 -0.00000000000E+00 -0.45593999997E+02  0.45594000000E+02  0.51100000000E-03 0. -1.
    9900012    2    1    2    0    0 -0.18261827655E+02  0.33902932123E+02 -0.20017994045E+02  0.47787271418E+02  0.20000001704E+02 0.  0.
        -12    1    1    2    0    0  0.18261827655E+02 -0.33902932123E+02  0.20017994045E+02  0.43400728582E+02  0.00000000000E+00 0.  1.
         11    1    3    3    0    0  0.14070471775E+01  0.42701890676E+00 -0.25140349669E+01  0.29124730012E+01  0.51100000000E-03 0.  1.
        -11    1    3    3    0    0 -0.42606739121E+01  0.55021705900E+00 -0.46144173457E+01  0.63046751462E+01  0.51100000000E-03 0. -1.
        -12    1    3    3    0    0 -0.15408200920E+02  0.32925696157E+02 -0.12889541733E+02  0.38570123271E+02  0.00000000000E+00 0.  1.
</event>
<event>
 7    1  0.2294216E-010  0.4778727E+02  0.7816164E-02  0.1312668E+00
        -11   -1    0    0    0    0  0.00000000000E+00  0.00000000000E+00  0.45593999997E+02  0.45594000000E+02  0.51100000000E-03 0.  1.
         11   -1    0    0    0    0 -0.00000000000E+00 -0.00000000000E+00 -0.45593999997E+02  0.45594000000E+02  0.51100000000E-03 0. -1.
    9900012    2    1    2    0    0 -0.13330945281E+02 -0.78671063730E+01 -0.40546491456E+02  0.47787269198E+02  0.19999991581E+02 0.  0.
        -12    1    1    2    0    0  0.13330945281E+02  0.78671063730E+01  0.40546491456E+02  0.43400730802E+02  0.00000000000E+00 0.  1.
         11    1    3    3    0    0 -0.75952345907E-01  0.11903897747E+01 -0.32134644074E+01  0.34277033613E+01  0.51100000000E-03 0. -1.
        -11    1    3    3    0    0 -0.62708542383E+01 -0.13499943932E+02 -0.18193902961E+02  0.23507237274E+02  0.51100000000E-03 0.  1.
        -12    1    3    3    0    0 -0.69841386971E+01  0.44424477839E+01 -0.19139124087E+02  0.20852328562E+02  0.00000000000E+00 0.  1.
</event>
<event>
 7    1  0.2294216E-010  0.4778727E+02  0.7816164E-02  0.1312668E+00
        -11   -1    0    0    0    0  0.00000000000E+00  0.00000000000E+00  0.45593999997E+02  0.45594000000E+02  0.51100000000E-03 0.  1.
         11   -1    0    0    0    0 -0.00000000000E+00 -0.00000000000E+00 -0.45593999997E+02  0.45594000000E+02  0.51100000000E-03 0. -1.
    9900012    2    1    2    0    0  0.47520365080E+01 -0.40094710284E+02  0.15920284164E+02  0.47787273145E+02  0.20000009575E+02 0.  0.
        -12    1    1    2    0    0 -0.47520365080E+01  0.40094710284E+02 -0.15920284164E+02  0.43400726855E+02  0.00000000000E+00 0.  1.
         11    1    3    3    0    0 -0.29362238407E+01 -0.15739479303E+02  0.65775999968E+01  0.17309461030E+02  0.51100000000E-03 0. -1.
        -11    1    3    3    0    0 -0.15885058429E+01 -0.15929132163E+02  0.79346310996E+01  0.17866700121E+02  0.51100000000E-03 0.  1.
         12    1    3    3    0    0  0.92767661917E+01 -0.84260988180E+01  0.14080530676E+01  0.12611111993E+02  0.00000000000E+00 0. -1.
</event>
<event>
 7    1  0.2294216E-010  0.4778728E+02  0.7816164E-02  0.1312668E+00
        -11   -1    0    0    0    0  0.00000000000E+00  0.00000000000E+00  0.45593999997E+02  0.45594000000E+02  0.51100000000E-03 0.  1.
         11   -1    0    0    0    0 -0.00000000000E+00 -0.00000000000E+00 -0.45593999997E+02  0.45594000000E+02  0.51100000000E-03 0. -1.
    9900012    2    1    2    0    0 -0.23326506305E+02  0.14990085979E+02 -0.33388523891E+02  0.47787284549E+02  0.20000061571E+02 0.  0.
        -12    1    1    2    0    0  0.23326506305E+02 -0.14990085979E+02  0.33388523891E+02  0.43400715451E+02  0.00000000000E+00 0.  1.
         11    1    3    3    0    0 -0.18527637027E+01  0.46543255112E+01 -0.10505126726E+02  0.11638434907E+02  0.51100000000E-03 0. -1.
        -11    1    3    3    0    0 -0.81035938676E+01 -0.20284450308E+01 -0.22969488919E+01  0.86636480357E+01  0.51100000000E-03 0.  1.
         12    1    3    3    0    0 -0.13370148735E+02  0.12364205499E+02 -0.20586448274E+02  0.27485201606E+02  0.00000000000E+00 0. -1.
</event>
<event>
 7    1  0.2294216E-010  0.4778726E+02  0.7816164E-02  0.1312668E+00
        -11   -1    0    0    0    0  0.00000000000E+00  0.00000000000E+00  0.45593999997E+02  0.45594000000E+02  0.51100000000E-03 0.  1.
         11   -1    0    0    0    0 -0.00000000000E+00 -0.00000000000E+00 -0.45593999997E+02  0.45594000000E+02  0.51100000000E-03 0. -1.
    9900012    2    1    2    0    0 -0.55104041503E+01 -0.84638735900E+01 -0.42209266623E+02  0.47787263843E+02  0.19999967168E+02 0.  0.
        -12    1    1    2    0    0  0.55104041503E+01  0.84638735900E+01  0.42209266623E+02  0.43400736157E+02  0.00000000000E+00 0.  1.
         11    1    3    3    0    0 -0.28822168935E+01 -0.22985986245E-01 -0.15103184371E+01  0.32540382019E+01  0.51100000000E-03 0. -1.
        -11    1    3    3    0    0  0.31283342097E+00 -0.18814848300E+01  0.10450105111E+01  0.21748326704E+01  0.51100000000E-03 0.  1.
         12    1    3    3    0    0 -0.29410206778E+01 -0.65594027737E+01 -0.41743958697E+02  0.42358392971E+02  0.00000000000E+00 0. -1.
</event>
<event>
 7    1  0.2294216E-010  0.4778727E+02  0.7816164E-02  0.1312668E+00
        -11   -1    0    0    0    0  0.00000000000E+00  0.00000000000E+00  0.45593999997E+02  0.45594000000E+02  0.51100000000E-03 0.  1.
         11   -1    0    0    0    0 -0.00000000000E+00 -0.00000000000E+00 -0.45593999997E+02  0.45594000000E+02  0.51100000000E-03 0. -1.
    9900012    2    1    2    0    0 -0.28746711448E+01 -0.10727674358E+02 -0.41955650300E+02  0.47787270474E+02  0.19999997399E+02 0.  0.
        -12    1    1    2    0    0  0.28746711448E+01  0.10727674358E+02  0.41955650300E+02  0.43400729526E+02  0.00000000000E+00 0.  1.
         11    1    3    3    0    0  0.33331134086E+01 -0.15639646087E+01 -0.16416750679E+01  0.40312191185E+01  0.51100000000E-03 0. -1.
        -11    1    3    3    0    0 -0.53724318880E+01  0.13788516237E+01 -0.21176887644E+02  0.21891204324E+02  0.51100000000E-03 0.  1.
         12    1    3    3    0    0 -0.83535266537E+00 -0.10542561373E+02 -0.19137087588E+02  0.21864847032E+02  0.00000000000E+00 0. -1.
</event>
<event>
 7    1  0.2294216E-010  0.4778726E+02  0.7816164E-02  0.1312668E+00
        -11   -1    0    0    0    0  0.00000000000E+00  0.00000000000E+00  0.45593999997E+02  0.45594000000E+02  0.51100000000E-03 0.  1.
         11   -1    0    0    0    0 -0.00000000000E+00 -0.00000000000E+00 -0.45593999997E+02  0.45594000000E+02  0.51100000000E-03 0. -1.
    9900012    2    1    2    0    0  0.24072929705E+02  0.34604107341E+02 -0.10328324659E+02  0.47787257153E+02  0.19999936662E+02 0.  0.
        -12    1    1    2    0    0 -0.24072929705E+02 -0.34604107341E+02  0.10328324659E+02  0.43400742847E+02  0.00000000000E+00 0.  1.
         11    1    3    3    0    0  0.70960074234E+01  0.14096878339E+02  0.48110251575E+01  0.16499129176E+02  0.51100000000E-03 0. -1.
        -11    1    3    3    0    0 -0.19543628325E+00  0.47841257869E+00 -0.15037979863E+01  0.15901203039E+01  0.51100000000E-03 0.  1.
         12    1    3    3    0    0  0.17172358565E+02  0.20028816424E+02 -0.13635551830E+02  0.29698007673E+02  0.00000000000E+00 0. -1.
</event>
<event>
 7    1  0.2294216E-010  0.4778726E+02  0.7816164E-02  0.1312668E+00
        -11   -1    0    0    0    0  0.00000000000E+00  0.00000000000E+00  0.45593999997E+02  0.45594000000E+02  0.51100000000E-03 0.  1.
         11   -1    0    0    0    0 -0.00000000000E+00 -0.00000000000E+00 -0.45593999997E+02  0.45594000000E+02  0.51100000000E-03 0. -1.
    9900012    2    1    2    0    0 -0.11113501582E+02  0.31072967235E+01 -0.41838489232E+02  0.47787258168E+02  0.19999941293E+02 0.  0.
        -12    1    1    2    0    0  0.11113501582E+02 -0.31072967235E+01  0.41838489232E+02  0.43400741832E+02  0.00000000000E+00 0.  1.
         11    1    3    3    0    0 -0.23819445115E+00 -0.13517703833E+01  0.12222068336E+00  0.13780268220E+01  0.51100000000E-03 0. -1.
        -11    1    3    3    0    0 -0.30986179225E+00  0.34604030336E+01 -0.37928808993E+00  0.34948910142E+01  0.51100000000E-03 0.  1.
         12    1    3    3    0    0 -0.10565445338E+02  0.99866407320E+00 -0.41581421825E+02  0.42914340332E+02  0.00000000000E+00 0. -1.
</event>
<event>
 7    1  0.2294216E-010  0.4778727E+02  0.7816164E-02  0.1312668E+00
        -11   -1    0    0    0    0  0.00000000000E+00  0.00000000000E+00  0.45593999997E+02  0.45594000000E+02  0.51100000000E-03 0.  1.
         11   -1    0    0    0    0 -0.00000000000E+00 -0.00000000000E+00 -0.45593999997E+02  0.45594000000E+02  0.51100000000E-03 0. -1.
    9900012    2    1    2    0    0 -0.18083053957E+02 -0.37792853708E+02  0.11328139753E+02  0.47787269798E+02  0.19999994316E+02 0.  0.
        -12    1    1    2    0    0  0.18083053957E+02  0.37792853708E+02 -0.11328139753E+02  0.43400730202E+02  0.00000000000E+00 0.  1.
         11    1    3    3    0    0 -0.10764569739E+02 -0.31965269621E+02  0.70454888142E+01  0.34457123160E+02  0.51100000000E-03 0. -1.
        -11    1    3    3    0    0 -0.56026384264E+01 -0.80054259456E+01  0.26987209484E+01  0.10137035904E+02  0.51100000000E-03 0.  1.
        -12    1    3    3    0    0 -0.17158457910E+01  0.21778418581E+01  0.15839299905E+01  0.31931107329E+01  0.00000000000E+00 0.  1.
</event>
<event>
 7    1  0.2294216E-010  0.4778727E+02  0.7816164E-02  0.1312668E+00
        -11   -1    0    0    0    0  0.00000000000E+00  0.00000000000E+00  0.45593999997E+02  0.45594000000E+02  0.51100000000E-03 0.  1.
         11   -1    0    0    0    0 -0.00000000000E+00 -0.00000000000E+00 -0.45593999997E+02  0.45594000000E+02  0.51100000000E-03 0. -1.
    9900012    2    1    2    0    0 -0.21780315774E+02  0.33501807018E+02 -0.16937235929E+02  0.47787272016E+02  0.20000004429E+02 0.  0.
        -12    1    1    2    0    0  0.21780315774E+02 -0.33501807018E+02  0.16937235929E+02  0.43400727984E+02  0.00000000000E+00 0.  1.
         11    1    3    3    0    0 -0.18567962943E+01  0.29396674855E+01 -0.53769582201E+01  0.64032036799E+01  0.51100000000E-03 0. -1.
        -11    1    3    3    0    0 -0.20681310162E+02  0.19389276941E+02 -0.10082299065E+02  0.30088426429E+02  0.51100000000E-03 0.  1.
        -12    1    3    3    0    0  0.75779068283E+00  0.11172862592E+02 -0.14779786437E+01  0.11295641907E+02  0.00000000000E+00 0.  1.
</event>
<event>
 7    1  0.2294216E-010  0.4778727E+02  0.7816164E-02  0.1312668E+00
        -11   -1    0    0    0    0  0.00000000000E+00  0.00000000000E+00  0.45593999997E+02  0.45594000000E+02  0.51100000000E-03 0. -1.
         11   -1    0    0    0    0 -0.00000000000E+00 -0.00000000000E+00 -0.45593999997E+02  0.45594000000E+02  0.51100000000E-03 0.  1.
    9900012    2    1    2    0    0 -0.40329715212E+02  0.14840042021E+02  0.60754174003E+01  0.47787268752E+02  0.19999989550E+02 0.  0.
        -12    1    1    2    0    0  0.40329715212E+02 -0.14840042021E+02 -0.60754174003E+01  0.43400731248E+02  0.00000000000E+00 0.  1.
         11    1    3    3    0    0 -0.24571107615E+02  0.11020852603E+01  0.58631584265E+01  0.25284986620E+02  0.51100000000E-03 0. -1.
        -11    1    3    3    0    0 -0.69550192199E+01  0.10828575350E+01 -0.60367404014E+00  0.70646511166E+01  0.51100000000E-03 0.  1.
        -12    1    3    3    0    0 -0.88035883765E+01  0.12655099225E+02  0.81593301392E+00  0.15437631016E+02  0.00000000000E+00 0.  1.
</event>
<event>
 7    1  0.2294216E-010  0.4778729E+02  0.7816164E-02  0.1312668E+00
        -11   -1    0    0    0    0  0.00000000000E+00  0.00000000000E+00  0.45593999997E+02  0.45594000000E+02  0.51100000000E-03 0. -1.
         11   -1    0    0    0    0 -0.00000000000E+00 -0.00000000000E+00 -0.45593999997E+02  0.45594000000E+02  0.51100000000E-03 0.  1.
    9900012    2    1    2    0    0 -0.11652751473E+02 -0.17141698885E+02  0.38131317380E+02  0.47787287763E+02  0.20000076227E+02 0.  0.
        -12    1    1    2    0    0  0.11652751473E+02  0.17141698885E+02 -0.38131317380E+02  0.43400712237E+02  0.00000000000E+00 0.  1.
         11    1    3    3    0    0 -0.45353146151E+01 -0.58480925107E+01  0.68809541255E+01  0.10105285479E+02  0.51100000000E-03 0. -1.
        -11    1    3    3    0    0 -0.72611278352E+01 -0.11240451067E+02  0.33164111641E+02  0.35762131072E+02  0.51100000000E-03 0.  1.
        -12    1    3    3    0    0  0.14369097751E+00 -0.53155307628E-01 -0.19137483867E+01  0.19198712122E+01  0.00000000000E+00 0.  1.
</event>
<event>
 7    1  0.2294216E-010  0.4778727E+02  0.7816164E-02  0.1312668E+00
        -11   -1    0    0    0    0  0.00000000000E+00  0.00000000000E+00  0.45593999997E+02  0.45594000000E+02  0.51100000000E-03 0.  1.
         11   -1    0    0    0    0 -0.00000000000E+00 -0.00000000000E+00 -0.45593999997E+02  0.45594000000E+02  0.51100000000E-03 0. -1.
    9900012    2    1    2    0    0 -0.54844215607E+01 -0.32655287054E+02 -0.28056667739E+02  0.47787271238E+02  0.20000000883E+02 0.  0.
        -12    1    1    2    0    0  0.54844215607E+01  0.32655287054E+02  0.28056667739E+02  0.43400728762E+02  0.00000000000E+00 0.  1.
         11    1    3    3    0    0 -0.75057740572E+01 -0.20740373997E+02 -0.12558888273E+02  0.25381596338E+02  0.51100000000E-03 0. -1.
        -11    1    3    3    0    0  0.12697053091E+01 -0.56819356907E+00  0.14416214211E+01  0.20033142756E+01  0.51100000000E-03 0.  1.
         12    1    3    3    0    0  0.75164718737E+00 -0.11346719488E+02 -0.16939400888E+02  0.20402360625E+02  0.00000000000E+00 0. -1.
</event>
<event>
 7    1  0.2294216E-010  0.4778727E+02  0.7816164E-02  0.1312668E+00
        -11   -1    0    0    0    0  0.00000000000E+00  0.00000000000E+00  0.45593999997E+02  0.45594000000E+02  0.51100000000E-03 0. -1.
         11   -1    0    0    0    0 -0.00000000000E+00 -0.00000000000E+00 -0.45593999997E+02  0.45594000000E+02  0.51100000000E-03 0.  1.
    9900012    2    1    2    0    0 -0.41289077516E+02 -0.80258386379E+01 -0.10696790420E+02  0.47787270360E+02  0.19999996881E+02 0.  0.
        -12    1    1    2    0    0  0.41289077516E+02  0.80258386379E+01  0.10696790420E+02  0.43400729640E+02  0.00000000000E+00 0.  1.
         11    1    3    3    0    0 -0.10166564609E+02 -0.49335554209E+01  0.26922931907E+01  0.11616688338E+02  0.51100000000E-03 0. -1.
        -11    1    3    3    0    0 -0.21335608511E+01  0.30069143570E+01 -0.62718630549E-01  0.36874855584E+01  0.51100000000E-03 0.  1.
        -12    1    3    3    0    0 -0.28988952056E+02 -0.60991975739E+01 -0.13326364980E+02  0.32483096464E+02  0.00000000000E+00 0.  1.
</event>
<event>
 7    1  0.2294216E-010  0.4778728E+02  0.7816164E-02  0.1312668E+00
        -11   -1    0    0    0    0  0.00000000000E+00  0.00000000000E+00  0.45593999997E+02  0.45594000000E+02  0.51100000000E-03 0.  1.
         11   -1    0    0    0    0 -0.00000000000E+00 -0.00000000000E+00 -0.45593999997E+02  0.45594000000E+02  0.51100000000E-03 0. -1.
    9900012    2    1    2    0    0  0.10133143655E+02 -0.30587838310E+02 -0.29074490299E+02  0.47787280663E+02  0.20000043857E+02 0.  0.
        -12    1    1    2    0    0 -0.10133143655E+02  0.30587838310E+02  0.29074490299E+02  0.43400719337E+02  0.00000000000E+00 0.  1.
         11    1    3    3    0    0  0.46433021072E+01 -0.26874742215E+02 -0.19787097470E+02  0.33694825272E+02  0.51100000000E-03 0. -1.
        -11    1    3    3    0    0  0.20236927696E+01 -0.44217459688E+01 -0.84095310192E+00  0.49350149158E+01  0.51100000000E-03 0.  1.
        -12    1    3    3    0    0  0.34661487779E+01  0.70864987427E+00 -0.84464397271E+01  0.91574404753E+01  0.00000000000E+00 0.  1.
</event>
<event>
 7    1  0.2294216E-010  0.4778728E+02  0.7816164E-02  0.1312668E+00
        -11   -1    0    0    0    0  0.00000000000E+00  0.00000000000E+00  0.45593999997E+02  0.45594000000E+02  0.51100000000E-03 0. -1.
         11   -1    0    0    0    0 -0.00000000000E+00 -0.00000000000E+00 -0.45593999997E+02  0.45594000000E+02  0.51100000000E-03 0.  1.
    9900012    2    1    2    0    0  0.42439744185E+02  0.24684634658E+01  0.87405425885E+01  0.47787282459E+02  0.20000052042E+02 0.  0.
        -12    1    1    2    0    0 -0.42439744185E+02 -0.24684634658E+01 -0.87405425885E+01  0.43400717541E+02  0.00000000000E+00 0.  1.
         11    1    3    3    0    0  0.23048309780E+02 -0.35657451250E+00  0.61685859316E+01  0.23862170517E+02  0.51100000000E-03 0. -1.
        -11    1    3    3    0    0  0.20819196426E+02  0.14926527537E+01  0.22754161930E+00  0.20873876677E+02  0.51100000000E-03 0.  1.
        -12    1    3    3    0    0 -0.14277620212E+01  0.13323852245E+01  0.23444150376E+01  0.30512352653E+01  0.00000000000E+00 0.  1.
</event>
<event>
 7    1  0.2294216E-010  0.4778727E+02  0.7816164E-02  0.1312668E+00
        -11   -1    0    0    0    0  0.00000000000E+00  0.00000000000E+00  0.45593999997E+02  0.45594000000E+02  0.51100000000E-03 0.  1.
         11   -1    0    0    0    0 -0.00000000000E+00 -0.00000000000E+00 -0.45593999997E+02  0.45594000000E+02  0.51100000000E-03 0. -1.
    9900012    2    1    2    0    0  0.19126219688E+02 -0.23435799425E+01 -0.38888544256E+02  0.47787268199E+02  0.19999987025E+02 0.  0.
        -12    1    1    2    0    0 -0.19126219688E+02  0.23435799425E+01  0.38888544256E+02  0.43400731801E+02  0.00000000000E+00 0.  1.
         11    1    3    3    0    0  0.13067007468E+02 -0.57707642462E+01 -0.20420546326E+02  0.24920816935E+02  0.51100000000E-03 0. -1.
        -11    1    3    3    0    0  0.33393117952E+01 -0.15211320711E+01 -0.12234528695E+00  0.36714867116E+01  0.51100000000E-03 0.  1.
         12    1    3    3    0    0  0.27199004250E+01  0.49483163747E+01 -0.18345652643E+02  0.19194964552E+02  0.00000000000E+00 0. -1.
</event>
<event>
 7    1  0.2294216E-010  0.4778726E+02  0.7816164E-02  0.1312668E+00
        -11   -1    0    0    0    0  0.00000000000E+00  0.00000000000E+00  0.45593999997E+02  0.45594000000E+02  0.51100000000E-03 0.  1.
         11   -1    0    0    0    0 -0.00000000000E+00 -0.00000000000E+00 -0.45593999997E+02  0.45594000000E+02  0.51100000000E-03 0. -1.
    9900012    2    1    2    0    0  0.66288164277E+01 -0.97368154001E+01 -0.41771727374E+02  0.47787262804E+02  0.19999962427E+02 0.  0.
        -12    1    1    2    0    0 -0.66288164277E+01  0.97368154001E+01  0.41771727374E+02  0.43400737196E+02  0.00000000000E+00 0.  1.
         11    1    3    3    0    0  0.87383946633E+01 -0.29000076848E+01 -0.20897857578E+02  0.22836156364E+02  0.51100000000E-03 0. -1.
        -11    1    3    3    0    0  0.29304908532E+00 -0.79057852860E+01 -0.20872416538E+02  0.22321404327E+02  0.51100000000E-03 0.  1.
        -12    1    3    3    0    0 -0.24026273209E+01  0.10689775708E+01 -0.14532586339E-02  0.26297021128E+01  0.00000000000E+00 0.  1.
</event>
<event>
 7    1  0.2294216E-010  0.4778727E+02  0.7816164E-02  0.1312668E+00
        -11   -1    0    0    0    0  0.00000000000E+00  0.00000000000E+00  0.45593999997E+02  0.45594000000E+02  0.51100000000E-03 0.  1.
         11   -1    0    0    0    0 -0.00000000000E+00 -0.00000000000E+00 -0.45593999997E+02  0.45594000000E+02  0.51100000000E-03 0. -1.
    9900012    2    1    2    0    0 -0.10286727905E+02  0.29910844657E+02 -0.29717800113E+02  0.47787273708E+02  0.20000012145E+02 0.  0.
        -12    1    1    2    0    0  0.10286727905E+02 -0.29910844657E+02  0.29717800113E+02  0.43400726292E+02  0.00000000000E+00 0.  1.
         11    1    3    3    0    0 -0.10655727261E+02  0.19290305565E+02 -0.20915570202E+02  0.30382914432E+02  0.51100000000E-03 0. -1.
        -11    1    3    3    0    0  0.25330036406E+00  0.12783319614E+02 -0.69394731088E+01  0.14547635846E+02  0.51100000000E-03 0.  1.
        -12    1    3    3    0    0  0.11569899174E+00 -0.21627805226E+01 -0.18627568027E+01  0.28567234293E+01  0.00000000000E+00 0.  1.
</event>
<event>
 7    1  0.2294216E-010  0.4778727E+02  0.7816164E-02  0.1312668E+00
        -11   -1    0    0    0    0  0.00000000000E+00  0.00000000000E+00  0.45593999997E+02  0.45594000000E+02  0.51100000000E-03 0.  1.
         11   -1    0    0    0    0 -0.00000000000E+00 -0.00000000000E+00 -0.45593999997E+02  0.45594000000E+02  0.51100000000E-03 0. -1.
    9900012    2    1    2    0    0 -0.10813929127E+02  0.42019901548E+02  0.10050039604E+01  0.47787271639E+02  0.20000002712E+02 0.  0.
        -12    1    1    2    0    0  0.10813929127E+02 -0.42019901548E+02 -0.10050039604E+01  0.43400728361E+02  0.00000000000E+00 0.  1.
         11    1    3    3    0    0 -0.20859685022E+01  0.16428576841E+02  0.40159423773E+01  0.17040457595E+02  0.51100000000E-03 0. -1.
        -11    1    3    3    0    0 -0.67795378567E+01  0.21013715320E+02  0.37049437280E+01  0.22388947572E+02  0.51100000000E-03 0.  1.
         12    1    3    3    0    0 -0.19484227685E+01  0.45776093878E+01 -0.67158821449E+01  0.83578664727E+01  0.00000000000E+00 0. -1.
</event>
<event>
 7    1  0.2294216E-010  0.4778727E+02  0.7816164E-02  0.1312668E+00
        -11   -1    0    0    0    0  0.00000000000E+00  0.00000000000E+00  0.45593999997E+02  0.45594000000E+02  0.51100000000E-03 0. -1.
         11   -1    0    0    0    0 -0.00000000000E+00 -0.00000000000E+00 -0.45593999997E+02  0.45594000000E+02  0.51100000000E-03 0.  1.
    9900012    2    1    2    0    0  0.28819999892E+02  0.16309032230E+02  0.28054341241E+02  0.47787274332E+02  0.20000014990E+02 0.  0.
        -12    1    1    2    0    0 -0.28819999892E+02 -0.16309032230E+02 -0.28054341241E+02  0.43400725668E+02  0.00000000000E+00 0.  1.
         11    1    3    3    0    0  0.94600449035E+01  0.64919589191E+01  0.82451779160E+01  0.14128727448E+02  0.51100000000E-03 0. -1.
        -11    1    3    3    0    0  0.95128282116E+01  0.13532656071E+02  0.13778247106E+02  0.21528278484E+02  0.51100000000E-03 0.  1.
         12    1    3    3    0    0  0.98471267763E+01 -0.37155827607E+01  0.60309162196E+01  0.12130268400E+02  0.00000000000E+00 0. -1.
</event>
<event>
 7    1  0.2294216E-010  0.4778727E+02  0.7816164E-02  0.1312668E+00
        -11   -1    0    0    0    0  0.00000000000E+00  0.00000000000E+00  0.45593999997E+02  0.45594000000E+02  0.51100000000E-03 0.  1.
         11   -1    0    0    0    0 -0.00000000000E+00 -0.00000000000E+00 -0.45593999997E+02  0.45594000000E+02  0.51100000000E-03 0. -1.
    9900012    2    1    2    0    0 -0.27917655959E+02 -0.28839669077E+02 -0.16507608575E+02  0.47787272269E+02  0.20000005583E+02 0.  0.
        -12    1    1    2    0    0  0.27917655959E+02  0.28839669077E+02  0.16507608575E+02  0.43400727731E+02  0.00000000000E+00 0.  1.
         11    1    3    3    0    0 -0.70650389746E+01 -0.15076638085E+02 -0.87327618476E+01  0.18801088304E+02  0.51100000000E-03 0. -1.
        -11    1    3    3    0    0 -0.65733665039E+00  0.74217501529E+00 -0.36493458365E+01  0.37816187698E+01  0.51100000000E-03 0.  1.
         12    1    3    3    0    0 -0.20195280334E+02 -0.14505206007E+02 -0.41255008910E+01  0.25204565195E+02  0.00000000000E+00 0. -1.
</event>
<event>
 7    1  0.2294216E-010  0.4778728E+02  0.7816164E-02  0.1312668E+00
        -11   -1    0    0    0    0  0.00000000000E+00  0.00000000000E+00  0.45593999997E+02  0.45594000000E+02  0.51100000000E-03 0. -1.
         11   -1    0    0    0    0 -0.00000000000E+00 -0.00000000000E+00 -0.45593999997E+02  0.45594000000E+02  0.51100000000E-03 0.  1.
    9900012    2    1    2    0    0 -0.39277158986E+00 -0.21220882107E+02  0.37856863158E+02  0.47787283473E+02  0.20000056666E+02 0.  0.
        -12    1    1    2    0    0  0.39277158986E+00  0.21220882107E+02 -0.37856863158E+02  0.43400716527E+02  0.00000000000E+00 0.  1.
         11    1    3    3    0    0 -0.13517348338E+01  0.26731867845E+01  0.29427915381E+01  0.41991828900E+01  0.51100000000E-03 0.  1.
        -11    1    3    3    0    0  0.22171732987E+01 -0.19434810014E+01  0.96805088612E+01  0.10119546823E+02  0.51100000000E-03 0. -1.
        -12    1    3    3    0    0 -0.12582100547E+01 -0.21950587890E+02  0.25233562759E+02  0.33468553759E+02  0.00000000000E+00 0.  1.
</event>
<event>
 7    1  0.2294216E-010  0.4778727E+02  0.7816164E-02  0.1312668E+00
        -11   -1    0    0    0    0  0.00000000000E+00  0.00000000000E+00  0.45593999997E+02  0.45594000000E+02  0.51100000000E-03 0.  1.
         11   -1    0    0    0    0 -0.00000000000E+00 -0.00000000000E+00 -0.45593999997E+02  0.45594000000E+02  0.51100000000E-03 0. -1.
    9900012    2    1    2    0    0 -0.65073671664E+01  0.42445083456E+02  0.63001839287E+01  0.47787271267E+02  0.20000001016E+02 0.  0.
        -12    1    1    2    0    0  0.65073671664E+01 -0.42445083456E+02 -0.63001839287E+01  0.43400728733E+02  0.00000000000E+00 0.  1.
         11    1    3    3    0    0  0.18361596847E+01  0.11352180482E+02 -0.20917058602E+01  0.11688400992E+02  0.51100000000E-03 0. -1.
        -11    1    3    3    0    0 -0.20693298315E+01 -0.54434719091E+00 -0.11950465713E+01  0.24508317740E+01  0.51100000000E-03 0.  1.
        -12    1    3    3    0    0 -0.62741970196E+01  0.31637250164E+02  0.95869363602E+01  0.33648038501E+02  0.00000000000E+00 0.  1.
</event>
<event>
 7    1  0.2294216E-010  0.4778727E+02  0.7816164E-02  0.1312668E+00
        -11   -1    0    0    0    0  0.00000000000E+00  0.00000000000E+00  0.45593999997E+02  0.45594000000E+02  0.51100000000E-03 0.  1.
         11   -1    0    0    0    0 -0.00000000000E+00 -0.00000000000E+00 -0.45593999997E+02  0.45594000000E+02  0.51100000000E-03 0. -1.
    9900012    2    1    2    0    0  0.16320417057E+02 -0.15525975414E+01 -0.40185279804E+02  0.47787270917E+02  0.19999999418E+02 0.  0.
        -12    1    1    2    0    0 -0.16320417057E+02  0.15525975414E+01  0.40185279804E+02  0.43400729083E+02  0.00000000000E+00 0.  1.
         11    1    3    3    0    0  0.11907864361E+02 -0.51342760078E+01 -0.25302565671E+02  0.28431986451E+02  0.51100000000E-03 0. -1.
        -11    1    3    3    0    0  0.72818656790E+01  0.41294565736E+01 -0.13985526328E+02  0.16299476258E+02  0.51100000000E-03 0.  1.
         12    1    3    3    0    0 -0.28693129824E+01 -0.54777810713E+00 -0.89718780479E+00  0.30558082077E+01  0.00000000000E+00 0. -1.
</event>
<event>
 7    1  0.2294216E-010  0.4778727E+02  0.7816164E-02  0.1312668E+00
        -11   -1    0    0    0    0  0.00000000000E+00  0.00000000000E+00  0.45593999997E+02  0.45594000000E+02  0.51100000000E-03 0.  1.
         11   -1    0    0    0    0 -0.00000000000E+00 -0.00000000000E+00 -0.45593999997E+02  0.45594000000E+02  0.51100000000E-03 0. -1.
    9900012    2    1    2    0    0 -0.43123424792E+02 -0.41266742252E+01 -0.26389023227E+01  0.47787274068E+02  0.20000013787E+02 0.  0.
        -12    1    1    2    0    0  0.43123424792E+02  0.41266742252E+01  0.26389023227E+01  0.43400725932E+02  0.00000000000E+00 0.  1.
         11    1    3    3    0    0 -0.91864903382E+01  0.49474202509E+00  0.13391697730E+01  0.92967602070E+01  0.51100000000E-03 0. -1.
        -11    1    3    3    0    0 -0.18853284115E+02 -0.39001939384E+01 -0.10626961973E+02  0.21990683384E+02  0.51100000000E-03 0.  1.
        -12    1    3    3    0    0 -0.15083650339E+02 -0.72122231190E+00  0.66488898777E+01  0.16499830477E+02  0.00000000000E+00 0.  1.
</event>
<event>
 7    1  0.2294216E-010  0.4778727E+02  0.7816164E-02  0.1312668E+00
        -11   -1    0    0    0    0  0.00000000000E+00  0.00000000000E+00  0.45593999997E+02  0.45594000000E+02  0.51100000000E-03 0. -1.
         11   -1    0    0    0    0 -0.00000000000E+00 -0.00000000000E+00 -0.45593999997E+02  0.45594000000E+02  0.51100000000E-03 0.  1.
    9900012    2    1    2    0    0 -0.38976200044E+01 -0.41800039466E+02  0.11008558148E+02  0.47787273122E+02  0.20000009472E+02 0.  0.
        -12    1    1    2    0    0  0.38976200044E+01  0.41800039466E+02 -0.11008558148E+02  0.43400726878E+02  0.00000000000E+00 0.  1.
         11    1    3    3    0    0 -0.83342678742E+01 -0.22538134148E+02  0.11954676753E+02  0.26839184198E+02  0.51100000000E-03 0. -1.
        -11    1    3    3    0    0  0.12286109665E+01 -0.16619571718E+02  0.88328092789E-01  0.16665156798E+02  0.51100000000E-03 0.  1.
        -12    1    3    3    0    0  0.32080369033E+01 -0.26423335995E+01 -0.10344466977E+01  0.42829321258E+01  0.00000000000E+00 0.  1.
</event>
<event>
 7    1  0.2294216E-010  0.4778726E+02  0.7816164E-02  0.1312668E+00
        -11   -1    0    0    0    0  0.00000000000E+00  0.00000000000E+00  0.45593999997E+02  0.45594000000E+02  0.51100000000E-03 0.  1.
         11   -1    0    0    0    0 -0.00000000000E+00 -0.00000000000E+00 -0.45593999997E+02  0.45594000000E+02  0.51100000000E-03 0. -1.
    9900012    2    1    2    0    0 -0.23088290531E+02  0.31440553320E+02 -0.19027518425E+02  0.47787262562E+02  0.19999961326E+02 0.  0.
        -12    1    1    2    0    0  0.23088290531E+02 -0.31440553320E+02  0.19027518425E+02  0.43400737438E+02  0.00000000000E+00 0.  1.
         11    1    3    3    0    0 -0.63485190709E+01  0.48941864893E+01 -0.76452227522E+00  0.80524064947E+01  0.51100000000E-03 0. -1.
        -11    1    3    3    0    0  0.15995876450E+01  0.10129084651E+01 -0.54806686813E+01  0.57984820124E+01  0.51100000000E-03 0.  1.
        -12    1    3    3    0    0 -0.18339359106E+02  0.25533458365E+02 -0.12782327469E+02  0.33936374055E+02  0.00000000000E+00 0.  1.
</event>
<event>
 7    1  0.2294216E-010  0.4778727E+02  0.7816164E-02  0.1312668E+00
        -11   -1    0    0    0    0  0.00000000000E+00  0.00000000000E+00  0.45593999997E+02  0.45594000000E+02  0.51100000000E-03 0.  1.
         11   -1    0    0    0    0 -0.00000000000E+00 -0.00000000000E+00 -0.45593999997E+02  0.45594000000E+02  0.51100000000E-03 0. -1.
    9900012    2    1    2    0    0  0.46150188887E+01  0.21448159573E+02 -0.37447316889E+02  0.47787268548E+02  0.19999988617E+02 0.  0.
        -12    1    1    2    0    0 -0.46150188887E+01 -0.21448159573E+02  0.37447316889E+02  0.43400731452E+02  0.00000000000E+00 0.  1.
         11    1    3    3    0    0 -0.31476782692E+01  0.35990705920E+01 -0.64726051813E+01  0.80470992107E+01  0.51100000000E-03 0. -1.
        -11    1    3    3    0    0 -0.35948643306E+01  0.49614679606E+01 -0.27879608505E+01  0.67314144014E+01  0.51100000000E-03 0.  1.
         12    1    3    3    0    0  0.11357561489E+02  0.12887621021E+02 -0.28186750857E+02  0.33008754936E+02  0.00000000000E+00 0. -1.
</event>
<event>
 7    1  0.2294216E-010  0.4778727E+02  0.7816164E-02  0.1312668E+00
        -11   -1    0    0    0    0  0.00000000000E+00  0.00000000000E+00  0.45593999997E+02  0.45594000000E+02  0.51100000000E-03 0.  1.
         11   -1    0    0    0    0 -0.00000000000E+00 -0.00000000000E+00 -0.45593999997E+02  0.45594000000E+02  0.51100000000E-03 0. -1.
    9900012    2    1    2    0    0 -0.13934399788E+02 -0.40495420501E+02 -0.70410622393E+01  0.47787272628E+02  0.20000007220E+02 0.  0.
        -12    1    1    2    0    0  0.13934399788E+02  0.40495420501E+02  0.70410622393E+01  0.43400727372E+02  0.00000000000E+00 0.  1.
         11    1    3    3    0    0 -0.82172396021E+01 -0.12208855201E+02  0.31577766256E+01  0.15051602090E+02  0.51100000000E-03 0. -1.
        -11    1    3    3    0    0  0.19813155888E+00 -0.12945009068E+02  0.77147721624E+00  0.12969490863E+02  0.51100000000E-03 0.  1.
         12    1    3    3    0    0 -0.59152917444E+01 -0.15341556232E+02 -0.10970316081E+02  0.19766179675E+02  0.00000000000E+00 0. -1.
</event>
<event>
 7    1  0.2294216E-010  0.4778727E+02  0.7816164E-02  0.1312668E+00
        -11   -1    0    0    0    0  0.00000000000E+00  0.00000000000E+00  0.45593999997E+02  0.45594000000E+02  0.51100000000E-03 0.  1.
         11   -1    0    0    0    0 -0.00000000000E+00 -0.00000000000E+00 -0.45593999997E+02  0.45594000000E+02  0.51100000000E-03 0. -1.
    9900012    2    1    2    0    0  0.10674252688E+02  0.19529204820E+01 -0.42022252700E+02  0.47787270849E+02  0.19999999108E+02 0.  0.
        -12    1    1    2    0    0 -0.10674252688E+02 -0.19529204820E+01  0.42022252700E+02  0.43400729151E+02  0.00000000000E+00 0.  1.
         11    1    3    3    0    0  0.24924292213E+01  0.69587601969E+01 -0.22807846838E+02  0.23975704881E+02  0.51100000000E-03 0. -1.
        -11    1    3    3    0    0  0.17013942906E+01 -0.14618255245E+01 -0.15278208900E+02  0.15441999347E+02  0.51100000000E-03 0.  1.
        -12    1    3    3    0    0  0.64804291758E+01 -0.35440141904E+01 -0.39361969624E+01  0.83695666202E+01  0.00000000000E+00 0.  1.
</event>
<event>
 7    1  0.2294216E-010  0.4778727E+02  0.7816164E-02  0.1312668E+00
        -11   -1    0    0    0    0  0.00000000000E+00  0.00000000000E+00  0.45593999997E+02  0.45594000000E+02  0.51100000000E-03 0.  1.
         11   -1    0    0    0    0 -0.00000000000E+00 -0.00000000000E+00 -0.45593999997E+02  0.45594000000E+02  0.51100000000E-03 0. -1.
    9900012    2    1    2    0    0 -0.28770631437E+02  0.26288757341E+02 -0.19099092784E+02  0.47787270271E+02  0.19999996475E+02 0.  0.
        -12    1    1    2    0    0  0.28770631437E+02 -0.26288757341E+02  0.19099092784E+02  0.43400729729E+02  0.00000000000E+00 0.  1.
         11    1    3    3    0    0  0.15044694844E+00  0.30940957607E+01 -0.46561355090E+00  0.31325483397E+01  0.51100000000E-03 0. -1.
        -11    1    3    3    0    0 -0.71783673572E+01  0.90720770254E+00  0.17443118693E+01  0.74427553963E+01  0.51100000000E-03 0.  1.
         12    1    3    3    0    0 -0.21742711028E+02  0.22287453878E+02 -0.20377791103E+02  0.37211966535E+02  0.00000000000E+00 0. -1.
</event>
<event>
 7    1  0.2294216E-010  0.4778728E+02  0.7816164E-02  0.1312668E+00
        -11   -1    0    0    0    0  0.00000000000E+00  0.00000000000E+00  0.45593999997E+02  0.45594000000E+02  0.51100000000E-03 0.  1.
         11   -1    0    0    0    0 -0.00000000000E+00 -0.00000000000E+00 -0.45593999997E+02  0.45594000000E+02  0.51100000000E-03 0. -1.
    9900012    2    1    2    0    0 -0.17881263859E+02 -0.35326952751E+02 -0.17773285099E+02  0.47787275915E+02  0.20000022208E+02 0.  0.
        -12    1    1    2    0    0  0.17881263859E+02  0.35326952751E+02  0.17773285099E+02  0.43400724085E+02  0.00000000000E+00 0.  1.
         11    1    3    3    0    0 -0.92557210699E+01 -0.13958648506E+02 -0.13522942006E+01  0.16803003913E+02  0.51100000000E-03 0. -1.
        -11    1    3    3    0    0 -0.42330490639E+01 -0.13999546071E+00 -0.91928254307E+00  0.43339801294E+01  0.51100000000E-03 0.  1.
         12    1    3    3    0    0 -0.43924937255E+01 -0.21228308784E+02 -0.15501708356E+02  0.26650291873E+02  0.00000000000E+00 0. -1.
</event>
<event>
 7    1  0.2294216E-010  0.4778727E+02  0.7816164E-02  0.1312668E+00
        -11   -1    0    0    0    0  0.00000000000E+00  0.00000000000E+00  0.45593999997E+02  0.45594000000E+02  0.51100000000E-03 0.  1.
         11   -1    0    0    0    0 -0.00000000000E+00 -0.00000000000E+00 -0.45593999997E+02  0.45594000000E+02  0.51100000000E-03 0. -1.
    9900012    2    1    2    0    0 -0.20140095258E+02 -0.10392416107E+02 -0.37013478915E+02  0.47787269927E+02  0.19999994905E+02 0.  0.
        -12    1    1    2    0    0  0.20140095258E+02  0.10392416107E+02  0.37013478915E+02  0.43400730073E+02  0.00000000000E+00 0.  1.
         11    1    3    3    0    0 -0.56297893452E+01 -0.32043841553E+00 -0.12902756527E+02  0.14081134014E+02  0.51100000000E-03 0. -1.
        -11    1    3    3    0    0 -0.98093530695E+01 -0.21310678765E+01 -0.27053547069E+01  0.10396336003E+02  0.51100000000E-03 0.  1.
        -12    1    3    3    0    0 -0.47009528430E+01 -0.79409098148E+01 -0.21405367681E+02  0.23309799910E+02  0.00000000000E+00 0.  1.
</event>
<event>
 7    1  0.2294216E-010  0.4778727E+02  0.7816164E-02  0.1312668E+00
        -11   -1    0    0    0    0  0.00000000000E+00  0.00000000000E+00  0.45593999997E+02  0.45594000000E+02  0.51100000000E-03 0. -1.
         11   -1    0    0    0    0 -0.00000000000E+00 -0.00000000000E+00 -0.45593999997E+02  0.45594000000E+02  0.51100000000E-03 0.  1.
    9900012    2    1    2    0    0 -0.29963517068E+02  0.27806035016E+02  0.14582019168E+02  0.47787271649E+02  0.20000002754E+02 0.  0.
        -12    1    1    2    0    0  0.29963517068E+02 -0.27806035016E+02 -0.14582019168E+02  0.43400728351E+02  0.00000000000E+00 0.  1.
         11    1    3    3    0    0 -0.12915598493E+02  0.75652379364E+01  0.10152932348E+01  0.15002544120E+02  0.51100000000E-03 0. -1.
        -11    1    3    3    0    0 -0.66149122636E+01 -0.46044034780E+00  0.36711993053E+01  0.75793650242E+01  0.51100000000E-03 0.  1.
         12    1    3    3    0    0 -0.10433006312E+02  0.20701237427E+02  0.98955266280E+01  0.25205362504E+02  0.00000000000E+00 0. -1.
</event>
<event>
 7    1  0.2294216E-010  0.4778727E+02  0.7816164E-02  0.1312668E+00
        -11   -1    0    0    0    0  0.00000000000E+00  0.00000000000E+00  0.45593999997E+02  0.45594000000E+02  0.51100000000E-03 0.  1.
         11   -1    0    0    0    0 -0.00000000000E+00 -0.00000000000E+00 -0.45593999997E+02  0.45594000000E+02  0.51100000000E-03 0. -1.
    9900012    2    1    2    0    0  0.31523089208E+02  0.23722354120E+02 -0.18087783782E+02  0.47787272353E+02  0.20000005966E+02 0.  0.
        -12    1    1    2    0    0 -0.31523089208E+02 -0.23722354120E+02  0.18087783782E+02  0.43400727647E+02  0.00000000000E+00 0.  1.
         11    1    3    3    0    0  0.13792177417E+01 -0.25271415154E+00  0.19077847731E+01  0.23676463045E+01  0.51100000000E-03 0. -1.
        -11    1    3    3    0    0  0.22155359631E+02  0.14189194470E+02 -0.68468077291E+01  0.27185878254E+02  0.51100000000E-03 0.  1.
         12    1    3    3    0    0  0.79885118351E+01  0.97858738014E+01 -0.13148760826E+02  0.18233747795E+02  0.00000000000E+00 0. -1.
</event>
<event>
 7    1  0.2294216E-010  0.4778727E+02  0.7816164E-02  0.1312668E+00
        -11   -1    0    0    0    0  0.00000000000E+00  0.00000000000E+00  0.45593999997E+02  0.45594000000E+02  0.51100000000E-03 0. -1.
         11   -1    0    0    0    0 -0.00000000000E+00 -0.00000000000E+00 -0.45593999997E+02  0.45594000000E+02  0.51100000000E-03 0.  1.
    9900012    2    1    2    0    0 -0.98374803740E+00 -0.36845134191E+02  0.22914881366E+02  0.47787268880E+02  0.19999990131E+02 0.  0.
        -12    1    1    2    0    0  0.98374803740E+00  0.36845134191E+02 -0.22914881366E+02  0.43400731120E+02  0.00000000000E+00 0.  1.
         11    1    3    3    0    0 -0.76531916331E+01 -0.26648014297E+02  0.15489316628E+02  0.31758572670E+02  0.51100000000E-03 0. -1.
        -11    1    3    3    0    0 -0.81850578156E+00  0.60463287574E+00  0.88152693042E+00  0.13463367406E+01  0.51100000000E-03 0.  1.
         12    1    3    3    0    0  0.74879493773E+01 -0.10801752769E+02  0.65440378076E+01  0.14682359470E+02  0.00000000000E+00 0. -1.
</event>
<event>
 7    1  0.2294216E-010  0.4778727E+02  0.7816164E-02  0.1312668E+00
        -11   -1    0    0    0    0  0.00000000000E+00  0.00000000000E+00  0.45593999997E+02  0.45594000000E+02  0.51100000000E-03 0. -1.
         11   -1    0    0    0    0 -0.00000000000E+00 -0.00000000000E+00 -0.45593999997E+02  0.45594000000E+02  0.51100000000E-03 0.  1.
    9900012    2    1    2    0    0 -0.33608821178E+01  0.17368686228E+02  0.39631505052E+02  0.47787274400E+02  0.20000015299E+02 0.  0.
        -12    1    1    2    0    0  0.33608821178E+01 -0.17368686228E+02 -0.39631505052E+02  0.43400725600E+02  0.00000000000E+00 0.  1.
         11    1    3    3    0    0  0.22883039044E+01 -0.44901474912E+00  0.13510527805E+02  0.13710299444E+02  0.51100000000E-03 0. -1.
        -11    1    3    3    0    0 -0.31949776209E+01  0.11586385975E+02  0.24342094527E+02  0.27147555842E+02  0.51100000000E-03 0.  1.
        -12    1    3    3    0    0 -0.24542084013E+01  0.62313150020E+01  0.17788827203E+01  0.69294191144E+01  0.00000000000E+00 0.  1.
</event>
<event>
 7    1  0.2294216E-010  0.4778727E+02  0.7816164E-02  0.1312668E+00
        -11   -1    0    0    0    0  0.00000000000E+00  0.00000000000E+00  0.45593999997E+02  0.45594000000E+02  0.51100000000E-03 0.  1.
         11   -1    0    0    0    0 -0.00000000000E+00 -0.00000000000E+00 -0.45593999997E+02  0.45594000000E+02  0.51100000000E-03 0. -1.
    9900012    2    1    2    0    0  0.10158306198E+02 -0.15226568441E+02 -0.39352048336E+02  0.47787270979E+02  0.19999999701E+02 0.  0.
        -12    1    1    2    0    0 -0.10158306198E+02  0.15226568441E+02  0.39352048336E+02  0.43400729021E+02  0.00000000000E+00 0.  1.
         11    1    3    3    0    0 -0.26844712995E+01  0.62331636811E+00 -0.32168386290E+01  0.42359131812E+01  0.51100000000E-03 0.  1.
        -11    1    3    3    0    0  0.32467588215E+00 -0.49678743728E+01 -0.19245286439E+02  0.19878788711E+02  0.51100000000E-03 0. -1.
         12    1    3    3    0    0  0.12518101615E+02 -0.10882010436E+02 -0.16889923268E+02  0.23672569087E+02  0.00000000000E+00 0. -1.
</event>
<event>
 7    1  0.2294216E-010  0.4778727E+02  0.7816164E-02  0.1312668E+00
        -11   -1    0    0    0    0  0.00000000000E+00  0.00000000000E+00  0.45593999997E+02  0.45594000000E+02  0.51100000000E-03 0. -1.
         11   -1    0    0    0    0 -0.00000000000E+00 -0.00000000000E+00 -0.45593999997E+02  0.45594000000E+02  0.51100000000E-03 0.  1.
    9900012    2    1    2    0    0 -0.25358832955E+02 -0.33969459921E+02  0.93074553992E+01  0.47787270258E+02  0.19999996413E+02 0.  0.
        -12    1    1    2    0    0  0.25358832955E+02  0.33969459921E+02 -0.93074553992E+01  0.43400729742E+02  0.00000000000E+00 0.  1.
         11    1    3    3    0    0 -0.10120202843E+02 -0.19880846333E+02 -0.17293996385E+00  0.22309111704E+02  0.51100000000E-03 0. -1.
        -11    1    3    3    0    0  0.18712089471E+01 -0.11999499510E+01  0.74563067732E+00  0.23446253809E+01  0.51100000000E-03 0.  1.
        -12    1    3    3    0    0 -0.17109839059E+02 -0.12888663636E+02  0.87347646857E+01  0.23133533173E+02  0.00000000000E+00 0.  1.
</event>
<event>
 7    1  0.2294216E-010  0.4778727E+02  0.7816164E-02  0.1312668E+00
        -11   -1    0    0    0    0  0.00000000000E+00  0.00000000000E+00  0.45593999997E+02  0.45594000000E+02  0.51100000000E-03 0.  1.
         11   -1    0    0    0    0 -0.00000000000E+00 -0.00000000000E+00 -0.45593999997E+02  0.45594000000E+02  0.51100000000E-03 0. -1.
    9900012    2    1    2    0    0 -0.10274248054E+01  0.37986192331E+01 -0.43221961832E+02  0.47787273112E+02  0.20000009428E+02 0.  0.
        -12    1    1    2    0    0  0.10274248054E+01 -0.37986192331E+01  0.43221961832E+02  0.43400726888E+02  0.00000000000E+00 0.  1.
         11    1    3    3    0    0 -0.51956201161E+01  0.46415203096E+01 -0.19930665673E+02  0.21113256822E+02  0.51100000000E-03 0. -1.
        -11    1    3    3    0    0  0.34614928256E+01  0.45559674832E+01 -0.18686903120E+02  0.19543262798E+02  0.51100000000E-03 0.  1.
        -12    1    3    3    0    0  0.70670248508E+00 -0.53988685597E+01 -0.46043930382E+01  0.71307534930E+01  0.00000000000E+00 0.  1.
</event>
<event>
 7    1  0.2294216E-010  0.4778727E+02  0.7816164E-02  0.1312668E+00
        -11   -1    0    0    0    0  0.00000000000E+00  0.00000000000E+00  0.45593999997E+02  0.45594000000E+02  0.51100000000E-03 0.  1.
         11   -1    0    0    0    0 -0.00000000000E+00 -0.00000000000E+00 -0.45593999997E+02  0.45594000000E+02  0.51100000000E-03 0. -1.
    9900012    2    1    2    0    0 -0.14508208376E+02 -0.38295642389E+02 -0.14372858456E+02  0.47787269632E+02  0.19999993560E+02 0.  0.
        -12    1    1    2    0    0  0.14508208376E+02  0.38295642389E+02  0.14372858456E+02  0.43400730368E+02  0.00000000000E+00 0.  1.
         11    1    3    3    0    0 -0.53545520308E+01 -0.30177807140E+01 -0.56597466775E+01  0.83552953630E+01  0.51100000000E-03 0. -1.
        -11    1    3    3    0    0 -0.64071088936E+01 -0.91050287236E+01 -0.68004267002E+01  0.13046010731E+02  0.51100000000E-03 0.  1.
         12    1    3    3    0    0 -0.27465474516E+01 -0.26172832951E+02 -0.19126850788E+01  0.26385963538E+02  0.00000000000E+00 0. -1.
</event>
<event>
 7    1  0.2294216E-010  0.4778726E+02  0.7816164E-02  0.1312668E+00
        -11   -1    0    0    0    0  0.00000000000E+00  0.00000000000E+00  0.45593999997E+02  0.45594000000E+02  0.51100000000E-03 0.  1.
         11   -1    0    0    0    0 -0.00000000000E+00 -0.00000000000E+00 -0.45593999997E+02  0.45594000000E+02  0.51100000000E-03 0. -1.
    9900012    2    1    2    0    0 -0.16324871811E+02 -0.40101670098E+02  0.29964148515E+01  0.47787263989E+02  0.19999967833E+02 0.  0.
        -12    1    1    2    0    0  0.16324871811E+02  0.40101670098E+02 -0.29964148515E+01  0.43400736011E+02  0.00000000000E+00 0.  1.
         11    1    3    3    0    0 -0.18014032533E+01 -0.25994156352E+02  0.17878322147E+01  0.26117763351E+02  0.51100000000E-03 0. -1.
        -11    1    3    3    0    0 -0.12701870544E+01 -0.35386125627E+01 -0.22321838894E+01  0.43723905589E+01  0.51100000000E-03 0.  1.
        -12    1    3    3    0    0 -0.13253281504E+02 -0.10568901183E+02  0.34407665262E+01  0.17297110080E+02  0.00000000000E+00 0.  1.
</event>
<event>
 7    1  0.2294216E-010  0.4778727E+02  0.7816164E-02  0.1312668E+00
        -11   -1    0    0    0    0  0.00000000000E+00  0.00000000000E+00  0.45593999997E+02  0.45594000000E+02  0.51100000000E-03 0. -1.
         11   -1    0    0    0    0 -0.00000000000E+00 -0.00000000000E+00 -0.45593999997E+02  0.45594000000E+02  0.51100000000E-03 0.  1.
    9900012    2    1    2    0    0  0.33800325976E+01 -0.26497516981E+02  0.34206435430E+02  0.47787271304E+02  0.20000001183E+02 0.  0.
        -12    1    1    2    0    0 -0.33800325976E+01  0.26497516981E+02 -0.34206435430E+02  0.43400728696E+02  0.00000000000E+00 0.  1.
         11    1    3    3    0    0 -0.61722806260E+00  0.17437982627E+01  0.45102689839E+01  0.48748671193E+01  0.51100000000E-03 0. -1.
        -11    1    3    3    0    0  0.14872001877E+01  0.87682226576E+00  0.12805493419E+01  0.21495089119E+01  0.51100000000E-03 0.  1.
         12    1    3    3    0    0  0.25100604725E+01 -0.29118137510E+02  0.28415617104E+02  0.40762895273E+02  0.00000000000E+00 0. -1.
</event>
<event>
 7    1  0.2294216E-010  0.4778728E+02  0.7816164E-02  0.1312668E+00
        -11   -1    0    0    0    0  0.00000000000E+00  0.00000000000E+00  0.45593999997E+02  0.45594000000E+02  0.51100000000E-03 0.  1.
         11   -1    0    0    0    0 -0.00000000000E+00 -0.00000000000E+00 -0.45593999997E+02  0.45594000000E+02  0.51100000000E-03 0. -1.
    9900012    2    1    2    0    0 -0.29137074994E+02 -0.10600239668E+02 -0.30369205393E+02  0.47787275854E+02  0.20000021928E+02 0.  0.
        -12    1    1    2    0    0  0.29137074994E+02  0.10600239668E+02  0.30369205393E+02  0.43400724146E+02  0.00000000000E+00 0.  1.
         11    1    3    3    0    0 -0.22947312738E+02 -0.72385671420E+01 -0.14584486572E+02  0.28136866652E+02  0.51100000000E-03 0. -1.
        -11    1    3    3    0    0 -0.43834288690E+01  0.98874422095E+00 -0.17092841004E+01  0.48076726366E+01  0.51100000000E-03 0.  1.
        -12    1    3    3    0    0 -0.18063333871E+01 -0.43504167465E+01 -0.14075434720E+02  0.14842736565E+02  0.00000000000E+00 0.  1.
</event>
<event>
 7    1  0.2294216E-010  0.4778727E+02  0.7816164E-02  0.1312668E+00
        -11   -1    0    0    0    0  0.00000000000E+00  0.00000000000E+00  0.45593999997E+02  0.45594000000E+02  0.51100000000E-03 0.  1.
         11   -1    0    0    0    0 -0.00000000000E+00 -0.00000000000E+00 -0.45593999997E+02  0.45594000000E+02  0.51100000000E-03 0. -1.
    9900012    2    1    2    0    0 -0.34641002731E+02  0.22431705729E+02  0.13432893935E+02  0.47787272684E+02  0.20000007475E+02 0.  0.
        -12    1    1    2    0    0  0.34641002731E+02 -0.22431705729E+02 -0.13432893935E+02  0.43400727316E+02  0.00000000000E+00 0.  1.
         11    1    3    3    0    0 -0.18753374732E+01 -0.50618634231E-01  0.84899290283E+00  0.20591848131E+01  0.51100000000E-03 0. -1.
        -11    1    3    3    0    0 -0.23448181300E+02  0.10692782530E+02  0.15978252894E+02  0.30322555471E+02  0.51100000000E-03 0.  1.
         12    1    3    3    0    0 -0.93174839577E+01  0.11789541834E+02 -0.33943518622E+01  0.15405532399E+02  0.00000000000E+00 0. -1.
</event>
<event>
 7    1  0.2294216E-010  0.4778727E+02  0.7816164E-02  0.1312668E+00
        -11   -1    0    0    0    0  0.00000000000E+00  0.00000000000E+00  0.45593999997E+02  0.45594000000E+02  0.51100000000E-03 0.  1.
         11   -1    0    0    0    0 -0.00000000000E+00 -0.00000000000E+00 -0.45593999997E+02  0.45594000000E+02  0.51100000000E-03 0. -1.
    9900012    2    1    2    0    0 -0.41577691573E+02 -0.11825186017E+02 -0.38837810706E+01  0.47787271708E+02  0.20000003026E+02 0.  0.
        -12    1    1    2    0    0  0.41577691573E+02  0.11825186017E+02  0.38837810706E+01  0.43400728292E+02  0.00000000000E+00 0.  1.
         11    1    3    3    0    0 -0.21638544837E+02 -0.64451977006E+01 -0.57593780047E+01  0.23301022109E+02  0.51100000000E-03 0. -1.
        -11    1    3    3    0    0 -0.19651067247E+01  0.32878607282E+00 -0.42200371963E+01  0.46667396456E+01  0.51100000000E-03 0.  1.
        -12    1    3    3    0    0 -0.17974040012E+02 -0.57087743889E+01  0.60956341304E+01  0.19819509954E+02  0.00000000000E+00 0.  1.
</event>
<event>
 7    1  0.2294216E-010  0.4778727E+02  0.7816164E-02  0.1312668E+00
        -11   -1    0    0    0    0  0.00000000000E+00  0.00000000000E+00  0.45593999997E+02  0.45594000000E+02  0.51100000000E-03 0. -1.
         11   -1    0    0    0    0 -0.00000000000E+00 -0.00000000000E+00 -0.45593999997E+02  0.45594000000E+02  0.51100000000E-03 0.  1.
    9900012    2    1    2    0    0 -0.41556743283E+02 -0.47296734238E+01  0.11588384794E+02  0.47787269763E+02  0.19999994159E+02 0.  0.
        -12    1    1    2    0    0  0.41556743283E+02  0.47296734238E+01 -0.11588384794E+02  0.43400730237E+02  0.00000000000E+00 0.  1.
         11    1    3    3    0    0 -0.70530444611E+01 -0.17602613178E+01  0.95253020442E+01  0.11982292576E+02  0.51100000000E-03 0. -1.
        -11    1    3    3    0    0 -0.87030176830E+01  0.28137585222E+01  0.20063387902E+01  0.93640348897E+01  0.51100000000E-03 0.  1.
        -12    1    3    3    0    0 -0.25800681138E+02 -0.57831706282E+01  0.56743959624E-01  0.26440942298E+02  0.00000000000E+00 0.  1.
</event>
<event>
 7    1  0.2294216E-010  0.4778733E+02  0.7816164E-02  0.1312667E+00
        -11   -1    0    0    0    0  0.00000000000E+00  0.00000000000E+00  0.45593999997E+02  0.45594000000E+02  0.51100000000E-03 0.  1.
         11   -1    0    0    0    0 -0.00000000000E+00 -0.00000000000E+00 -0.45593999997E+02  0.45594000000E+02  0.51100000000E-03 0. -1.
    9900012    2    1    2    0    0 -0.30291682350E+02  0.15976164427E+02 -0.26660722909E+02  0.47787331855E+02  0.20000277256E+02 0.  0.
        -12    1    1    2    0    0  0.30291682350E+02 -0.15976164427E+02  0.26660722909E+02  0.43400668145E+02  0.00000000000E+00 0.  1.
         11    1    3    3    0    0  0.15347481329E+01  0.98484488837E+00 -0.36568672548E+01  0.40863247137E+01  0.51100000000E-03 0. -1.
        -11    1    3    3    0    0 -0.11668825292E+02  0.11729857585E+02 -0.12510901110E+02  0.20743039544E+02  0.51100000000E-03 0.  1.
        -12    1    3    3    0    0 -0.20157605191E+02  0.32614619541E+01 -0.10492954544E+02  0.22957967597E+02  0.00000000000E+00 0.  1.
</event>
<event>
 7    1  0.2294216E-010  0.4778726E+02  0.7816164E-02  0.1312668E+00
        -11   -1    0    0    0    0  0.00000000000E+00  0.00000000000E+00  0.45593999997E+02  0.45594000000E+02  0.51100000000E-03 0.  1.
         11   -1    0    0    0    0 -0.00000000000E+00 -0.00000000000E+00 -0.45593999997E+02  0.45594000000E+02  0.51100000000E-03 0. -1.
    9900012    2    1    2    0    0  0.41319017022E+02 -0.47974556368E+01  0.12383341899E+02  0.47787263776E+02  0.19999966860E+02 0.  0.
        -12    1    1    2    0    0 -0.41319017022E+02  0.47974556368E+01 -0.12383341899E+02  0.43400736224E+02  0.00000000000E+00 0.  1.
         11    1    3    3    0    0  0.11846680629E+02 -0.54658239839E+01  0.58641146899E+01  0.14304087356E+02  0.51100000000E-03 0. -1.
        -11    1    3    3    0    0  0.19047056108E+02 -0.53335378494E+01  0.80531199799E+01  0.21356257024E+02  0.51100000000E-03 0.  1.
        -12    1    3    3    0    0  0.10425280285E+02  0.60019061966E+01 -0.15338927712E+01  0.12126919396E+02  0.00000000000E+00 0.  1.
</event>
<event>
 7    1  0.2294216E-010  0.4778727E+02  0.7816164E-02  0.1312668E+00
        -11   -1    0    0    0    0  0.00000000000E+00  0.00000000000E+00  0.45593999997E+02  0.45594000000E+02  0.51100000000E-03 0.  1.
         11   -1    0    0    0    0 -0.00000000000E+00 -0.00000000000E+00 -0.45593999997E+02  0.45594000000E+02  0.51100000000E-03 0. -1.
    9900012    2    1    2    0    0  0.92124836112E+01 -0.39080748885E+02 -0.16475691101E+02  0.47787272069E+02  0.20000004672E+02 0.  0.
        -12    1    1    2    0    0 -0.92124836112E+01  0.39080748885E+02  0.16475691101E+02  0.43400727931E+02  0.00000000000E+00 0.  1.
         11    1    3    3    0    0 -0.34054820285E+01 -0.13351193247E+02 -0.17707389929E+00  0.13779804948E+02  0.51100000000E-03 0. -1.
        -11    1    3    3    0    0  0.55679773685E+01 -0.16641869072E+02 -0.59339339206E+01  0.18524733472E+02  0.51100000000E-03 0.  1.
         12    1    3    3    0    0  0.70499882712E+01 -0.90876865662E+01 -0.10364683281E+02  0.15482733649E+02  0.00000000000E+00 0. -1.
</event>
<event>
 7    1  0.2294216E-010  0.4778727E+02  0.7816164E-02  0.1312668E+00
        -11   -1    0    0    0    0  0.00000000000E+00  0.00000000000E+00  0.45593999997E+02  0.45594000000E+02  0.51100000000E-03 0.  1.
         11   -1    0    0    0    0 -0.00000000000E+00 -0.00000000000E+00 -0.45593999997E+02  0.45594000000E+02  0.51100000000E-03 0. -1.
    9900012    2    1    2    0    0 -0.11635730986E+02 -0.24014432227E+02 -0.34227765634E+02  0.47787272690E+02  0.20000007502E+02 0.  0.
        -12    1    1    2    0    0  0.11635730986E+02  0.24014432227E+02  0.34227765634E+02  0.43400727310E+02  0.00000000000E+00 0.  1.
         11    1    3    3    0    0 -0.63498139033E+01 -0.13793924293E+02 -0.14190756581E+02  0.20783889352E+02  0.51100000000E-03 0.  1.
        -11    1    3    3    0    0 -0.39606246240E+00 -0.11573873737E+02 -0.83937163793E+01  0.14302653379E+02  0.51100000000E-03 0. -1.
        -12    1    3    3    0    0 -0.48898546204E+01  0.13533658030E+01 -0.11643292673E+02  0.12700729959E+02  0.00000000000E+00 0.  1.
</event>
<event>
 7    1  0.2294216E-010  0.4778727E+02  0.7816164E-02  0.1312668E+00
        -11   -1    0    0    0    0  0.00000000000E+00  0.00000000000E+00  0.45593999997E+02  0.45594000000E+02  0.51100000000E-03 0.  1.
         11   -1    0    0    0    0 -0.00000000000E+00 -0.00000000000E+00 -0.45593999997E+02  0.45594000000E+02  0.51100000000E-03 0. -1.
    9900012    2    1    2    0    0  0.19920358744E+02 -0.20422752908E+02 -0.32706481972E+02  0.47787268534E+02  0.19999988553E+02 0.  0.
        -12    1    1    2    0    0 -0.19920358744E+02  0.20422752908E+02  0.32706481972E+02  0.43400731466E+02  0.00000000000E+00 0.  1.
         11    1    3    3    0    0  0.47097190709E+01 -0.25131099621E+01 -0.77018900739E+01  0.93710344349E+01  0.51100000000E-03 0. -1.
        -11    1    3    3    0    0 -0.38115651788E+01 -0.43854515746E+01 -0.45079962123E+01  0.73540631448E+01  0.51100000000E-03 0.  1.
        -12    1    3    3    0    0  0.19022204852E+02 -0.13524191372E+02 -0.20496595685E+02  0.31062170954E+02  0.00000000000E+00 0.  1.
</event>
<event>
 7    1  0.2294216E-010  0.4778726E+02  0.7816164E-02  0.1312668E+00
        -11   -1    0    0    0    0  0.00000000000E+00  0.00000000000E+00  0.45593999997E+02  0.45594000000E+02  0.51100000000E-03 0.  1.
         11   -1    0    0    0    0 -0.00000000000E+00 -0.00000000000E+00 -0.45593999997E+02  0.45594000000E+02  0.51100000000E-03 0. -1.
    9900012    2    1    2    0    0  0.36255120130E+01  0.43242292421E+02 -0.76435554532E+00  0.47787257719E+02  0.19999939242E+02 0.  0.
        -12    1    1    2    0    0 -0.36255120130E+01 -0.43242292421E+02  0.76435554532E+00  0.43400742281E+02  0.00000000000E+00 0.  1.
         11    1    3    3    0    0  0.31375061666E+01  0.13407405986E+02 -0.19107743722E+01  0.13901566069E+02  0.51100000000E-03 0. -1.
        -11    1    3    3    0    0 -0.49806962355E+01  0.27310104505E+02  0.18456386404E+01  0.27821853376E+02  0.51100000000E-03 0.  1.
        -12    1    3    3    0    0  0.54687020818E+01  0.25247819307E+01 -0.69921981348E+00  0.60638382733E+01  0.00000000000E+00 0.  1.
</event>
<event>
 7    1  0.2294216E-010  0.4778727E+02  0.7816164E-02  0.1312668E+00
        -11   -1    0    0    0    0  0.00000000000E+00  0.00000000000E+00  0.45593999997E+02  0.45594000000E+02  0.51100000000E-03 0. -1.
         11   -1    0    0    0    0 -0.00000000000E+00 -0.00000000000E+00 -0.45593999997E+02  0.45594000000E+02  0.51100000000E-03 0.  1.
    9900012    2    1    2    0    0 -0.42801568010E+02 -0.38854266224E+01  0.60458706828E+01  0.47787270554E+02  0.19999997764E+02 0.  0.
        -12    1    1    2    0    0  0.42801568010E+02  0.38854266224E+01 -0.60458706828E+01  0.43400729446E+02  0.00000000000E+00 0.  1.
         11    1    3    3    0    0  0.85133910065E-01 -0.26800181804E+00  0.28205141057E+00  0.39827881746E+00  0.51100000000E-03 0.  1.
        -11    1    3    3    0    0  0.32606715203E+00 -0.26038143927E-01 -0.31111727360E+01  0.31283212474E+01  0.51100000000E-03 0. -1.
         12    1    3    3    0    0 -0.43212769072E+02 -0.35913866604E+01  0.88749920082E+01  0.44260670489E+02  0.00000000000E+00 0. -1.
</event>
<event>
 7    1  0.2294216E-010  0.4778727E+02  0.7816164E-02  0.1312668E+00
        -11   -1    0    0    0    0  0.00000000000E+00  0.00000000000E+00  0.45593999997E+02  0.45594000000E+02  0.51100000000E-03 0.  1.
         11   -1    0    0    0    0 -0.00000000000E+00 -0.00000000000E+00 -0.45593999997E+02  0.45594000000E+02  0.51100000000E-03 0. -1.
    9900012    2    1    2    0    0  0.24687389871E+02 -0.75071122039E+01 -0.34896981404E+02  0.47787271166E+02  0.20000000552E+02 0.  0.
        -12    1    1    2    0    0 -0.24687389871E+02  0.75071122039E+01  0.34896981404E+02  0.43400728834E+02  0.00000000000E+00 0.  1.
         11    1    3    3    0    0  0.74185508259E+01 -0.29523785133E+01 -0.12538897946E+02  0.14865241243E+02  0.51100000000E-03 0. -1.
        -11    1    3    3    0    0  0.31871786808E+01 -0.88621891992E+01 -0.94106233520E+01  0.13313764963E+02  0.51100000000E-03 0.  1.
         12    1    3    3    0    0  0.14081660364E+02  0.43074555086E+01 -0.12947460106E+02  0.19608264960E+02  0.00000000000E+00 0. -1.
</event>
<event>
 7    1  0.2294216E-010  0.4778727E+02  0.7816164E-02  0.1312668E+00
        -11   -1    0    0    0    0  0.00000000000E+00  0.00000000000E+00  0.45593999997E+02  0.45594000000E+02  0.51100000000E-03 0. -1.
         11   -1    0    0    0    0 -0.00000000000E+00 -0.00000000000E+00 -0.45593999997E+02  0.45594000000E+02  0.51100000000E-03 0.  1.
    9900012    2    1    2    0    0 -0.10911876711E+02  0.35031582290E+02  0.23180648753E+02  0.47787270885E+02  0.19999999275E+02 0.  0.
        -12    1    1    2    0    0  0.10911876711E+02 -0.35031582290E+02 -0.23180648753E+02  0.43400729115E+02  0.00000000000E+00 0.  1.
         11    1    3    3    0    0 -0.43088618626E+00  0.79294544090E+01  0.70037885134E+01  0.10588435386E+02  0.51100000000E-03 0. -1.
        -11    1    3    3    0    0 -0.12915455022E+02  0.10502493935E+02  0.92870706502E+01  0.19062031340E+02  0.51100000000E-03 0.  1.
        -12    1    3    3    0    0  0.24344644972E+01  0.16599633946E+02  0.68897895892E+01  0.18136804159E+02  0.00000000000E+00 0.  1.
</event>
<event>
 7    1  0.2294216E-010  0.4778727E+02  0.7816164E-02  0.1312668E+00
        -11   -1    0    0    0    0  0.00000000000E+00  0.00000000000E+00  0.45593999997E+02  0.45594000000E+02  0.51100000000E-03 0. -1.
         11   -1    0    0    0    0 -0.00000000000E+00 -0.00000000000E+00 -0.45593999997E+02  0.45594000000E+02  0.51100000000E-03 0.  1.
    9900012    2    1    2    0    0 -0.21693272898E+02 -0.37505233882E+02  0.25264566485E+01  0.47787266818E+02  0.19999980728E+02 0.  0.
        -12    1    1    2    0    0  0.21693272898E+02  0.37505233882E+02 -0.25264566485E+01  0.43400733182E+02  0.00000000000E+00 0.  1.
         11    1    3    3    0    0 -0.73220711465E+01 -0.13682378261E+02  0.20827064221E+01  0.15657517908E+02  0.51100000000E-03 0. -1.
        -11    1    3    3    0    0 -0.13883801921E+02 -0.23967725241E+02  0.44826457479E+01  0.28058972222E+02  0.51100000000E-03 0.  1.
        -12    1    3    3    0    0 -0.48739983099E+00  0.14486961987E+00 -0.40388955215E+01  0.40707766870E+01  0.00000000000E+00 0.  1.
</event>
<event>
 7    1  0.2294216E-010  0.4778727E+02  0.7816164E-02  0.1312668E+00
        -11   -1    0    0    0    0  0.00000000000E+00  0.00000000000E+00  0.45593999997E+02  0.45594000000E+02  0.51100000000E-03 0.  1.
         11   -1    0    0    0    0 -0.00000000000E+00 -0.00000000000E+00 -0.45593999997E+02  0.45594000000E+02  0.51100000000E-03 0. -1.
    9900012    2    1    2    0    0 -0.27525679892E+02 -0.21126580842E+02 -0.26069669382E+02  0.47787272664E+02  0.20000007384E+02 0.  0.
        -12    1    1    2    0    0  0.27525679892E+02  0.21126580842E+02  0.26069669382E+02  0.43400727336E+02  0.00000000000E+00 0.  1.
         11    1    3    3    0    0  0.78774611565E+00  0.65441773901E+00 -0.23812053335E+01  0.25920929037E+01  0.51100000000E-03 0. -1.
        -11    1    3    3    0    0 -0.40813774118E+01 -0.70690937093E+01  0.13769729900E+00  0.81638647867E+01  0.51100000000E-03 0.  1.
         12    1    3    3    0    0 -0.24232048596E+02 -0.14711904871E+02 -0.23826161348E+02  0.37031314974E+02  0.00000000000E+00 0. -1.
</event>
<event>
 7    1  0.2294216E-010  0.4778727E+02  0.7816164E-02  0.1312668E+00
        -11   -1    0    0    0    0  0.00000000000E+00  0.00000000000E+00  0.45593999997E+02  0.45594000000E+02  0.51100000000E-03 0. -1.
         11   -1    0    0    0    0 -0.00000000000E+00 -0.00000000000E+00 -0.45593999997E+02  0.45594000000E+02  0.51100000000E-03 0.  1.
    9900012    2    1    2    0    0  0.12891851642E+01  0.73483360206E+01  0.42754686956E+02  0.47787270774E+02  0.19999998766E+02 0.  0.
        -12    1    1    2    0    0 -0.12891851642E+01 -0.73483360206E+01 -0.42754686956E+02  0.43400729226E+02  0.00000000000E+00 0.  1.
         11    1    3    3    0    0 -0.79415647261E+01  0.37857718706E+01  0.17720155587E+02  0.19783943824E+02  0.51100000000E-03 0. -1.
        -11    1    3    3    0    0  0.39817145401E+01 -0.21870911143E+01  0.11861869637E+02  0.12702022270E+02  0.51100000000E-03 0.  1.
        -12    1    3    3    0    0  0.52490353501E+01  0.57496552644E+01  0.13172661732E+02  0.15301304679E+02  0.00000000000E+00 0.  1.
</event>
<event>
 7    1  0.2294216E-010  0.4778727E+02  0.7816164E-02  0.1312668E+00
        -11   -1    0    0    0    0  0.00000000000E+00  0.00000000000E+00  0.45593999997E+02  0.45594000000E+02  0.51100000000E-03 0.  1.
         11   -1    0    0    0    0 -0.00000000000E+00 -0.00000000000E+00 -0.45593999997E+02  0.45594000000E+02  0.51100000000E-03 0. -1.
    9900012    2    1    2    0    0  0.22538342577E+02 -0.36933193435E+02 -0.34037504147E+01  0.47787272122E+02  0.20000004912E+02 0.  0.
        -12    1    1    2    0    0 -0.22538342577E+02  0.36933193435E+02  0.34037504147E+01  0.43400727878E+02  0.00000000000E+00 0.  1.
         11    1    3    3    0    0  0.69882759135E+01 -0.10603845492E+02 -0.33754216980E+01  0.13140434215E+02  0.51100000000E-03 0. -1.
        -11    1    3    3    0    0  0.54117099767E+01 -0.22434389957E+02  0.32416849349E+01  0.23304441189E+02  0.51100000000E-03 0.  1.
        -12    1    3    3    0    0  0.10138356687E+02 -0.38949579860E+01 -0.32700136516E+01  0.11342396718E+02  0.00000000000E+00 0.  1.
</event>
<event>
 7    1  0.2294216E-010  0.4778727E+02  0.7816164E-02  0.1312668E+00
        -11   -1    0    0    0    0  0.00000000000E+00  0.00000000000E+00  0.45593999997E+02  0.45594000000E+02  0.51100000000E-03 0. -1.
         11   -1    0    0    0    0 -0.00000000000E+00 -0.00000000000E+00 -0.45593999997E+02  0.45594000000E+02  0.51100000000E-03 0.  1.
    9900012    2    1    2    0    0  0.27081322914E+02  0.11705706905E+02  0.31830828555E+02  0.47787271073E+02  0.20000000130E+02 0.  0.
        -12    1    1    2    0    0 -0.27081322914E+02 -0.11705706905E+02 -0.31830828555E+02  0.43400728927E+02  0.00000000000E+00 0.  1.
         11    1    3    3    0    0  0.37521765581E+00  0.29755793304E+01  0.92508722015E+00  0.31385740818E+01  0.51100000000E-03 0. -1.
        -11    1    3    3    0    0  0.38792295062E+01  0.33190968130E+01 -0.84148004147E+00  0.51742549355E+01  0.51100000000E-03 0.  1.
         12    1    3    3    0    0  0.22826875752E+02  0.54110307618E+01  0.31747221376E+02  0.39474442056E+02  0.00000000000E+00 0. -1.
</event>
<event>
 7    1  0.2294216E-010  0.4778727E+02  0.7816164E-02  0.1312668E+00
        -11   -1    0    0    0    0  0.00000000000E+00  0.00000000000E+00  0.45593999997E+02  0.45594000000E+02  0.51100000000E-03 0.  1.
         11   -1    0    0    0    0 -0.00000000000E+00 -0.00000000000E+00 -0.45593999997E+02  0.45594000000E+02  0.51100000000E-03 0. -1.
    9900012    2    1    2    0    0  0.10861087559E+02 -0.11330276071E+02 -0.40463375578E+02  0.47787272564E+02  0.20000006927E+02 0.  0.
        -12    1    1    2    0    0 -0.10861087559E+02  0.11330276071E+02  0.40463375578E+02  0.43400727436E+02  0.00000000000E+00 0.  1.
         11    1    3    3    0    0  0.51347636481E+01 -0.85941860470E+01 -0.17478208265E+02  0.20142333429E+02  0.51100000000E-03 0. -1.
        -11    1    3    3    0    0  0.93652336631E+01 -0.35695585590E+01 -0.21317984923E+02  0.23556439275E+02  0.51100000000E-03 0.  1.
        -12    1    3    3    0    0 -0.36389097519E+01  0.83346853541E+00 -0.16671823896E+01  0.40884998596E+01  0.00000000000E+00 0.  1.
</event>
<event>
 7    1  0.2294216E-010  0.4778728E+02  0.7816164E-02  0.1312668E+00
        -11   -1    0    0    0    0  0.00000000000E+00  0.00000000000E+00  0.45593999997E+02  0.45594000000E+02  0.51100000000E-03 0.  1.
         11   -1    0    0    0    0 -0.00000000000E+00 -0.00000000000E+00 -0.45593999997E+02  0.45594000000E+02  0.51100000000E-03 0. -1.
    9900012    2    1    2    0    0  0.10099056304E+02  0.23144470002E+01 -0.42145880737E+02  0.47787275740E+02  0.20000021410E+02 0.  0.
        -12    1    1    2    0    0 -0.10099056304E+02 -0.23144470002E+01  0.42145880737E+02  0.43400724260E+02  0.00000000000E+00 0.  1.
         11    1    3    3    0    0  0.39637304891E+01  0.83716141592E+01 -0.32093814434E+02  0.33403712491E+02  0.51100000000E-03 0. -1.
        -11    1    3    3    0    0 -0.46426264976E+00 -0.26450882621E+01 -0.39128611415E+01  0.47457891121E+01  0.51100000000E-03 0.  1.
        -12    1    3    3    0    0  0.65995884643E+01 -0.34120788969E+01 -0.61392051622E+01  0.96377741372E+01  0.00000000000E+00 0.  1.
</event>
<event>
 7    1  0.2294216E-010  0.4778728E+02  0.7816164E-02  0.1312668E+00
        -11   -1    0    0    0    0  0.00000000000E+00  0.00000000000E+00  0.45593999997E+02  0.45594000000E+02  0.51100000000E-03 0. -1.
         11   -1    0    0    0    0 -0.00000000000E+00 -0.00000000000E+00 -0.45593999997E+02  0.45594000000E+02  0.51100000000E-03 0.  1.
    9900012    2    1    2    0    0  0.32222044350E+02 -0.15731291872E+02  0.24451771368E+02  0.47787276399E+02  0.20000024414E+02 0.  0.
        -12    1    1    2    0    0 -0.32222044350E+02  0.15731291872E+02 -0.24451771368E+02  0.43400723601E+02  0.00000000000E+00 0.  1.
         11    1    3    3    0    0  0.15052326963E+02 -0.70127231714E+01  0.11199839349E+02  0.20029658884E+02  0.51100000000E-03 0. -1.
        -11    1    3    3    0    0  0.36461119588E+01 -0.63696912811E+01  0.11878477850E+02  0.13962998809E+02  0.51100000000E-03 0.  1.
         12    1    3    3    0    0  0.13523605428E+02 -0.23488774194E+01  0.13734541682E+01  0.13794618707E+02  0.00000000000E+00 0. -1.
</event>
<event>
 7    1  0.2294216E-010  0.4778729E+02  0.7816164E-02  0.1312668E+00
        -11   -1    0    0    0    0  0.00000000000E+00  0.00000000000E+00  0.45593999997E+02  0.45594000000E+02  0.51100000000E-03 0. -1.
         11   -1    0    0    0    0 -0.00000000000E+00 -0.00000000000E+00 -0.45593999997E+02  0.45594000000E+02  0.51100000000E-03 0.  1.
    9900012    2    1    2    0    0 -0.41114399476E+02  0.10126562621E+02 -0.95226218986E+01  0.47787292142E+02  0.20000096191E+02 0.  0.
        -12    1    1    2    0    0  0.41114399476E+02 -0.10126562621E+02  0.95226218986E+01  0.43400707858E+02  0.00000000000E+00 0.  1.
         11    1    3    3    0    0 -0.11701636647E+02  0.23908058108E+01 -0.77871179350E+01  0.14257750827E+02  0.51100000000E-03 0.  1.
        -11    1    3    3    0    0 -0.28174072972E+02  0.41852248673E+01 -0.45343319732E+01  0.28841890745E+02  0.51100000000E-03 0. -1.
         12    1    3    3    0    0 -0.12386898564E+01  0.35505319433E+01  0.27988280096E+01  0.46876505702E+01  0.00000000000E+00 0. -1.
</event>
<event>
 7    1  0.2294216E-010  0.4778727E+02  0.7816164E-02  0.1312668E+00
        -11   -1    0    0    0    0  0.00000000000E+00  0.00000000000E+00  0.45593999997E+02  0.45594000000E+02  0.51100000000E-03 0.  1.
         11   -1    0    0    0    0 -0.00000000000E+00 -0.00000000000E+00 -0.45593999997E+02  0.45594000000E+02  0.51100000000E-03 0. -1.
    9900012    2    1    2    0    0 -0.18783859653E+01  0.35670829408E+02 -0.24651306763E+02  0.47787270402E+02  0.19999997073E+02 0.  0.
        -12    1    1    2    0    0  0.18783859653E+01 -0.35670829408E+02  0.24651306763E+02  0.43400729598E+02  0.00000000000E+00 0.  1.
         11    1    3    3    0    0 -0.59189727330E+01  0.19060999699E+02 -0.18442011680E+02  0.27174689378E+02  0.51100000000E-03 0. -1.
        -11    1    3    3    0    0 -0.29417646322E+01  0.75932510113E+01 -0.15289620427E+01  0.82854791811E+01  0.51100000000E-03 0.  1.
        -12    1    3    3    0    0  0.69823513999E+01  0.90165786975E+01 -0.46803330403E+01  0.12327101843E+02  0.00000000000E+00 0.  1.
</event>
<event>
 7    1  0.2294216E-010  0.4778730E+02  0.7816164E-02  0.1312668E+00
        -11   -1    0    0    0    0  0.00000000000E+00  0.00000000000E+00  0.45593999997E+02  0.45594000000E+02  0.51100000000E-03 0.  1.
         11   -1    0    0    0    0 -0.00000000000E+00 -0.00000000000E+00 -0.45593999997E+02  0.45594000000E+02  0.51100000000E-03 0. -1.
    9900012    2    1    2    0    0 -0.19148571957E+02  0.62541610307E+01 -0.38442667520E+02  0.47787296962E+02  0.20000118167E+02 0.  0.
        -12    1    1    2    0    0  0.19148571957E+02 -0.62541610307E+01  0.38442667520E+02  0.43400703038E+02  0.00000000000E+00 0.  1.
         11    1    3    3    0    0 -0.10203180741E+01 -0.10359839571E+01 -0.27725027268E+01  0.31306681975E+01  0.51100000000E-03 0. -1.
        -11    1    3    3    0    0 -0.54203355075E+01  0.10246772906E+02 -0.80597015457E+01  0.14118611166E+02  0.51100000000E-03 0.  1.
        -12    1    3    3    0    0 -0.12707918375E+02 -0.29566279180E+01 -0.27610463247E+02  0.30538017598E+02  0.00000000000E+00 0.  1.
</event>
<event>
 7    1  0.2294216E-010  0.4778727E+02  0.7816164E-02  0.1312668E+00
        -11   -1    0    0    0    0  0.00000000000E+00  0.00000000000E+00  0.45593999997E+02  0.45594000000E+02  0.51100000000E-03 0.  1.
         11   -1    0    0    0    0 -0.00000000000E+00 -0.00000000000E+00 -0.45593999997E+02  0.45594000000E+02  0.51100000000E-03 0. -1.
    9900012    2    1    2    0    0 -0.32642047665E+02 -0.17192524257E+02 -0.22859069732E+02  0.47787271491E+02  0.20000002034E+02 0.  0.
        -12    1    1    2    0    0  0.32642047665E+02  0.17192524257E+02  0.22859069732E+02  0.43400728509E+02  0.00000000000E+00 0.  1.
         11    1    3    3    0    0 -0.11203673885E+02 -0.70959482528E+01 -0.54287976582E+01  0.14329920949E+02  0.51100000000E-03 0. -1.
        -11    1    3    3    0    0 -0.11016356640E+02 -0.68024814241E+01 -0.18383934108E+02  0.22485615417E+02  0.51100000000E-03 0.  1.
        -12    1    3    3    0    0 -0.10422017141E+02 -0.32940945797E+01  0.95366203330E+00  0.10971735125E+02  0.00000000000E+00 0.  1.
</event>
<event>
 7    1  0.2294216E-010  0.4778726E+02  0.7816164E-02  0.1312668E+00
        -11   -1    0    0    0    0  0.00000000000E+00  0.00000000000E+00  0.45593999997E+02  0.45594000000E+02  0.51100000000E-03 0.  1.
         11   -1    0    0    0    0 -0.00000000000E+00 -0.00000000000E+00 -0.45593999997E+02  0.45594000000E+02  0.51100000000E-03 0. -1.
    9900012    2    1    2    0    0  0.80852941703E+01 -0.90855826701E+00 -0.42631286421E+02  0.47787262197E+02  0.19999959660E+02 0.  0.
        -12    1    1    2    0    0 -0.80852941703E+01  0.90855826701E+00  0.42631286421E+02  0.43400737803E+02  0.00000000000E+00 0.  1.
         11    1    3    3    0    0  0.70672440059E+01  0.22829384183E+00 -0.15589249074E+02  0.17117907082E+02  0.51100000000E-03 0. -1.
        -11    1    3    3    0    0 -0.20745305268E-01  0.66187153953E+01 -0.11499235419E+02  0.13268015652E+02  0.51100000000E-03 0.  1.
         12    1    3    3    0    0  0.10387954696E+01 -0.77555675041E+01 -0.15542801927E+02  0.17401339463E+02  0.00000000000E+00 0. -1.
</event>
<event>
 7    1  0.2294216E-010  0.4778727E+02  0.7816164E-02  0.1312668E+00
        -11   -1    0    0    0    0  0.00000000000E+00  0.00000000000E+00  0.45593999997E+02  0.45594000000E+02  0.51100000000E-03 0.  1.
         11   -1    0    0    0    0 -0.00000000000E+00 -0.00000000000E+00 -0.45593999997E+02  0.45594000000E+02  0.51100000000E-03 0. -1.
    9900012    2    1    2    0    0 -0.29534029958E+02 -0.15869970136E+01 -0.31762331721E+02  0.47787271879E+02  0.20000003806E+02 0.  0.
        -12    1    1    2    0    0  0.29534029958E+02  0.15869970136E+01  0.31762331721E+02  0.43400728121E+02  0.00000000000E+00 0.  1.
         11    1    3    3    0    0 -0.36971059321E+01 -0.51212909938E+01  0.35318501389E+00  0.63262116334E+01  0.51100000000E-03 0.  1.
        -11    1    3    3    0    0 -0.15467098282E+01 -0.81859833527E-01 -0.29624656805E+01  0.33429351615E+01  0.51100000000E-03 0. -1.
        -12    1    3    3    0    0 -0.24290214197E+02  0.36161538137E+01 -0.29153051055E+02  0.38118125084E+02  0.00000000000E+00 0.  1.
</event>
<event>
 7    1  0.2294216E-010  0.4778727E+02  0.7816164E-02  0.1312668E+00
        -11   -1    0    0    0    0  0.00000000000E+00  0.00000000000E+00  0.45593999997E+02  0.45594000000E+02  0.51100000000E-03 0.  1.
         11   -1    0    0    0    0 -0.00000000000E+00 -0.00000000000E+00 -0.45593999997E+02  0.45594000000E+02  0.51100000000E-03 0. -1.
    9900012    2    1    2    0    0  0.37130188566E+02 -0.17883623149E+02 -0.13606927252E+02  0.47787270177E+02  0.19999996047E+02 0.  0.
        -12    1    1    2    0    0 -0.37130188566E+02  0.17883623149E+02  0.13606927252E+02  0.43400729823E+02  0.00000000000E+00 0.  1.
         11    1    3    3    0    0  0.28455305002E+01  0.12924857784E+01 -0.40172963351E+01  0.50898166392E+01  0.51100000000E-03 0. -1.
        -11    1    3    3    0    0  0.34940640267E+01  0.17099626907E+01 -0.29997679329E+01  0.49123379096E+01  0.51100000000E-03 0.  1.
         12    1    3    3    0    0  0.30790594039E+02 -0.20886071618E+02 -0.65898629844E+01  0.37785115629E+02  0.00000000000E+00 0. -1.
</event>
<event>
 7    1  0.2294216E-010  0.4778728E+02  0.7816164E-02  0.1312668E+00
        -11   -1    0    0    0    0  0.00000000000E+00  0.00000000000E+00  0.45593999997E+02  0.45594000000E+02  0.51100000000E-03 0.  1.
         11   -1    0    0    0    0 -0.00000000000E+00 -0.00000000000E+00 -0.45593999997E+02  0.45594000000E+02  0.51100000000E-03 0. -1.
    9900012    2    1    2    0    0 -0.44475222541E+01 -0.37243163052E+02  0.21835502201E+02  0.47787276450E+02  0.20000024647E+02 0.  0.
        -12    1    1    2    0    0  0.44475222541E+01  0.37243163052E+02 -0.21835502201E+02  0.43400723550E+02  0.00000000000E+00 0.  1.
         11    1    3    3    0    0  0.52159328623E+01 -0.18207392263E+02  0.97739783619E+01  0.21313041593E+02  0.51100000000E-03 0. -1.
        -11    1    3    3    0    0 -0.43680712627E+01 -0.15626338168E+02  0.11991692299E+02  0.20175806689E+02  0.51100000000E-03 0.  1.
        -12    1    3    3    0    0 -0.52953838536E+01 -0.34094326204E+01  0.69831540122E-01  0.62984281685E+01  0.00000000000E+00 0.  1.
</event>
<event>
 7    1  0.2294216E-010  0.4778728E+02  0.7816164E-02  0.1312668E+00
        -11   -1    0    0    0    0  0.00000000000E+00  0.00000000000E+00  0.45593999997E+02  0.45594000000E+02  0.51100000000E-03 0.  1.
         11   -1    0    0    0    0 -0.00000000000E+00 -0.00000000000E+00 -0.45593999997E+02  0.45594000000E+02  0.51100000000E-03 0. -1.
    9900012    2    1    2    0    0 -0.34475858801E+01  0.22830972675E+02 -0.36748928657E+02  0.47787275131E+02  0.20000018634E+02 0.  0.
        -12    1    1    2    0    0  0.34475858801E+01 -0.22830972675E+02  0.36748928657E+02  0.43400724869E+02  0.00000000000E+00 0.  1.
         11    1    3    3    0    0 -0.62103313317E+01  0.13359082647E+02 -0.18350050141E+02  0.23532055687E+02  0.51100000000E-03 0. -1.
        -11    1    3    3    0    0 -0.28055530055E+01 -0.15348391887E+01 -0.21448113604E+01  0.38505941146E+01  0.51100000000E-03 0.  1.
         12    1    3    3    0    0  0.55682984572E+01  0.11006729216E+02 -0.16254067156E+02  0.20404625330E+02  0.00000000000E+00 0. -1.
</event>
<event>
 7    1  0.2294216E-010  0.4778727E+02  0.7816164E-02  0.1312668E+00
        -11   -1    0    0    0    0  0.00000000000E+00  0.00000000000E+00  0.45593999997E+02  0.45594000000E+02  0.51100000000E-03 0.  1.
         11   -1    0    0    0    0 -0.00000000000E+00 -0.00000000000E+00 -0.45593999997E+02  0.45594000000E+02  0.51100000000E-03 0. -1.
    9900012    2    1    2    0    0  0.49821821505E+01  0.40986649896E+02 -0.13375193854E+02  0.47787269369E+02  0.19999992360E+02 0.  0.
        -12    1    1    2    0    0 -0.49821821505E+01 -0.40986649896E+02  0.13375193854E+02  0.43400730631E+02  0.00000000000E+00 0.  1.
         11    1    3    3    0    0  0.59096602904E+01  0.14322947366E+02 -0.97077508168E+01  0.18284182568E+02  0.51100000000E-03 0. -1.
        -11    1    3    3    0    0 -0.34551824184E+01  0.16246525926E+02 -0.73572260408E+01  0.18166360821E+02  0.51100000000E-03 0.  1.
         12    1    3    3    0    0  0.25277042786E+01  0.10417176604E+02  0.36897830039E+01  0.11336725979E+02  0.00000000000E+00 0. -1.
</event>
<event>
 7    1  0.2294216E-010  0.4778727E+02  0.7816164E-02  0.1312668E+00
        -11   -1    0    0    0    0  0.00000000000E+00  0.00000000000E+00  0.45593999997E+02  0.45594000000E+02  0.51100000000E-03 0. -1.
         11   -1    0    0    0    0 -0.00000000000E+00 -0.00000000000E+00 -0.45593999997E+02  0.45594000000E+02  0.51100000000E-03 0.  1.
    9900012    2    1    2    0    0  0.22837668898E+01  0.11498935835E+02  0.41787345944E+02  0.47787269620E+02  0.19999993504E+02 0.  0.
        -12    1    1    2    0    0 -0.22837668898E+01 -0.11498935835E+02 -0.41787345944E+02  0.43400730380E+02  0.00000000000E+00 0.  1.
         11    1    3    3    0    0 -0.28552788654E+01 -0.19083215202E+01  0.12880582824E+02  0.13330555974E+02  0.51100000000E-03 0. -1.
        -11    1    3    3    0    0  0.64306551577E+01  0.26131584319E+01  0.16843786024E+02  0.18217987008E+02  0.51100000000E-03 0.  1.
         12    1    3    3    0    0 -0.12916094025E+01  0.10794098923E+02  0.12062977095E+02  0.16238726637E+02  0.00000000000E+00 0. -1.
</event>
<event>
 7    1  0.2294216E-010  0.4778728E+02  0.7816164E-02  0.1312668E+00
        -11   -1    0    0    0    0  0.00000000000E+00  0.00000000000E+00  0.45593999997E+02  0.45594000000E+02  0.51100000000E-03 0. -1.
         11   -1    0    0    0    0 -0.00000000000E+00 -0.00000000000E+00 -0.45593999997E+02  0.45594000000E+02  0.51100000000E-03 0.  1.
    9900012    2    1    2    0    0  0.31874806551E+02  0.13926334883E+02  0.25955279569E+02  0.47787278422E+02  0.20000033637E+02 0.  0.
        -12    1    1    2    0    0 -0.31874806551E+02 -0.13926334883E+02 -0.25955279569E+02  0.43400721578E+02  0.00000000000E+00 0.  1.
         11    1    3    3    0    0  0.96868487099E+01  0.33195836914E+01  0.58435033246E+01  0.11789877233E+02  0.51100000000E-03 0. -1.
        -11    1    3    3    0    0  0.10876335723E+02 -0.70741204067E+00  0.16203429670E+02  0.19528088588E+02  0.51100000000E-03 0.  1.
        -12    1    3    3    0    0  0.11311622118E+02  0.11314163232E+02  0.39083465745E+01  0.16469312601E+02  0.00000000000E+00 0.  1.
</event>
<event>
 7    1  0.2294216E-010  0.4778727E+02  0.7816164E-02  0.1312668E+00
        -11   -1    0    0    0    0  0.00000000000E+00  0.00000000000E+00  0.45593999997E+02  0.45594000000E+02  0.51100000000E-03 0.  1.
         11   -1    0    0    0    0 -0.00000000000E+00 -0.00000000000E+00 -0.45593999997E+02  0.45594000000E+02  0.51100000000E-03 0. -1.
    9900012    2    1    2    0    0  0.30531001767E+02 -0.46951820621E+01 -0.30486663024E+02  0.47787269294E+02  0.19999992017E+02 0.  0.
        -12    1    1    2    0    0 -0.30531001767E+02  0.46951820621E+01  0.30486663024E+02  0.43400730706E+02  0.00000000000E+00 0.  1.
         11    1    3    3    0    0  0.32112555646E+01  0.14478024757E+01 -0.53734002757E+01  0.64250856098E+01  0.51100000000E-03 0. -1.
        -11    1    3    3    0    0  0.24357000070E+02 -0.10797807958E+02 -0.17191182359E+02  0.31707930558E+02  0.51100000000E-03 0.  1.
        -12    1    3    3    0    0  0.29627461325E+01  0.46548234203E+01 -0.79220803892E+01  0.96542531256E+01  0.00000000000E+00 0.  1.
</event>
<event>
 7    1  0.2294216E-010  0.4778727E+02  0.7816164E-02  0.1312668E+00
        -11   -1    0    0    0    0  0.00000000000E+00  0.00000000000E+00  0.45593999997E+02  0.45594000000E+02  0.51100000000E-03 0.  1.
         11   -1    0    0    0    0 -0.00000000000E+00 -0.00000000000E+00 -0.45593999997E+02  0.45594000000E+02  0.51100000000E-03 0. -1.
    9900012    2    1    2    0    0  0.39310503614E+01 -0.20300519972E+02 -0.38158345526E+02  0.47787267271E+02  0.19999982797E+02 0.  0.
        -12    1    1    2    0    0 -0.39310503614E+01  0.20300519972E+02  0.38158345526E+02  0.43400732729E+02  0.00000000000E+00 0.  1.
         11    1    3    3    0    0  0.10488327369E+01 -0.40921675747E+01 -0.82829047281E-01  0.42252510555E+01  0.51100000000E-03 0. -1.
        -11    1    3    3    0    0 -0.58378330217E+00 -0.12397961838E+02 -0.13041770363E+02  0.18003833901E+02  0.51100000000E-03 0.  1.
         12    1    3    3    0    0  0.34660009267E+01 -0.38103905595E+01 -0.25033746116E+02  0.25558182315E+02  0.00000000000E+00 0. -1.
</event>
<event>
 7    1  0.2294216E-010  0.4778727E+02  0.7816164E-02  0.1312668E+00
        -11   -1    0    0    0    0  0.00000000000E+00  0.00000000000E+00  0.45593999997E+02  0.45594000000E+02  0.51100000000E-03 0.  1.
         11   -1    0    0    0    0 -0.00000000000E+00 -0.00000000000E+00 -0.45593999997E+02  0.45594000000E+02  0.51100000000E-03 0. -1.
    9900012    2    1    2    0    0 -0.26405031664E+02 -0.27436188133E+02 -0.20824350522E+02  0.47787266238E+02  0.19999978085E+02 0.  0.
        -12    1    1    2    0    0  0.26405031664E+02  0.27436188133E+02  0.20824350522E+02  0.43400733762E+02  0.00000000000E+00 0.  1.
         11    1    3    3    0    0 -0.33611322029E+01 -0.33256206029E+01 -0.34900999482E+01  0.58768835270E+01  0.51100000000E-03 0. -1.
        -11    1    3    3    0    0 -0.18346290278E+02 -0.73826383014E+01 -0.44260651324E+01  0.20265235456E+02  0.51100000000E-03 0.  1.
        -12    1    3    3    0    0 -0.46976091828E+01 -0.16727929229E+02 -0.12908185441E+02  0.21645147255E+02  0.00000000000E+00 0.  1.
</event>
<event>
 7    1  0.2294216E-010  0.4778727E+02  0.7816164E-02  0.1312668E+00
        -11   -1    0    0    0    0  0.00000000000E+00  0.00000000000E+00  0.45593999997E+02  0.45594000000E+02  0.51100000000E-03 0.  1.
         11   -1    0    0    0    0 -0.00000000000E+00 -0.00000000000E+00 -0.45593999997E+02  0.45594000000E+02  0.51100000000E-03 0. -1.
    9900012    2    1    2    0    0 -0.22813680367E+02 -0.21267895651E+02 -0.30180058724E+02  0.47787270261E+02  0.19999996427E+02 0.  0.
        -12    1    1    2    0    0  0.22813680367E+02  0.21267895651E+02  0.30180058724E+02  0.43400729739E+02  0.00000000000E+00 0.  1.
         11    1    3    3    0    0 -0.81290274183E+01 -0.11341289757E+02 -0.76194164029E+01  0.15898473093E+02  0.51100000000E-03 0. -1.
        -11    1    3    3    0    0 -0.17043767408E+02 -0.10077194830E+02 -0.18032717294E+02  0.26780940169E+02  0.51100000000E-03 0.  1.
        -12    1    3    3    0    0  0.23591144591E+01  0.15058893588E+00 -0.45279250274E+01  0.51078569980E+01  0.00000000000E+00 0.  1.
</event>
<event>
 7    1  0.2294216E-010  0.4778727E+02  0.7816164E-02  0.1312668E+00
        -11   -1    0    0    0    0  0.00000000000E+00  0.00000000000E+00  0.45593999997E+02  0.45594000000E+02  0.51100000000E-03 0.  1.
         11   -1    0    0    0    0 -0.00000000000E+00 -0.00000000000E+00 -0.45593999997E+02  0.45594000000E+02  0.51100000000E-03 0. -1.
    9900012    2    1    2    0    0  0.26951563173E+02 -0.58154216586E+01 -0.33517420526E+02  0.47787269991E+02  0.19999995199E+02 0.  0.
        -12    1    1    2    0    0 -0.26951563173E+02  0.58154216586E+01  0.33517420526E+02  0.43400730009E+02  0.00000000000E+00 0.  1.
         11    1    3    3    0    0  0.27657963922E+01  0.20418450868E+01 -0.26911284417E+01  0.43658829110E+01  0.51100000000E-03 0. -1.
        -11    1    3    3    0    0  0.34691845360E+01 -0.49171907651E+01  0.17401088013E+00  0.60203227831E+01  0.51100000000E-03 0.  1.
         12    1    3    3    0    0  0.20716582245E+02 -0.29400759803E+01 -0.31000302965E+02  0.37401064297E+02  0.00000000000E+00 0. -1.
</event>
<event>
 7    1  0.2294216E-010  0.4778727E+02  0.7816164E-02  0.1312668E+00
        -11   -1    0    0    0    0  0.00000000000E+00  0.00000000000E+00  0.45593999997E+02  0.45594000000E+02  0.51100000000E-03 0.  1.
         11   -1    0    0    0    0 -0.00000000000E+00 -0.00000000000E+00 -0.45593999997E+02  0.45594000000E+02  0.51100000000E-03 0. -1.
    9900012    2    1    2    0    0 -0.13751232873E+02 -0.30518895924E+02 -0.27624690723E+02  0.47787274759E+02  0.20000016934E+02 0.  0.
        -12    1    1    2    0    0  0.13751232873E+02  0.30518895924E+02  0.27624690723E+02  0.43400725241E+02  0.00000000000E+00 0.  1.
         11    1    3    3    0    0 -0.96682178692E+01 -0.13757653274E+02 -0.62089702202E+01  0.17924808837E+02  0.51100000000E-03 0. -1.
        -11    1    3    3    0    0 -0.57658448129E+00 -0.13299958039E+02 -0.79077620247E+01  0.15483992832E+02  0.51100000000E-03 0.  1.
         12    1    3    3    0    0 -0.35064305227E+01 -0.34612846106E+01 -0.13507958478E+02  0.14378473090E+02  0.00000000000E+00 0. -1.
</event>
<event>
 7    1  0.2294216E-010  0.4778727E+02  0.7816164E-02  0.1312668E+00
        -11   -1    0    0    0    0  0.00000000000E+00  0.00000000000E+00  0.45593999997E+02  0.45594000000E+02  0.51100000000E-03 0. -1.
         11   -1    0    0    0    0 -0.00000000000E+00 -0.00000000000E+00 -0.45593999997E+02  0.45594000000E+02  0.51100000000E-03 0.  1.
    9900012    2    1    2    0    0  0.32924457375E+02 -0.17086199710E+02  0.22531418695E+02  0.47787274864E+02  0.20000017414E+02 0.  0.
        -12    1    1    2    0    0 -0.32924457375E+02  0.17086199710E+02 -0.22531418695E+02  0.43400725136E+02  0.00000000000E+00 0.  1.
         11    1    3    3    0    0  0.12599430261E+02 -0.98630639608E+01  0.79227554315E+01  0.17854851651E+02  0.51100000000E-03 0. -1.
        -11    1    3    3    0    0  0.12265650740E+02 -0.58270673599E+01  0.45711380857E+00  0.13587120938E+02  0.51100000000E-03 0.  1.
         12    1    3    3    0    0  0.80593763741E+01 -0.13960683893E+01  0.14151549454E+02  0.16345302275E+02  0.00000000000E+00 0. -1.
</event>
<event>
 7    1  0.2294216E-010  0.4778727E+02  0.7816164E-02  0.1312668E+00
        -11   -1    0    0    0    0  0.00000000000E+00  0.00000000000E+00  0.45593999997E+02  0.45594000000E+02  0.51100000000E-03 0.  1.
         11   -1    0    0    0    0 -0.00000000000E+00 -0.00000000000E+00 -0.45593999997E+02  0.45594000000E+02  0.51100000000E-03 0. -1.
    9900012    2    1    2    0    0 -0.85809170818E+01 -0.31893631199E+02 -0.28156479974E+02  0.47787271739E+02  0.20000003168E+02 0.  0.
        -12    1    1    2    0    0  0.85809170818E+01  0.31893631199E+02  0.28156479974E+02  0.43400728261E+02  0.00000000000E+00 0.  1.
         11    1    3    3    0    0 -0.70091107478E+00  0.16594523468E+01 -0.30318367737E+01  0.35266262786E+01  0.51100000000E-03 0. -1.
        -11    1    3    3    0    0  0.25031478082E+01 -0.11141676490E+02 -0.53022358843E+01  0.12590330003E+02  0.51100000000E-03 0.  1.
         12    1    3    3    0    0 -0.10383153815E+02 -0.22411407056E+02 -0.19822407316E+02  0.31670315458E+02  0.00000000000E+00 0. -1.
</event>
<event>
 7    1  0.2294216E-010  0.4778727E+02  0.7816164E-02  0.1312668E+00
        -11   -1    0    0    0    0  0.00000000000E+00  0.00000000000E+00  0.45593999997E+02  0.45594000000E+02  0.51100000000E-03 0. -1.
         11   -1    0    0    0    0 -0.00000000000E+00 -0.00000000000E+00 -0.45593999997E+02  0.45594000000E+02  0.51100000000E-03 0.  1.
    9900012    2    1    2    0    0 -0.23201398777E+02 -0.28283898905E+02  0.23352508990E+02  0.47787268225E+02  0.19999987146E+02 0.  0.
        -12    1    1    2    0    0  0.23201398777E+02  0.28283898905E+02 -0.23352508990E+02  0.43400731775E+02  0.00000000000E+00 0.  1.
         11    1    3    3    0    0 -0.16587106079E+02 -0.24403629015E+02  0.24368737899E+02  0.38268846131E+02  0.51100000000E-03 0. -1.
        -11    1    3    3    0    0  0.56529850409E+00 -0.19080746107E+01  0.85082239295E-01  0.19918710719E+01  0.51100000000E-03 0.  1.
        -12    1    3    3    0    0 -0.71795912015E+01 -0.19721952795E+01 -0.11013111481E+01  0.75265510220E+01  0.00000000000E+00 0.  1.
</event>
<event>
 7    1  0.2294216E-010  0.4778726E+02  0.7816164E-02  0.1312668E+00
        -11   -1    0    0    0    0  0.00000000000E+00  0.00000000000E+00  0.45593999997E+02  0.45594000000E+02  0.51100000000E-03 0.  1.
         11   -1    0    0    0    0 -0.00000000000E+00 -0.00000000000E+00 -0.45593999997E+02  0.45594000000E+02  0.51100000000E-03 0. -1.
    9900012    2    1    2    0    0 -0.17422031569E+02 -0.27773040002E+02 -0.28438616990E+02  0.47787264163E+02  0.19999968623E+02 0.  0.
        -12    1    1    2    0    0  0.17422031569E+02  0.27773040002E+02  0.28438616990E+02  0.43400735837E+02  0.00000000000E+00 0.  1.
         11    1    3    3    0    0 -0.11573201986E+02 -0.93641726023E+01 -0.48189775742E+01  0.15647660460E+02  0.51100000000E-03 0. -1.
        -11    1    3    3    0    0 -0.42480159342E+01 -0.19249425428E+01 -0.85931691536E+01  0.97771979388E+01  0.51100000000E-03 0.  1.
         12    1    3    3    0    0 -0.16008136482E+01 -0.16483924857E+02 -0.15026470262E+02  0.22362405764E+02  0.00000000000E+00 0. -1.
</event>
<event>
 7    1  0.2294216E-010  0.4778726E+02  0.7816164E-02  0.1312668E+00
        -11   -1    0    0    0    0  0.00000000000E+00  0.00000000000E+00  0.45593999997E+02  0.45594000000E+02  0.51100000000E-03 0. -1.
         11   -1    0    0    0    0 -0.00000000000E+00 -0.00000000000E+00 -0.45593999997E+02  0.45594000000E+02  0.51100000000E-03 0.  1.
    9900012    2    1    2    0    0 -0.62278104252E+01  0.10276125771E+02  0.41704189581E+02  0.47787264843E+02  0.19999971725E+02 0.  0.
        -12    1    1    2    0    0  0.62278104252E+01 -0.10276125771E+02 -0.41704189581E+02  0.43400735157E+02  0.00000000000E+00 0.  1.
         11    1    3    3    0    0  0.15935444269E+01 -0.28359910889E+01  0.13494595654E+02  0.13881150580E+02  0.51100000000E-03 0. -1.
        -11    1    3    3    0    0 -0.19150945328E+01 -0.40320321722E+00 -0.12646496546E+00  0.19611612766E+01  0.51100000000E-03 0.  1.
        -12    1    3    3    0    0 -0.59062603192E+01  0.13515320077E+02  0.28336058892E+02  0.31944952986E+02  0.00000000000E+00 0.  1.
</event>
<event>
 7    1  0.2294216E-010  0.4778726E+02  0.7816164E-02  0.1312668E+00
        -11   -1    0    0    0    0  0.00000000000E+00  0.00000000000E+00  0.45593999997E+02  0.45594000000E+02  0.51100000000E-03 0.  1.
         11   -1    0    0    0    0 -0.00000000000E+00 -0.00000000000E+00 -0.45593999997E+02  0.45594000000E+02  0.51100000000E-03 0. -1.
    9900012    2    1    2    0    0  0.35877314739E+01 -0.10720245010E+02 -0.41902611246E+02  0.47787259229E+02  0.19999946131E+02 0.  0.
        -12    1    1    2    0    0 -0.35877314739E+01  0.10720245010E+02  0.41902611246E+02  0.43400740771E+02  0.00000000000E+00 0.  1.
         11    1    3    3    0    0  0.66737393517E+01 -0.39798554826E+01 -0.17649920612E+02  0.19284650489E+02  0.51100000000E-03 0. -1.
        -11    1    3    3    0    0  0.47652435427E+01 -0.15243806638E+01 -0.50367333901E+01  0.70992933404E+01  0.51100000000E-03 0.  1.
         12    1    3    3    0    0 -0.78512514205E+01 -0.52160088641E+01 -0.19215957244E+02  0.21403315400E+02  0.00000000000E+00 0. -1.
</event>
<event>
 7    1  0.2294216E-010  0.4778727E+02  0.7816164E-02  0.1312668E+00
        -11   -1    0    0    0    0  0.00000000000E+00  0.00000000000E+00  0.45593999997E+02  0.45594000000E+02  0.51100000000E-03 0.  1.
         11   -1    0    0    0    0 -0.00000000000E+00 -0.00000000000E+00 -0.45593999997E+02  0.45594000000E+02  0.51100000000E-03 0. -1.
    9900012    2    1    2    0    0 -0.21551258659E+02 -0.29925933959E+02 -0.22882416562E+02  0.47787271195E+02  0.20000000685E+02 0.  0.
        -12    1    1    2    0    0  0.21551258659E+02  0.29925933959E+02  0.22882416562E+02  0.43400728805E+02  0.00000000000E+00 0.  1.
         11    1    3    3    0    0 -0.12207851599E+02 -0.17799690594E+02 -0.17814717546E+02  0.27986153494E+02  0.51100000000E-03 0. -1.
        -11    1    3    3    0    0  0.16920082331E+01 -0.32287428149E+01 -0.42541207915E+01  0.56022509758E+01  0.51100000000E-03 0.  1.
        -12    1    3    3    0    0 -0.11035415293E+02 -0.88975005501E+01 -0.81357822447E+00  0.14198866725E+02  0.00000000000E+00 0.  1.
</event>
<event>
 7    1  0.2294216E-010  0.4778727E+02  0.7816164E-02  0.1312668E+00
        -11   -1    0    0    0    0  0.00000000000E+00  0.00000000000E+00  0.45593999997E+02  0.45594000000E+02  0.51100000000E-03 0. -1.
         11   -1    0    0    0    0 -0.00000000000E+00 -0.00000000000E+00 -0.45593999997E+02  0.45594000000E+02  0.51100000000E-03 0.  1.
    9900012    2    1    2    0    0 -0.32428423241E+02  0.14513573620E+02  0.24927436601E+02  0.47787267879E+02  0.19999985566E+02 0.  0.
        -12    1    1    2    0    0  0.32428423241E+02 -0.14513573620E+02 -0.24927436601E+02  0.43400732121E+02  0.00000000000E+00 0.  1.
         11    1    3    3    0    0 -0.15128718309E+01 -0.30134311044E+01  0.16585684887E+01  0.37577117892E+01  0.51100000000E-03 0. -1.
        -11    1    3    3    0    0 -0.10719153834E+02  0.45348650470E+01  0.17219442574E+01  0.11765642872E+02  0.51100000000E-03 0.  1.
         12    1    3    3    0    0 -0.20196397576E+02  0.12992139678E+02  0.21546923855E+02  0.32263913217E+02  0.00000000000E+00 0. -1.
</event>
<event>
 7    1  0.2294216E-010  0.4778726E+02  0.7816164E-02  0.1312668E+00
        -11   -1    0    0    0    0  0.00000000000E+00  0.00000000000E+00  0.45593999997E+02  0.45594000000E+02  0.51100000000E-03 0.  1.
         11   -1    0    0    0    0 -0.00000000000E+00 -0.00000000000E+00 -0.45593999997E+02  0.45594000000E+02  0.51100000000E-03 0. -1.
    9900012    2    1    2    0    0  0.17833213081E+02  0.16284680063E+02 -0.36061194897E+02  0.47787261862E+02  0.19999958132E+02 0.  0.
        -12    1    1    2    0    0 -0.17833213081E+02 -0.16284680063E+02  0.36061194897E+02  0.43400738138E+02  0.00000000000E+00 0.  1.
         11    1    3    3    0    0  0.75423792770E+01 -0.72193970982E+00 -0.52852102940E+01  0.92380804400E+01  0.51100000000E-03 0. -1.
        -11    1    3    3    0    0  0.59416106712E+01  0.83341225082E+01 -0.58213502437E+01  0.11774907824E+02  0.51100000000E-03 0.  1.
        -12    1    3    3    0    0  0.43492231331E+01  0.86724972649E+01 -0.24954634359E+02  0.26774273597E+02  0.00000000000E+00 0.  1.
</event>
<event>
 7    1  0.2294216E-010  0.4778727E+02  0.7816164E-02  0.1312668E+00
        -11   -1    0    0    0    0  0.00000000000E+00  0.00000000000E+00  0.45593999997E+02  0.45594000000E+02  0.51100000000E-03 0.  1.
         11   -1    0    0    0    0 -0.00000000000E+00 -0.00000000000E+00 -0.45593999997E+02  0.45594000000E+02  0.51100000000E-03 0. -1.
    9900012    2    1    2    0    0  0.15614060584E+02  0.40477907837E+02 -0.11678059642E+01  0.47787266348E+02  0.19999978587E+02 0.  0.
        -12    1    1    2    0    0 -0.15614060584E+02 -0.40477907837E+02  0.11678059642E+01  0.43400733652E+02  0.00000000000E+00 0.  1.
         11    1    3    3    0    0  0.16599033361E+01  0.57812810532E+01  0.37507244689E+01  0.70884712036E+01  0.51100000000E-03 0. -1.
        -11    1    3    3    0    0  0.13567670303E+02  0.13452632189E+02 -0.13536375412E+01  0.19154303045E+02  0.51100000000E-03 0.  1.
        -12    1    3    3    0    0  0.38648694408E+00  0.21243994595E+02 -0.35648928919E+01  0.21544492100E+02  0.00000000000E+00 0.  1.
</event>
<event>
 7    1  0.2294216E-010  0.4778727E+02  0.7816164E-02  0.1312668E+00
        -11   -1    0    0    0    0  0.00000000000E+00  0.00000000000E+00  0.45593999997E+02  0.45594000000E+02  0.51100000000E-03 0.  1.
         11   -1    0    0    0    0 -0.00000000000E+00 -0.00000000000E+00 -0.45593999997E+02  0.45594000000E+02  0.51100000000E-03 0. -1.
    9900012    2    1    2    0    0  0.36922914275E+02 -0.22808420738E+02  0.31221487136E+00  0.47787272664E+02  0.20000007386E+02 0.  0.
        -12    1    1    2    0    0 -0.36922914275E+02  0.22808420738E+02 -0.31221487136E+00  0.43400727336E+02  0.00000000000E+00 0.  1.
         11    1    3    3    0    0  0.13635629642E+01 -0.78637597291E+00 -0.39984201064E+01  0.42970984089E+01  0.51100000000E-03 0. -1.
        -11    1    3    3    0    0  0.16044408927E+02 -0.83512035455E+01 -0.34848853196E+01  0.18420371452E+02  0.51100000000E-03 0.  1.
         12    1    3    3    0    0  0.19514942384E+02 -0.13670841220E+02  0.77955202973E+01  0.25069802804E+02  0.00000000000E+00 0. -1.
</event>
<event>
 7    1  0.2294216E-010  0.4778726E+02  0.7816164E-02  0.1312668E+00
        -11   -1    0    0    0    0  0.00000000000E+00  0.00000000000E+00  0.45593999997E+02  0.45594000000E+02  0.51100000000E-03 0.  1.
         11   -1    0    0    0    0 -0.00000000000E+00 -0.00000000000E+00 -0.45593999997E+02  0.45594000000E+02  0.51100000000E-03 0. -1.
    9900012    2    1    2    0    0  0.23088238430E+02  0.17677165945E+02 -0.32219169317E+02  0.47787264740E+02  0.19999971255E+02 0.  0.
        -12    1    1    2    0    0 -0.23088238430E+02 -0.17677165945E+02  0.32219169317E+02  0.43400735260E+02  0.00000000000E+00 0.  1.
         11    1    3    3    0    0  0.59045845580E+00  0.51101693951E+01 -0.30333418917E+01  0.59719038613E+01  0.51100000000E-03 0. -1.
        -11    1    3    3    0    0  0.74747591305E+01 -0.19543149894E+01 -0.29357004039E+01  0.82649687392E+01  0.51100000000E-03 0.  1.
         12    1    3    3    0    0  0.15023020843E+02  0.14521311539E+02 -0.26250127022E+02  0.33550392140E+02  0.00000000000E+00 0. -1.
</event>
<event>
 7    1  0.2294216E-010  0.4778728E+02  0.7816164E-02  0.1312668E+00
        -11   -1    0    0    0    0  0.00000000000E+00  0.00000000000E+00  0.45593999997E+02  0.45594000000E+02  0.51100000000E-03 0.  1.
         11   -1    0    0    0    0 -0.00000000000E+00 -0.00000000000E+00 -0.45593999997E+02  0.45594000000E+02  0.51100000000E-03 0. -1.
    9900012    2    1    2    0    0 -0.85180716630E+01  0.19905904894E+02 -0.37614087571E+02  0.47787283665E+02  0.20000057544E+02 0.  0.
        -12    1    1    2    0    0  0.85180716630E+01 -0.19905904894E+02  0.37614087571E+02  0.43400716335E+02  0.00000000000E+00 0.  1.
         11    1    3    3    0    0  0.11533853759E+01  0.39045296283E+01 -0.72053710559E+01  0.82760510968E+01  0.51100000000E-03 0. -1.
        -11    1    3    3    0    0  0.29206760598E+01  0.10724489715E+02 -0.99673959390E+01  0.14929635305E+02  0.51100000000E-03 0.  1.
        -12    1    3    3    0    0 -0.12592133099E+02  0.52768855516E+01 -0.20441320577E+02  0.24581597263E+02  0.00000000000E+00 0.  1.
</event>
<event>
 7    1  0.2294216E-010  0.4778727E+02  0.7816164E-02  0.1312668E+00
        -11   -1    0    0    0    0  0.00000000000E+00  0.00000000000E+00  0.45593999997E+02  0.45594000000E+02  0.51100000000E-03 0.  1.
         11   -1    0    0    0    0 -0.00000000000E+00 -0.00000000000E+00 -0.45593999997E+02  0.45594000000E+02  0.51100000000E-03 0. -1.
    9900012    2    1    2    0    0 -0.18984316703E+02 -0.38960945350E+02 -0.22942333377E+01  0.47787273626E+02  0.20000011768E+02 0.  0.
        -12    1    1    2    0    0  0.18984316703E+02  0.38960945350E+02  0.22942333377E+01  0.43400726374E+02  0.00000000000E+00 0.  1.
         11    1    3    3    0    0 -0.36236982501E+01 -0.89515376583E+01 -0.32493234585E+01  0.10189176545E+02  0.51100000000E-03 0. -1.
        -11    1    3    3    0    0 -0.25655520845E+00  0.19642229124E+01 -0.92557964349E+00  0.21864789417E+01  0.51100000000E-03 0.  1.
         12    1    3    3    0    0 -0.15104063244E+02 -0.31973630604E+02  0.18806697643E+01  0.35411618139E+02  0.00000000000E+00 0. -1.
</event>
<event>
 7    1  0.2294216E-010  0.4778730E+02  0.7816164E-02  0.1312668E+00
        -11   -1    0    0    0    0  0.00000000000E+00  0.00000000000E+00  0.45593999997E+02  0.45594000000E+02  0.51100000000E-03 0. -1.
         11   -1    0    0    0    0 -0.00000000000E+00 -0.00000000000E+00 -0.45593999997E+02  0.45594000000E+02  0.51100000000E-03 0.  1.
    9900012    2    1    2    0    0  0.21431389991E+02 -0.20468301693E+02  0.31707484745E+02  0.47787303692E+02  0.20000148853E+02 0.  0.
        -12    1    1    2    0    0 -0.21431389991E+02  0.20468301693E+02 -0.31707484745E+02  0.43400696308E+02  0.00000000000E+00 0.  1.
         11    1    3    3    0    0  0.62653985579E+01 -0.33752686515E+00  0.22397612242E+01  0.66622574310E+01  0.51100000000E-03 0. -1.
        -11    1    3    3    0    0  0.35215491630E+01 -0.56636329154E+01  0.46421859795E+00  0.66853231392E+01  0.51100000000E-03 0.  1.
         12    1    3    3    0    0  0.11644442270E+02 -0.14467141913E+02  0.29003504923E+02  0.34439723122E+02  0.00000000000E+00 0. -1.
</event>
<event>
 7    1  0.2294216E-010  0.4778728E+02  0.7816164E-02  0.1312668E+00
        -11   -1    0    0    0    0  0.00000000000E+00  0.00000000000E+00  0.45593999997E+02  0.45594000000E+02  0.51100000000E-03 0. -1.
         11   -1    0    0    0    0 -0.00000000000E+00 -0.00000000000E+00 -0.45593999997E+02  0.45594000000E+02  0.51100000000E-03 0.  1.
    9900012    2    1    2    0    0 -0.19850204578E+02  0.22485701938E+02 -0.31368537259E+02  0.47787279463E+02  0.20000038382E+02 0.  0.
        -12    1    1    2    0    0  0.19850204578E+02 -0.22485701938E+02  0.31368537259E+02  0.43400720537E+02  0.00000000000E+00 0.  1.
         11    1    3    3    0    0 -0.15308437261E+02  0.19092447318E+02 -0.18887164073E+02  0.30912695822E+02  0.51100000000E-03 0. -1.
        -11    1    3    3    0    0  0.91456036140E+00  0.46244168502E+01 -0.22710933889E+01  0.52325440563E+01  0.51100000000E-03 0.  1.
         12    1    3    3    0    0 -0.54563276782E+01 -0.12311622308E+01 -0.10210279796E+02  0.11642039585E+02  0.00000000000E+00 0. -1.
</event>
<event>
 7    1  0.2294216E-010  0.4778727E+02  0.7816164E-02  0.1312668E+00
        -11   -1    0    0    0    0  0.00000000000E+00  0.00000000000E+00  0.45593999997E+02  0.45594000000E+02  0.51100000000E-03 0.  1.
         11   -1    0    0    0    0 -0.00000000000E+00 -0.00000000000E+00 -0.45593999997E+02  0.45594000000E+02  0.51100000000E-03 0. -1.
    9900012    2    1    2    0    0 -0.42517472778E+02  0.13171805222E+01 -0.86112060293E+01  0.47787270453E+02  0.19999997301E+02 0.  0.
        -12    1    1    2    0    0  0.42517472778E+02 -0.13171805222E+01  0.86112060293E+01  0.43400729547E+02  0.00000000000E+00 0.  1.
         11    1    3    3    0    0 -0.20349186039E+02 -0.86292874462E+01 -0.47257469054E+00  0.22108308424E+02  0.51100000000E-03 0.  1.
        -11    1    3    3    0    0 -0.56398072541E+01  0.18209218349E+01 -0.23120190527E+01  0.63614946792E+01  0.51100000000E-03 0. -1.
        -12    1    3    3    0    0 -0.16528479485E+02  0.81255461335E+01 -0.58266122860E+01  0.19317467350E+02  0.00000000000E+00 0.  1.
</event>
<event>
 7    1  0.2294216E-010  0.4778727E+02  0.7816164E-02  0.1312668E+00
        -11   -1    0    0    0    0  0.00000000000E+00  0.00000000000E+00  0.45593999997E+02  0.45594000000E+02  0.51100000000E-03 0. -1.
         11   -1    0    0    0    0 -0.00000000000E+00 -0.00000000000E+00 -0.45593999997E+02  0.45594000000E+02  0.51100000000E-03 0.  1.
    9900012    2    1    2    0    0  0.17583203419E+02 -0.29186034204E+02  0.26881766243E+02  0.47787274299E+02  0.20000014839E+02 0.  0.
        -12    1    1    2    0    0 -0.17583203419E+02  0.29186034204E+02 -0.26881766243E+02  0.43400725701E+02  0.00000000000E+00 0.  1.
         11    1    3    3    0    0 -0.15912610575E+01 -0.25318723361E+01  0.54667464270E+01  0.62311961964E+01  0.51100000000E-03 0. -1.
        -11    1    3    3    0    0 -0.18736226022E+00 -0.93112839149E+01  0.33314372216E+01  0.98910862388E+01  0.51100000000E-03 0.  1.
        -12    1    3    3    0    0  0.19361826737E+02 -0.17342877953E+02  0.18083582595E+02  0.31664991864E+02  0.00000000000E+00 0.  1.
</event>
<event>
 7    1  0.2294216E-010  0.4778727E+02  0.7816164E-02  0.1312668E+00
        -11   -1    0    0    0    0  0.00000000000E+00  0.00000000000E+00  0.45593999997E+02  0.45594000000E+02  0.51100000000E-03 0.  1.
         11   -1    0    0    0    0 -0.00000000000E+00 -0.00000000000E+00 -0.45593999997E+02  0.45594000000E+02  0.51100000000E-03 0. -1.
    9900012    2    1    2    0    0 -0.36485889000E+02  0.98193990228E+01 -0.21353747399E+02  0.47787271651E+02  0.20000002765E+02 0.  0.
        -12    1    1    2    0    0  0.36485889000E+02 -0.98193990228E+01  0.21353747399E+02  0.43400728349E+02  0.00000000000E+00 0.  1.
         11    1    3    3    0    0 -0.95755773090E+01  0.61104512817E+01 -0.12867567961E+02  0.17164020541E+02  0.51100000000E-03 0. -1.
        -11    1    3    3    0    0  0.66583073381E+00  0.11227834986E+01  0.64991026825E+00  0.14582033359E+01  0.51100000000E-03 0.  1.
        -12    1    3    3    0    0 -0.27576142424E+02  0.25861642425E+01 -0.91360897065E+01  0.29165047773E+02  0.00000000000E+00 0.  1.
</event>
<event>
 7    1  0.2294216E-010  0.4778727E+02  0.7816164E-02  0.1312668E+00
        -11   -1    0    0    0    0  0.00000000000E+00  0.00000000000E+00  0.45593999997E+02  0.45594000000E+02  0.51100000000E-03 0.  1.
         11   -1    0    0    0    0 -0.00000000000E+00 -0.00000000000E+00 -0.45593999997E+02  0.45594000000E+02  0.51100000000E-03 0. -1.
    9900012    2    1    2    0    0 -0.15257883904E+02  0.40473713843E+02 -0.35635572887E+01  0.47787268738E+02  0.19999989486E+02 0.  0.
        -12    1    1    2    0    0  0.15257883904E+02 -0.40473713843E+02  0.35635572887E+01  0.43400731262E+02  0.00000000000E+00 0.  1.
         11    1    3    3    0    0 -0.94402239157E+01  0.29166638562E+02 -0.40964949911E+00  0.30659067917E+02  0.51100000000E-03 0. -1.
        -11    1    3    3    0    0 -0.94943724002E+00  0.11290136061E+02 -0.44007054592E-02  0.11329987774E+02  0.51100000000E-03 0.  1.
        -12    1    3    3    0    0 -0.48682227485E+01  0.16939220911E-01 -0.31495070841E+01  0.57982130471E+01  0.00000000000E+00 0.  1.
</event>
<event>
 7    1  0.2294216E-010  0.4778727E+02  0.7816164E-02  0.1312668E+00
        -11   -1    0    0    0    0  0.00000000000E+00  0.00000000000E+00  0.45593999997E+02  0.45594000000E+02  0.51100000000E-03 0.  1.
         11   -1    0    0    0    0 -0.00000000000E+00 -0.00000000000E+00 -0.45593999997E+02  0.45594000000E+02  0.51100000000E-03 0. -1.
    9900012    2    1    2    0    0  0.62569723145E+00 -0.36218031150E+01 -0.43244814477E+02  0.47787274960E+02  0.20000017853E+02 0.  0.
        -12    1    1    2    0    0 -0.62569723145E+00  0.36218031150E+01  0.43244814477E+02  0.43400725040E+02  0.00000000000E+00 0.  1.
         11    1    3    3    0    0 -0.30199504094E+01 -0.11593259336E+01 -0.16557941588E+02  0.16870968170E+02  0.51100000000E-03 0. -1.
        -11    1    3    3    0    0 -0.25701037806E+01  0.17524355816E+01 -0.21652849475E+02  0.21875153818E+02  0.51100000000E-03 0.  1.
        -12    1    3    3    0    0  0.62157514215E+01 -0.42149127629E+01 -0.50340234137E+01  0.90411529720E+01  0.00000000000E+00 0.  1.
</event>
<event>
 7    1  0.2294216E-010  0.4778727E+02  0.7816164E-02  0.1312668E+00
        -11   -1    0    0    0    0  0.00000000000E+00  0.00000000000E+00  0.45593999997E+02  0.45594000000E+02  0.51100000000E-03 0. -1.
         11   -1    0    0    0    0 -0.00000000000E+00 -0.00000000000E+00 -0.45593999997E+02  0.45594000000E+02  0.51100000000E-03 0.  1.
    9900012    2    1    2    0    0 -0.50324703848E+01 -0.26198006816E+02  0.34233930313E+02  0.47787270698E+02  0.19999998419E+02 0.  0.
        -12    1    1    2    0    0  0.50324703848E+01  0.26198006816E+02 -0.34233930313E+02  0.43400729302E+02  0.00000000000E+00 0.  1.
         11    1    3    3    0    0  0.43062359452E+01 -0.14607492160E+02  0.90701210053E+01  0.17725393946E+02  0.51100000000E-03 0. -1.
        -11    1    3    3    0    0 -0.39420428149E+01 -0.57628739449E+01  0.56106668360E+01  0.89571200877E+01  0.51100000000E-03 0.  1.
         12    1    3    3    0    0 -0.53966635151E+01 -0.58276407111E+01  0.19553142471E+02  0.21104756664E+02  0.00000000000E+00 0. -1.
</event>
<event>
 7    1  0.2294216E-010  0.4778727E+02  0.7816164E-02  0.1312668E+00
        -11   -1    0    0    0    0  0.00000000000E+00  0.00000000000E+00  0.45593999997E+02  0.45594000000E+02  0.51100000000E-03 0. -1.
         11   -1    0    0    0    0 -0.00000000000E+00 -0.00000000000E+00 -0.45593999997E+02  0.45594000000E+02  0.51100000000E-03 0.  1.
    9900012    2    1    2    0    0  0.34479732015E+02 -0.13333059625E+01  0.26324773212E+02  0.47787270637E+02  0.19999998140E+02 0.  0.
        -12    1    1    2    0    0 -0.34479732015E+02  0.13333059625E+01 -0.26324773212E+02  0.43400729363E+02  0.00000000000E+00 0.  1.
         11    1    3    3    0    0  0.13853584157E+02 -0.33065257737E+01  0.66257286916E+01  0.15708443196E+02  0.51100000000E-03 0. -1.
        -11    1    3    3    0    0  0.32686178291E+01  0.30702977078E+00 -0.22990142409E+01  0.40079416829E+01  0.51100000000E-03 0.  1.
         12    1    3    3    0    0  0.17357530029E+02  0.16661900404E+01  0.21998058761E+02  0.28070885758E+02  0.00000000000E+00 0. -1.
</event>
<event>
 7    1  0.2294216E-010  0.4778727E+02  0.7816164E-02  0.1312668E+00
        -11   -1    0    0    0    0  0.00000000000E+00  0.00000000000E+00  0.45593999997E+02  0.45594000000E+02  0.51100000000E-03 0.  1.
         11   -1    0    0    0    0 -0.00000000000E+00 -0.00000000000E+00 -0.45593999997E+02  0.45594000000E+02  0.51100000000E-03 0. -1.
    9900012    2    1    2    0    0  0.27288209197E+02 -0.62549156446E+01 -0.33164032159E+02  0.47787270053E+02  0.19999995479E+02 0.  0.
        -12    1    1    2    0    0 -0.27288209197E+02  0.62549156446E+01  0.33164032159E+02  0.43400729947E+02  0.00000000000E+00 0.  1.
         11    1    3    3    0    0  0.56478832023E+01 -0.64743479319E+00 -0.43787921596E+00  0.57017098266E+01  0.51100000000E-03 0. -1.
        -11    1    3    3    0    0  0.32398072227E+01 -0.58488909814E+01 -0.15492434071E+02  0.16873689290E+02  0.51100000000E-03 0.  1.
         12    1    3    3    0    0  0.18400518772E+02  0.24141013000E+00 -0.17233718872E+02  0.25211870936E+02  0.00000000000E+00 0. -1.
</event>
<event>
 7    1  0.2294216E-010  0.4778727E+02  0.7816164E-02  0.1312668E+00
        -11   -1    0    0    0    0  0.00000000000E+00  0.00000000000E+00  0.45593999997E+02  0.45594000000E+02  0.51100000000E-03 0.  1.
         11   -1    0    0    0    0 -0.00000000000E+00 -0.00000000000E+00 -0.45593999997E+02  0.45594000000E+02  0.51100000000E-03 0. -1.
    9900012    2    1    2    0    0 -0.29440233474E+02  0.31621335767E+02 -0.41215315055E+01  0.47787271381E+02  0.20000001536E+02 0.  0.
        -12    1    1    2    0    0  0.29440233474E+02 -0.31621335767E+02  0.41215315055E+01  0.43400728619E+02  0.00000000000E+00 0.  1.
         11    1    3    3    0    0 -0.27695016895E+01  0.76557510085E+01  0.16660144791E+01  0.83100100853E+01  0.51100000000E-03 0. -1.
        -11    1    3    3    0    0 -0.74959470091E+00  0.12861666210E+00  0.30720090616E+01  0.31647550295E+01  0.51100000000E-03 0.  1.
         12    1    3    3    0    0 -0.25921137083E+02  0.23836968096E+02 -0.88595550462E+01  0.36312506266E+02  0.00000000000E+00 0. -1.
</event>
<event>
 7    1  0.2294216E-010  0.4778727E+02  0.7816164E-02  0.1312668E+00
        -11   -1    0    0    0    0  0.00000000000E+00  0.00000000000E+00  0.45593999997E+02  0.45594000000E+02  0.51100000000E-03 0.  1.
         11   -1    0    0    0    0 -0.00000000000E+00 -0.00000000000E+00 -0.45593999997E+02  0.45594000000E+02  0.51100000000E-03 0. -1.
    9900012    2    1    2    0    0 -0.30286670865E+01 -0.40455513971E+02  0.15420817976E+02  0.47787273485E+02  0.20000011126E+02 0.  0.
        -12    1    1    2    0    0  0.30286670865E+01  0.40455513971E+02 -0.15420817976E+02  0.43400726515E+02  0.00000000000E+00 0.  1.
         11    1    3    3    0    0 -0.18734648863E+00 -0.16349859026E+02  0.50339172697E+01  0.17108281978E+02  0.51100000000E-03 0. -1.
        -11    1    3    3    0    0  0.64123792809E+01 -0.96371741501E+01  0.55434678731E+01  0.12834475835E+02  0.51100000000E-03 0.  1.
         12    1    3    3    0    0 -0.92536998788E+01 -0.14468480795E+02  0.48434328337E+01  0.17844515672E+02  0.00000000000E+00 0. -1.
</event>
<event>
 7    1  0.2294216E-010  0.4778727E+02  0.7816164E-02  0.1312668E+00
        -11   -1    0    0    0    0  0.00000000000E+00  0.00000000000E+00  0.45593999997E+02  0.45594000000E+02  0.51100000000E-03 0.  1.
         11   -1    0    0    0    0 -0.00000000000E+00 -0.00000000000E+00 -0.45593999997E+02  0.45594000000E+02  0.51100000000E-03 0. -1.
    9900012    2    1    2    0    0  0.26750226165E+02  0.33586659314E+02  0.63233645010E+01  0.47787271638E+02  0.20000002707E+02 0.  0.
        -12    1    1    2    0    0 -0.26750226165E+02 -0.33586659314E+02 -0.63233645010E+01  0.43400728362E+02  0.00000000000E+00 0.  1.
         11    1    3    3    0    0  0.16482008531E+02  0.11892409901E+02  0.63159139479E+01  0.21283251343E+02  0.51100000000E-03 0. -1.
        -11    1    3    3    0    0  0.23148321074E+01  0.69553814281E+01  0.51795562577E+01  0.89757217974E+01  0.51100000000E-03 0.  1.
        -12    1    3    3    0    0  0.79533855258E+01  0.14738867985E+02 -0.51721057046E+01  0.17528298498E+02  0.00000000000E+00 0.  1.
</event>
<event>
 7    1  0.2294216E-010  0.4778727E+02  0.7816164E-02  0.1312668E+00
        -11   -1    0    0    0    0  0.00000000000E+00  0.00000000000E+00  0.45593999997E+02  0.45594000000E+02  0.51100000000E-03 0.  1.
         11   -1    0    0    0    0 -0.00000000000E+00 -0.00000000000E+00 -0.45593999997E+02  0.45594000000E+02  0.51100000000E-03 0. -1.
    9900012    2    1    2    0    0 -0.23717070439E+02  0.47080253917E+01 -0.36041065931E+02  0.47787269975E+02  0.19999995122E+02 0.  0.
        -12    1    1    2    0    0  0.23717070439E+02 -0.47080253917E+01  0.36041065931E+02  0.43400730025E+02  0.00000000000E+00 0.  1.
         11    1    3    3    0    0 -0.46868301787E+01  0.14677142490E+01 -0.92537427773E+01  0.10476274046E+02  0.51100000000E-03 0. -1.
        -11    1    3    3    0    0 -0.46644233568E+01  0.36349597605E+01  0.10282296363E+01  0.60022524237E+01  0.51100000000E-03 0.  1.
        -12    1    3    3    0    0 -0.14365816904E+02 -0.39464861782E+00 -0.27815552790E+02  0.31308743505E+02  0.00000000000E+00 0.  1.
</event>
<event>
 7    1  0.2294216E-010  0.4778727E+02  0.7816164E-02  0.1312668E+00
        -11   -1    0    0    0    0  0.00000000000E+00  0.00000000000E+00  0.45593999997E+02  0.45594000000E+02  0.51100000000E-03 0.  1.
         11   -1    0    0    0    0 -0.00000000000E+00 -0.00000000000E+00 -0.45593999997E+02  0.45594000000E+02  0.51100000000E-03 0. -1.
    9900012    2    1    2    0    0 -0.33567377366E+02 -0.27388236466E+02 -0.25959276315E+01  0.47787272354E+02  0.20000005971E+02 0.  0.
        -12    1    1    2    0    0  0.33567377366E+02  0.27388236466E+02  0.25959276315E+01  0.43400727646E+02  0.00000000000E+00 0.  1.
         11    1    3    3    0    0 -0.93029796222E+01 -0.87312395602E+01  0.57748502680E-01  0.12758656248E+02  0.51100000000E-03 0. -1.
        -11    1    3    3    0    0 -0.79255305168E+01 -0.11091476793E+02  0.61863427468E+01  0.14970161263E+02  0.51100000000E-03 0.  1.
         12    1    3    3    0    0 -0.16338867227E+02 -0.75655201128E+01 -0.88400188811E+01  0.20058454842E+02  0.00000000000E+00 0. -1.
</event>
<event>
 7    1  0.2294216E-010  0.4778727E+02  0.7816164E-02  0.1312668E+00
        -11   -1    0    0    0    0  0.00000000000E+00  0.00000000000E+00  0.45593999997E+02  0.45594000000E+02  0.51100000000E-03 0.  1.
         11   -1    0    0    0    0 -0.00000000000E+00 -0.00000000000E+00 -0.45593999997E+02  0.45594000000E+02  0.51100000000E-03 0. -1.
    9900012    2    1    2    0    0 -0.18293315708E+02 -0.31376743463E+02 -0.23758736900E+02  0.47787274096E+02  0.20000013914E+02 0.  0.
        -12    1    1    2    0    0  0.18293315708E+02  0.31376743463E+02  0.23758736900E+02  0.43400725904E+02  0.00000000000E+00 0.  1.
         11    1    3    3    0    0 -0.82082432296E-01 -0.34518459369E+01 -0.80262518992E+01  0.87374308414E+01  0.51100000000E-03 0. -1.
        -11    1    3    3    0    0 -0.13252086975E+02 -0.18865548505E+02 -0.16999503422E+02  0.28644543048E+02  0.51100000000E-03 0.  1.
        -12    1    3    3    0    0 -0.49591463004E+01 -0.90593490210E+01  0.12670184210E+01  0.10405300207E+02  0.00000000000E+00 0.  1.
</event>
<event>
 7    1  0.2294216E-010  0.4778727E+02  0.7816164E-02  0.1312668E+00
        -11   -1    0    0    0    0  0.00000000000E+00  0.00000000000E+00  0.45593999997E+02  0.45594000000E+02  0.51100000000E-03 0. -1.
         11   -1    0    0    0    0 -0.00000000000E+00 -0.00000000000E+00 -0.45593999997E+02  0.45594000000E+02  0.51100000000E-03 0.  1.
    9900012    2    1    2    0    0 -0.25375639678E+02  0.13133364193E+02  0.32668261832E+02  0.47787266421E+02  0.19999978918E+02 0.  0.
        -12    1    1    2    0    0  0.25375639678E+02 -0.13133364193E+02 -0.32668261832E+02  0.43400733579E+02  0.00000000000E+00 0.  1.
         11    1    3    3    0    0 -0.81836028105E+01  0.71237711145E+01  0.16889661778E+02  0.20074365372E+02  0.51100000000E-03 0. -1.
        -11    1    3    3    0    0 -0.24637203856E+01  0.74192626991E+01  0.38862078662E+01  0.87302914600E+01  0.51100000000E-03 0.  1.
        -12    1    3    3    0    0 -0.14728316482E+02 -0.14096696206E+01  0.11892392188E+02  0.18982609588E+02  0.00000000000E+00 0.  1.
</event>
<event>
 7    1  0.8672166E-010  0.4778726E+02  0.7816164E-02  0.1312668E+00
        -11   -1    0    0    0    0  0.00000000000E+00  0.00000000000E+00  0.45593999997E+02  0.45594000000E+02  0.51100000000E-03 0. -1.
         11   -1    0    0    0    0 -0.00000000000E+00 -0.00000000000E+00 -0.45593999997E+02  0.45594000000E+02  0.51100000000E-03 0.  1.
    9900012    2    1    2    0    0  0.17405198723E+02  0.35689039200E+02  0.17520712240E+02  0.47787264765E+02  0.19999971368E+02 0.  0.
        -12    1    1    2    0    0 -0.17405198723E+02 -0.35689039200E+02 -0.17520712240E+02  0.43400735235E+02  0.00000000000E+00 0.  1.
         11    1    3    3    0    0  0.51929783081E+01  0.10522107743E+02  0.80326122068E+01  0.14219867587E+02  0.51100000000E-03 0. -1.
        -11    1    3    3    0    0  0.77345837337E+01  0.24264172933E+02  0.30150230241E+01  0.25644965155E+02  0.51100000000E-03 0.  1.
        -12    1    3    3    0    0  0.44776366810E+01  0.90275852346E+00  0.64730770091E+01  0.79224320233E+01  0.00000000000E+00 0.  1.
</event>
<event>
 7    1  0.2294216E-010  0.4778721E+02  0.7816164E-02  0.1312668E+00
        -11   -1    0    0    0    0  0.00000000000E+00  0.00000000000E+00  0.45593999997E+02  0.45594000000E+02  0.51100000000E-03 0.  1.
         11   -1    0    0    0    0 -0.00000000000E+00 -0.00000000000E+00 -0.45593999997E+02  0.45594000000E+02  0.51100000000E-03 0. -1.
    9900012    2    1    2    0    0 -0.26573627877E+02  0.13530339824E+01 -0.34287607071E+02  0.47787212010E+02  0.19999730836E+02 0.  0.
        -12    1    1    2    0    0  0.26573627877E+02 -0.13530339824E+01  0.34287607071E+02  0.43400787990E+02  0.00000000000E+00 0.  1.
         11    1    3    3    0    0 -0.62386606014E+01  0.13528575588E+01 -0.93342654549E+01  0.11308387220E+02  0.51100000000E-03 0. -1.
        -11    1    3    3    0    0 -0.15868295969E+02 -0.67152540495E+01 -0.11249804152E+02  0.20578035563E+02  0.51100000000E-03 0.  1.
        -12    1    3    3    0    0 -0.44666713062E+01  0.67154304731E+01 -0.13703537464E+02  0.15900789227E+02  0.00000000000E+00 0.  1.
</event>
<event>
 7    1  0.2294216E-010  0.4778727E+02  0.7816164E-02  0.1312668E+00
        -11   -1    0    0    0    0  0.00000000000E+00  0.00000000000E+00  0.45593999997E+02  0.45594000000E+02  0.51100000000E-03 0.  1.
         11   -1    0    0    0    0 -0.00000000000E+00 -0.00000000000E+00 -0.45593999997E+02  0.45594000000E+02  0.51100000000E-03 0. -1.
    9900012    2    1    2    0    0 -0.35915928933E+01 -0.43238878930E+02 -0.10596740939E+01  0.47787273050E+02  0.20000009144E+02 0.  0.
        -12    1    1    2    0    0  0.35915928933E+01  0.43238878930E+02  0.10596740939E+01  0.43400726950E+02  0.00000000000E+00 0.  1.
         11    1    3    3    0    0  0.18811639268E+01 -0.48100436482E+01 -0.37911277340E+00  0.51787087554E+01  0.51100000000E-03 0. -1.
        -11    1    3    3    0    0 -0.75454923022E+01 -0.50687332563E+01 -0.12746858542E+01  0.91788526077E+01  0.51100000000E-03 0.  1.
         12    1    3    3    0    0  0.20727354821E+01 -0.33360102025E+02  0.59412453371E+00  0.33429711687E+02  0.00000000000E+00 0. -1.
</event>
<event>
 7    1  0.2294216E-010  0.4778727E+02  0.7816164E-02  0.1312668E+00
        -11   -1    0    0    0    0  0.00000000000E+00  0.00000000000E+00  0.45593999997E+02  0.45594000000E+02  0.51100000000E-03 0. -1.
         11   -1    0    0    0    0 -0.00000000000E+00 -0.00000000000E+00 -0.45593999997E+02  0.45594000000E+02  0.51100000000E-03 0.  1.
    9900012    2    1    2    0    0 -0.34781595469E+01  0.43260307395E+02 -0.26713383997E+00  0.47787272469E+02  0.20000006496E+02 0.  0.
        -12    1    1    2    0    0  0.34781595469E+01 -0.43260307395E+02  0.26713383997E+00  0.43400727531E+02  0.00000000000E+00 0.  1.
         11    1    3    3    0    0  0.58393710272E+01  0.33025890210E+02 -0.86949087589E+00  0.33549421646E+02  0.51100000000E-03 0. -1.
        -11    1    3    3    0    0 -0.65451246072E+00  0.66025972244E+00 -0.83082909061E+00  0.12468386829E+01  0.51100000000E-03 0.  1.
         12    1    3    3    0    0 -0.86630181134E+01  0.95741574624E+01  0.14331861265E+01  0.12991012140E+02  0.00000000000E+00 0. -1.
</event>
<event>
 7    1  0.2294216E-010  0.4778727E+02  0.7816164E-02  0.1312668E+00
        -11   -1    0    0    0    0  0.00000000000E+00  0.00000000000E+00  0.45593999997E+02  0.45594000000E+02  0.51100000000E-03 0. -1.
         11   -1    0    0    0    0 -0.00000000000E+00 -0.00000000000E+00 -0.45593999997E+02  0.45594000000E+02  0.51100000000E-03 0.  1.
    9900012    2    1    2    0    0  0.34602963358E+02  0.16239080478E+02  0.20556036983E+02  0.47787268850E+02  0.19999989993E+02 0.  0.
        -12    1    1    2    0    0 -0.34602963358E+02 -0.16239080478E+02 -0.20556036983E+02  0.43400731150E+02  0.00000000000E+00 0.  1.
         11    1    3    3    0    0  0.23276941692E+02  0.60763854667E+01  0.13139793746E+02  0.27411542365E+02  0.51100000000E-03 0. -1.
        -11    1    3    3    0    0  0.67358932872E+01 -0.93961284187E+00  0.39805392544E+01  0.78803441350E+01  0.51100000000E-03 0.  1.
        -12    1    3    3    0    0  0.45901283792E+01  0.11102307853E+02  0.34357039822E+01  0.12495382350E+02  0.00000000000E+00 0.  1.
</event>
<event>
 7    1  0.2294216E-010  0.4778725E+02  0.7816164E-02  0.1312668E+00
        -11   -1    0    0    0    0  0.00000000000E+00  0.00000000000E+00  0.45593999997E+02  0.45594000000E+02  0.51100000000E-03 0. -1.
         11   -1    0    0    0    0 -0.00000000000E+00 -0.00000000000E+00 -0.45593999997E+02  0.45594000000E+02  0.51100000000E-03 0.  1.
    9900012    2    1    2    0    0 -0.42784411708E+02 -0.55074074461E+01  0.47736813204E+01  0.47787245913E+02  0.19999885416E+02 0.  0.
        -12    1    1    2    0    0  0.42784411708E+02  0.55074074461E+01 -0.47736813204E+01  0.43400754087E+02  0.00000000000E+00 0.  1.
         11    1    3    3    0    0 -0.30054904505E+02 -0.21280032437E+01  0.54663718143E+01  0.30622000322E+02  0.51100000000E-03 0. -1.
        -11    1    3    3    0    0 -0.43651893444E+01  0.34408982374E+01  0.22221589108E+01  0.59860378531E+01  0.51100000000E-03 0.  1.
         12    1    3    3    0    0 -0.83643178579E+01 -0.68203024399E+01 -0.29148494048E+01  0.11179207738E+02  0.00000000000E+00 0. -1.
</event>
<event>
 7    1  0.2294216E-010  0.4778727E+02  0.7816164E-02  0.1312668E+00
        -11   -1    0    0    0    0  0.00000000000E+00  0.00000000000E+00  0.45593999997E+02  0.45594000000E+02  0.51100000000E-03 0.  1.
         11   -1    0    0    0    0 -0.00000000000E+00 -0.00000000000E+00 -0.45593999997E+02  0.45594000000E+02  0.51100000000E-03 0. -1.
    9900012    2    1    2    0    0  0.33453724264E+02 -0.25677107623E+02 -0.10254651380E+02  0.47787269615E+02  0.19999993482E+02 0.  0.
        -12    1    1    2    0    0 -0.33453724264E+02  0.25677107623E+02  0.10254651380E+02  0.43400730385E+02  0.00000000000E+00 0.  1.
         11    1    3    3    0    0  0.20100761851E+02 -0.16462922503E+02 -0.29420434422E+01  0.26148117795E+02  0.51100000000E-03 0. -1.
        -11    1    3    3    0    0  0.81290034858E+00 -0.39830207112E+01  0.25952941475E+01  0.48229464994E+01  0.51100000000E-03 0.  1.
         12    1    3    3    0    0  0.12540062065E+02 -0.52311644087E+01 -0.99079020854E+01  0.16816205321E+02  0.00000000000E+00 0. -1.
</event>
<event>
 7    1  0.2294216E-010  0.4778727E+02  0.7816164E-02  0.1312668E+00
        -11   -1    0    0    0    0  0.00000000000E+00  0.00000000000E+00  0.45593999997E+02  0.45594000000E+02  0.51100000000E-03 0. -1.
         11   -1    0    0    0    0 -0.00000000000E+00 -0.00000000000E+00 -0.45593999997E+02  0.45594000000E+02  0.51100000000E-03 0.  1.
    9900012    2    1    2    0    0 -0.41439954054E+02 -0.12017884201E+02 -0.46822755617E+01  0.47787273772E+02  0.20000012435E+02 0.  0.
        -12    1    1    2    0    0  0.41439954054E+02  0.12017884201E+02  0.46822755617E+01  0.43400726228E+02  0.00000000000E+00 0.  1.
         11    1    3    3    0    0 -0.11794589028E+02 -0.86435811631E+00  0.52132513785E+01  0.12924296325E+02  0.51100000000E-03 0. -1.
        -11    1    3    3    0    0 -0.65885147557E+00 -0.33450021654E+01 -0.10065099906E+01  0.35547415343E+01  0.51100000000E-03 0.  1.
         12    1    3    3    0    0 -0.28986513550E+02 -0.78085239193E+01 -0.88890169496E+01  0.31308235912E+02  0.00000000000E+00 0. -1.
</event>
<event>
 7    1  0.2294216E-010  0.4778727E+02  0.7816164E-02  0.1312668E+00
        -11   -1    0    0    0    0  0.00000000000E+00  0.00000000000E+00  0.45593999997E+02  0.45594000000E+02  0.51100000000E-03 0.  1.
         11   -1    0    0    0    0 -0.00000000000E+00 -0.00000000000E+00 -0.45593999997E+02  0.45594000000E+02  0.51100000000E-03 0. -1.
    9900012    2    1    2    0    0 -0.15159562774E+02  0.16033205143E+02 -0.37373083069E+02  0.47787270182E+02  0.19999996068E+02 0.  0.
        -12    1    1    2    0    0  0.15159562774E+02 -0.16033205143E+02  0.37373083069E+02  0.43400729818E+02  0.00000000000E+00 0.  1.
         11    1    3    3    0    0 -0.17935039449E+01  0.71931948015E+01 -0.52435828719E+01  0.90804113039E+01  0.51100000000E-03 0. -1.
        -11    1    3    3    0    0  0.22556477501E+01 -0.21182511785E-02 -0.98027239494E+01  0.10058893992E+02  0.51100000000E-03 0.  1.
        -12    1    3    3    0    0 -0.15621706579E+02  0.88421285924E+01 -0.22326776248E+02  0.28647964886E+02  0.00000000000E+00 0.  1.
</event>
<event>
 7    1  0.2294216E-010  0.4778727E+02  0.7816164E-02  0.1312668E+00
        -11   -1    0    0    0    0  0.00000000000E+00  0.00000000000E+00  0.45593999997E+02  0.45594000000E+02  0.51100000000E-03 0.  1.
         11   -1    0    0    0    0 -0.00000000000E+00 -0.00000000000E+00 -0.45593999997E+02  0.45594000000E+02  0.51100000000E-03 0. -1.
    9900012    2    1    2    0    0  0.17470116443E+02  0.17469922709E+02 -0.35682206160E+02  0.47787274148E+02  0.20000014152E+02 0.  0.
        -12    1    1    2    0    0 -0.17470116443E+02 -0.17469922709E+02  0.35682206160E+02  0.43400725852E+02  0.00000000000E+00 0.  1.
         11    1    3    3    0    0  0.31983205644E+01  0.99682775311E+01 -0.12123332599E+02  0.16017833965E+02  0.51100000000E-03 0. -1.
        -11    1    3    3    0    0  0.24391432929E+01  0.67618593160E+00  0.17030533905E+01  0.30507439305E+01  0.51100000000E-03 0.  1.
         12    1    3    3    0    0  0.11832652586E+02  0.68254592460E+01 -0.25261926951E+02  0.28718696252E+02  0.00000000000E+00 0. -1.
</event>
<event>
 7    1  0.2294216E-010  0.4778727E+02  0.7816164E-02  0.1312668E+00
        -11   -1    0    0    0    0  0.00000000000E+00  0.00000000000E+00  0.45593999997E+02  0.45594000000E+02  0.51100000000E-03 0.  1.
         11   -1    0    0    0    0 -0.00000000000E+00 -0.00000000000E+00 -0.45593999997E+02  0.45594000000E+02  0.51100000000E-03 0. -1.
    9900012    2    1    2    0    0 -0.87671532528E+01  0.36691108740E+02 -0.21459794235E+02  0.47787271834E+02  0.20000003599E+02 0.  0.
        -12    1    1    2    0    0  0.87671532528E+01 -0.36691108740E+02  0.21459794235E+02  0.43400728166E+02  0.00000000000E+00 0.  1.
         11    1    3    3    0    0 -0.16373415541E+01  0.39797418146E+01  0.10004647373E+01  0.44181627661E+01  0.51100000000E-03 0. -1.
        -11    1    3    3    0    0  0.22129957915E+01  0.21776721528E+01  0.14999506404E+01  0.34481094187E+01  0.51100000000E-03 0.  1.
         12    1    3    3    0    0 -0.93428074901E+01  0.30533694773E+02 -0.23960209613E+02  0.39920999649E+02  0.00000000000E+00 0. -1.
</event>
<event>
 7    1  0.2294216E-010  0.4778727E+02  0.7816164E-02  0.1312668E+00
        -11   -1    0    0    0    0  0.00000000000E+00  0.00000000000E+00  0.45593999997E+02  0.45594000000E+02  0.51100000000E-03 0.  1.
         11   -1    0    0    0    0 -0.00000000000E+00 -0.00000000000E+00 -0.45593999997E+02  0.45594000000E+02  0.51100000000E-03 0. -1.
    9900012    2    1    2    0    0 -0.20466292393E+02 -0.30348693306E+02 -0.23317610141E+02  0.47787271291E+02  0.20000001126E+02 0.  0.
        -12    1    1    2    0    0  0.20466292393E+02  0.30348693306E+02  0.23317610141E+02  0.43400728709E+02  0.00000000000E+00 0.  1.
         11    1    3    3    0    0 -0.14564627440E+01 -0.11872804230E+02 -0.47971245998E+01  0.12887869052E+02  0.51100000000E-03 0. -1.
        -11    1    3    3    0    0 -0.41298916888E+01 -0.11195835072E+02 -0.12479886799E+02  0.17267029365E+02  0.51100000000E-03 0.  1.
         12    1    3    3    0    0 -0.14879937960E+02 -0.72800540047E+01 -0.60405987425E+01  0.17632372875E+02  0.00000000000E+00 0. -1.
</event>
<event>
 7    1  0.2294216E-010  0.4778727E+02  0.7816164E-02  0.1312668E+00
        -11   -1    0    0    0    0  0.00000000000E+00  0.00000000000E+00  0.45593999997E+02  0.45594000000E+02  0.51100000000E-03 0.  1.
         11   -1    0    0    0    0 -0.00000000000E+00 -0.00000000000E+00 -0.45593999997E+02  0.45594000000E+02  0.51100000000E-03 0. -1.
    9900012    2    1    2    0    0 -0.22994669078E+02 -0.21288474141E+02 -0.30027806257E+02  0.47787273210E+02  0.20000009875E+02 0.  0.
        -12    1    1    2    0    0  0.22994669078E+02  0.21288474141E+02  0.30027806257E+02  0.43400726790E+02  0.00000000000E+00 0.  1.
         11    1    3    3    0    0 -0.63847739232E+01 -0.89779346110E+01 -0.98188791599E+01  0.14757338383E+02  0.51100000000E-03 0. -1.
        -11    1    3    3    0    0 -0.12982361523E+02 -0.48287365464E+01 -0.33781186159E+01  0.14257282104E+02  0.51100000000E-03 0.  1.
        -12    1    3    3    0    0 -0.36275336316E+01 -0.74818029840E+01 -0.16830808482E+02  0.18772652724E+02  0.00000000000E+00 0.  1.
</event>
<event>
 7    1  0.2294216E-010  0.4778727E+02  0.7816164E-02  0.1312668E+00
        -11   -1    0    0    0    0  0.00000000000E+00  0.00000000000E+00  0.45593999997E+02  0.45594000000E+02  0.51100000000E-03 0.  1.
         11   -1    0    0    0    0 -0.00000000000E+00 -0.00000000000E+00 -0.45593999997E+02  0.45594000000E+02  0.51100000000E-03 0. -1.
    9900012    2    1    2    0    0  0.12301673924E+02 -0.19239043177E+02 -0.36907333960E+02  0.47787271161E+02  0.20000000533E+02 0.  0.
        -12    1    1    2    0    0 -0.12301673924E+02  0.19239043177E+02  0.36907333960E+02  0.43400728839E+02  0.00000000000E+00 0.  1.
         11    1    3    3    0    0  0.84536164592E+01 -0.34883265158E+01 -0.53471514954E+01  0.10593586857E+02  0.51100000000E-03 0.  1.
        -11    1    3    3    0    0  0.46301168886E+01 -0.34263777741E+01 -0.17780198104E+02  0.18689930228E+02  0.51100000000E-03 0. -1.
        -12    1    3    3    0    0 -0.78205942352E+00 -0.12324338887E+02 -0.13779984361E+02  0.18503754077E+02  0.00000000000E+00 0.  1.
</event>
<event>
 7    1  0.2294216E-010  0.4778727E+02  0.7816164E-02  0.1312668E+00
        -11   -1    0    0    0    0  0.00000000000E+00  0.00000000000E+00  0.45593999997E+02  0.45594000000E+02  0.51100000000E-03 0.  1.
         11   -1    0    0    0    0 -0.00000000000E+00 -0.00000000000E+00 -0.45593999997E+02  0.45594000000E+02  0.51100000000E-03 0. -1.
    9900012    2    1    2    0    0 -0.86532085448E+01 -0.82884127367E+01 -0.41713877815E+02  0.47787269521E+02  0.19999993052E+02 0.  0.
        -12    1    1    2    0    0  0.86532085448E+01  0.82884127367E+01  0.41713877815E+02  0.43400730479E+02  0.00000000000E+00 0.  1.
         11    1    3    3    0    0 -0.38541470745E+01  0.29914942116E+00 -0.21843158894E+02  0.22182595222E+02  0.51100000000E-03 0. -1.
        -11    1    3    3    0    0  0.43728138138E+01 -0.32442395731E+01 -0.55059762663E+01  0.77435370448E+01  0.51100000000E-03 0.  1.
        -12    1    3    3    0    0 -0.91718752841E+01 -0.53433225848E+01 -0.14364742654E+02  0.17861137253E+02  0.00000000000E+00 0.  1.
</event>
<event>
 7    1  0.2294216E-010  0.4778727E+02  0.7816164E-02  0.1312668E+00
        -11   -1    0    0    0    0  0.00000000000E+00  0.00000000000E+00  0.45593999997E+02  0.45594000000E+02  0.51100000000E-03 0.  1.
         11   -1    0    0    0    0 -0.00000000000E+00 -0.00000000000E+00 -0.45593999997E+02  0.45594000000E+02  0.51100000000E-03 0. -1.
    9900012    2    1    2    0    0 -0.24564575309E+02  0.33892461312E+02 -0.11467602321E+02  0.47787271931E+02  0.20000004043E+02 0.  0.
        -12    1    1    2    0    0  0.24564575309E+02 -0.33892461312E+02  0.11467602321E+02  0.43400728069E+02  0.00000000000E+00 0.  1.
         11    1    3    3    0    0 -0.58226399371E+01  0.67596604906E+01  0.22118870909E+01  0.91917675421E+01  0.51100000000E-03 0. -1.
        -11    1    3    3    0    0 -0.13794628973E+02  0.73800575996E+01 -0.72394185651E+01  0.17238509799E+02  0.51100000000E-03 0.  1.
         12    1    3    3    0    0 -0.49473063990E+01  0.19752743222E+02 -0.64400708467E+01  0.21356994590E+02  0.00000000000E+00 0. -1.
</event>
<event>
 7    1  0.2294216E-010  0.4778727E+02  0.7816164E-02  0.1312668E+00
        -11   -1    0    0    0    0  0.00000000000E+00  0.00000000000E+00  0.45593999997E+02  0.45594000000E+02  0.51100000000E-03 0.  1.
         11   -1    0    0    0    0 -0.00000000000E+00 -0.00000000000E+00 -0.45593999997E+02  0.45594000000E+02  0.51100000000E-03 0. -1.
    9900012    2    1    2    0    0  0.15052596419E+02 -0.16068737663E+02 -0.37401050836E+02  0.47787267372E+02  0.19999983255E+02 0.  0.
        -12    1    1    2    0    0 -0.15052596419E+02  0.16068737663E+02  0.37401050836E+02  0.43400732628E+02  0.00000000000E+00 0.  1.
         11    1    3    3    0    0 -0.16072875288E+01  0.17358138716E+01 -0.12707647000E+01  0.26853800813E+01  0.51100000000E-03 0.  1.
        -11    1    3    3    0    0  0.54242552465E+01  0.19736080987E+00 -0.47073391806E+01  0.71847434673E+01  0.51100000000E-03 0. -1.
         12    1    3    3    0    0  0.11235628701E+02 -0.18001912344E+02 -0.31422946955E+02  0.37917143823E+02  0.00000000000E+00 0. -1.
</event>
<event>
 7    1  0.2294216E-010  0.4778727E+02  0.7816164E-02  0.1312668E+00
        -11   -1    0    0    0    0  0.00000000000E+00  0.00000000000E+00  0.45593999997E+02  0.45594000000E+02  0.51100000000E-03 0. -1.
         11   -1    0    0    0    0 -0.00000000000E+00 -0.00000000000E+00 -0.45593999997E+02  0.45594000000E+02  0.51100000000E-03 0.  1.
    9900012    2    1    2    0    0  0.16747669252E+01 -0.39264391540E+02  0.18415377634E+02  0.47787269354E+02  0.19999992291E+02 0.  0.
        -12    1    1    2    0    0 -0.16747669252E+01  0.39264391540E+02 -0.18415377634E+02  0.43400730646E+02  0.00000000000E+00 0.  1.
         11    1    3    3    0    0 -0.43733891820E+01 -0.92498417276E+01  0.32993399997E+01  0.10750430206E+02  0.51100000000E-03 0. -1.
        -11    1    3    3    0    0 -0.30398382537E+01 -0.34518063162E+01 -0.94119126334E+00  0.46948295718E+01  0.51100000000E-03 0.  1.
        -12    1    3    3    0    0  0.90879943608E+01 -0.26562743496E+02  0.16057228897E+02  0.32342009576E+02  0.00000000000E+00 0.  1.
</event>
<event>
 7    1  0.2294216E-010  0.4778727E+02  0.7816164E-02  0.1312668E+00
        -11   -1    0    0    0    0  0.00000000000E+00  0.00000000000E+00  0.45593999997E+02  0.45594000000E+02  0.51100000000E-03 0.  1.
         11   -1    0    0    0    0 -0.00000000000E+00 -0.00000000000E+00 -0.45593999997E+02  0.45594000000E+02  0.51100000000E-03 0. -1.
    9900012    2    1    2    0    0  0.26740401268E+02 -0.20626542836E+02 -0.27260234983E+02  0.47787265667E+02  0.19999975483E+02 0.  0.
        -12    1    1    2    0    0 -0.26740401268E+02  0.20626542836E+02  0.27260234983E+02  0.43400734333E+02  0.00000000000E+00 0.  1.
         11    1    3    3    0    0  0.12259504257E+02 -0.14788630135E+02 -0.20458473110E+02  0.28063288263E+02  0.51100000000E-03 0. -1.
        -11    1    3    3    0    0 -0.93404624353E+00  0.11170666478E+01 -0.12664837914E+01  0.19298346394E+01  0.51100000000E-03 0.  1.
        -12    1    3    3    0    0  0.15414943255E+02 -0.69549793482E+01 -0.55352780813E+01  0.17794142764E+02  0.00000000000E+00 0.  1.
</event>
<event>
 7    1  0.2294216E-010  0.4778731E+02  0.7816164E-02  0.1312668E+00
        -11   -1    0    0    0    0  0.00000000000E+00  0.00000000000E+00  0.45593999997E+02  0.45594000000E+02  0.51100000000E-03 0.  1.
         11   -1    0    0    0    0 -0.00000000000E+00 -0.00000000000E+00 -0.45593999997E+02  0.45594000000E+02  0.51100000000E-03 0. -1.
    9900012    2    1    2    0    0 -0.15292290281E+02  0.29477525964E+02 -0.27943531224E+02  0.47787313181E+02  0.20000192119E+02 0.  0.
        -12    1    1    2    0    0  0.15292290281E+02 -0.29477525964E+02  0.27943531224E+02  0.43400686819E+02  0.00000000000E+00 0.  1.
         11    1    3    3    0    0 -0.36053783927E+01  0.64294714690E+00  0.64906539431E+00  0.37193306569E+01  0.51100000000E-03 0.  1.
        -11    1    3    3    0    0 -0.13896874237E+02  0.25981798749E+02 -0.27483050131E+02  0.40292617495E+02  0.51100000000E-03 0. -1.
         12    1    3    3    0    0  0.22099623484E+01  0.28527800685E+01 -0.11095464874E+01  0.37753650298E+01  0.00000000000E+00 0. -1.
</event>
<event>
 7    1  0.2294216E-010  0.4778726E+02  0.7816164E-02  0.1312668E+00
        -11   -1    0    0    0    0  0.00000000000E+00  0.00000000000E+00  0.45593999997E+02  0.45594000000E+02  0.51100000000E-03 0.  1.
         11   -1    0    0    0    0 -0.00000000000E+00 -0.00000000000E+00 -0.45593999997E+02  0.45594000000E+02  0.51100000000E-03 0. -1.
    9900012    2    1    2    0    0  0.16561360306E+02 -0.27593203107E+02 -0.29119762757E+02  0.47787261574E+02  0.19999956822E+02 0.  0.
        -12    1    1    2    0    0 -0.16561360306E+02  0.27593203107E+02  0.29119762757E+02  0.43400738426E+02  0.00000000000E+00 0.  1.
         11    1    3    3    0    0  0.18689763148E+02 -0.26851627266E+02 -0.27271037829E+02  0.42591391594E+02  0.51100000000E-03 0. -1.
        -11    1    3    3    0    0 -0.12957647193E+01 -0.19401930000E+01 -0.26501886560E+01  0.35308434202E+01  0.51100000000E-03 0.  1.
         12    1    3    3    0    0 -0.83263812282E+00  0.11986171591E+01  0.80146372859E+00  0.16650265601E+01  0.00000000000E+00 0. -1.
</event>
<event>
 7    1  0.2322189E-010  0.4778727E+02  0.7816164E-02  0.1312668E+00
        -11   -1    0    0    0    0  0.00000000000E+00  0.00000000000E+00  0.45593999997E+02  0.45594000000E+02  0.51100000000E-03 0. -1.
         11   -1    0    0    0    0 -0.00000000000E+00 -0.00000000000E+00 -0.45593999997E+02  0.45594000000E+02  0.51100000000E-03 0.  1.
    9900012    2    1    2    0    0 -0.75895830483E+01 -0.19819451110E+02  0.37857771154E+02  0.47787271321E+02  0.20000001261E+02 0.  0.
        -12    1    1    2    0    0  0.75895830483E+01  0.19819451110E+02 -0.37857771154E+02  0.43400728679E+02  0.00000000000E+00 0.  1.
         11    1    3    3    0    0 -0.51283585152E+01 -0.75132775433E+01  0.15400397469E+02  0.17886353540E+02  0.51100000000E-03 0. -1.
        -11    1    3    3    0    0  0.97619850343E+00  0.63716390759E+00  0.14029133001E+02  0.14077482530E+02  0.51100000000E-03 0.  1.
        -12    1    3    3    0    0 -0.34374230365E+01 -0.12943337474E+02  0.84282406834E+01  0.15823435250E+02  0.00000000000E+00 0.  1.
</event>
<event>
 7    1  0.2294216E-010  0.4778727E+02  0.7816164E-02  0.1312668E+00
        -11   -1    0    0    0    0  0.00000000000E+00  0.00000000000E+00  0.45593999997E+02  0.45594000000E+02  0.51100000000E-03 0.  1.
         11   -1    0    0    0    0 -0.00000000000E+00 -0.00000000000E+00 -0.45593999997E+02  0.45594000000E+02  0.51100000000E-03 0. -1.
    9900012    2    1    2    0    0 -0.57400790980E+01  0.70107492403E+01 -0.42444366060E+02  0.47787270476E+02  0.19999997410E+02 0.  0.
        -12    1    1    2    0    0  0.57400790980E+01 -0.70107492403E+01  0.42444366060E+02  0.43400729524E+02  0.00000000000E+00 0.  1.
         11    1    3    3    0    0 -0.17111042740E+01  0.10021342634E+02 -0.14557650651E+02  0.17756136369E+02  0.51100000000E-03 0. -1.
        -11    1    3    3    0    0  0.29123091038E+01  0.19769188833E+00 -0.40108146787E+01  0.49605706372E+01  0.51100000000E-03 0.  1.
        -12    1    3    3    0    0 -0.69412839279E+01 -0.32082852819E+01 -0.23875900731E+02  0.25070563470E+02  0.00000000000E+00 0.  1.
</event>
<event>
 7    1  0.2294216E-010  0.4778727E+02  0.7816164E-02  0.1312668E+00
        -11   -1    0    0    0    0  0.00000000000E+00  0.00000000000E+00  0.45593999997E+02  0.45594000000E+02  0.51100000000E-03 0. -1.
         11   -1    0    0    0    0 -0.00000000000E+00 -0.00000000000E+00 -0.45593999997E+02  0.45594000000E+02  0.51100000000E-03 0.  1.
    9900012    2    1    2    0    0 -0.29143003414E+02  0.31842804394E+02 -0.45104593830E+01  0.47787273238E+02  0.20000009999E+02 0.  0.
        -12    1    1    2    0    0  0.29143003414E+02 -0.31842804394E+02  0.45104593830E+01  0.43400726762E+02  0.00000000000E+00 0.  1.
         11    1    3    3    0    0 -0.19990280671E+02  0.12068899964E+02 -0.59658738274E+01  0.24101064675E+02  0.51100000000E-03 0. -1.
        -11    1    3    3    0    0 -0.75630253686E+01  0.11852432761E+02 -0.31190615035E+01  0.14401668653E+02  0.51100000000E-03 0.  1.
        -12    1    3    3    0    0 -0.15896973746E+01  0.79214716684E+01  0.45744759479E+01  0.92845399096E+01  0.00000000000E+00 0.  1.
</event>
<event>
 7    1  0.2294216E-010  0.4778727E+02  0.7816164E-02  0.1312668E+00
        -11   -1    0    0    0    0  0.00000000000E+00  0.00000000000E+00  0.45593999997E+02  0.45594000000E+02  0.51100000000E-03 0.  1.
         11   -1    0    0    0    0 -0.00000000000E+00 -0.00000000000E+00 -0.45593999997E+02  0.45594000000E+02  0.51100000000E-03 0. -1.
    9900012    2    1    2    0    0  0.27862792980E+01 -0.41717867959E+02  0.11639566894E+02  0.47787269858E+02  0.19999994592E+02 0.  0.
        -12    1    1    2    0    0 -0.27862792980E+01  0.41717867959E+02 -0.11639566894E+02  0.43400730142E+02  0.00000000000E+00 0.  1.
         11    1    3    3    0    0 -0.16566632885E+01 -0.24918150810E+02  0.64629103521E+00  0.24981522480E+02  0.51100000000E-03 0. -1.
        -11    1    3    3    0    0 -0.70186466589E+00 -0.82334665841E+01  0.44407608886E+00  0.82752516478E+01  0.51100000000E-03 0.  1.
        -12    1    3    3    0    0  0.51448072524E+01 -0.85662505645E+01  0.10549199770E+02  0.14530495731E+02  0.00000000000E+00 0.  1.
</event>
<event>
 7    1  0.2294216E-010  0.4778727E+02  0.7816164E-02  0.1312668E+00
        -11   -1    0    0    0    0  0.00000000000E+00  0.00000000000E+00  0.45593999997E+02  0.45594000000E+02  0.51100000000E-03 0. -1.
         11   -1    0    0    0    0 -0.00000000000E+00 -0.00000000000E+00 -0.45593999997E+02  0.45594000000E+02  0.51100000000E-03 0.  1.
    9900012    2    1    2    0    0  0.31265338453E+01 -0.38349899730E+02  0.20078183926E+02  0.47787268520E+02  0.19999988492E+02 0.  0.
        -12    1    1    2    0    0 -0.31265338453E+01  0.38349899730E+02 -0.20078183926E+02  0.43400731480E+02  0.00000000000E+00 0.  1.
         11    1    3    3    0    0  0.39659520927E+01 -0.11201242003E+02  0.44138272991E+01  0.12675901156E+02  0.51100000000E-03 0. -1.
        -11    1    3    3    0    0  0.21947167148E+01  0.11288889007E+01  0.32479093218E+01  0.40792262541E+01  0.51100000000E-03 0.  1.
         12    1    3    3    0    0 -0.30341349622E+01 -0.28277546628E+02  0.12416447305E+02  0.31032141111E+02  0.00000000000E+00 0. -1.
</event>
<event>
 7    1  0.2294216E-010  0.4778727E+02  0.7816164E-02  0.1312668E+00
        -11   -1    0    0    0    0  0.00000000000E+00  0.00000000000E+00  0.45593999997E+02  0.45594000000E+02  0.51100000000E-03 0.  1.
         11   -1    0    0    0    0 -0.00000000000E+00 -0.00000000000E+00 -0.45593999997E+02  0.45594000000E+02  0.51100000000E-03 0. -1.
    9900012    2    1    2    0    0  0.58114352187E+01 -0.31467261672E+02 -0.29319991880E+02  0.47787271201E+02  0.20000000716E+02 0.  0.
        -12    1    1    2    0    0 -0.58114352187E+01  0.31467261672E+02  0.29319991880E+02  0.43400728799E+02  0.00000000000E+00 0.  1.
         11    1    3    3    0    0 -0.20159679576E+01 -0.13931499931E+01 -0.62594513146E+01  0.67220327826E+01  0.51100000000E-03 0.  1.
        -11    1    3    3    0    0  0.37599725536E+01 -0.29505970401E+02 -0.19031632478E+02  0.35312076092E+02  0.51100000000E-03 0. -1.
         12    1    3    3    0    0  0.40674306227E+01 -0.56814127784E+00 -0.40289080870E+01  0.57531623266E+01  0.00000000000E+00 0. -1.
</event>
<event>
 7    1  0.2294216E-010  0.4778727E+02  0.7816164E-02  0.1312668E+00
        -11   -1    0    0    0    0  0.00000000000E+00  0.00000000000E+00  0.45593999997E+02  0.45594000000E+02  0.51100000000E-03 0.  1.
         11   -1    0    0    0    0 -0.00000000000E+00 -0.00000000000E+00 -0.45593999997E+02  0.45594000000E+02  0.51100000000E-03 0. -1.
    9900012    2    1    2    0    0 -0.15317011323E+02  0.15234886343E+02 -0.37641874315E+02  0.47787270747E+02  0.19999998642E+02 0.  0.
        -12    1    1    2    0    0  0.15317011323E+02 -0.15234886343E+02  0.37641874315E+02  0.43400729253E+02  0.00000000000E+00 0.  1.
         11    1    3    3    0    0 -0.50266558752E+01 -0.14370511154E+01 -0.76442018903E+01  0.92610046969E+01  0.51100000000E-03 0. -1.
        -11    1    3    3    0    0  0.26293272610E+01 -0.49856245479E+00 -0.36838005600E+01  0.45532749965E+01  0.51100000000E-03 0.  1.
         12    1    3    3    0    0 -0.12919682709E+02  0.17170499913E+02 -0.26313871865E+02  0.33972991053E+02  0.00000000000E+00 0. -1.
</event>
<event>
 7    1  0.2294216E-010  0.4778724E+02  0.7816164E-02  0.1312668E+00
        -11   -1    0    0    0    0  0.00000000000E+00  0.00000000000E+00  0.45593999997E+02  0.45594000000E+02  0.51100000000E-03 0.  1.
         11   -1    0    0    0    0 -0.00000000000E+00 -0.00000000000E+00 -0.45593999997E+02  0.45594000000E+02  0.51100000000E-03 0. -1.
    9900012    2    1    2    0    0 -0.13906813864E+02 -0.16161572629E+02 -0.37802514710E+02  0.47787239406E+02  0.19999855749E+02 0.  0.
        -12    1    1    2    0    0  0.13906813864E+02  0.16161572629E+02  0.37802514710E+02  0.43400760594E+02  0.00000000000E+00 0.  1.
         11    1    3    3    0    0  0.14427222571E+01 -0.34479082382E+01 -0.95972944966E+01  0.10299397101E+02  0.51100000000E-03 0. -1.
        -11    1    3    3    0    0  0.10325395497E+01 -0.13833665625E+01  0.11053289223E+01  0.20497788309E+01  0.51100000000E-03 0.  1.
         12    1    3    3    0    0 -0.16382075671E+02 -0.11330297829E+02 -0.29310549136E+02  0.35438063474E+02  0.00000000000E+00 0. -1.
</event>
<event>
 7    1  0.2294216E-010  0.4778728E+02  0.7816164E-02  0.1312668E+00
        -11   -1    0    0    0    0  0.00000000000E+00  0.00000000000E+00  0.45593999997E+02  0.45594000000E+02  0.51100000000E-03 0. -1.
         11   -1    0    0    0    0 -0.00000000000E+00 -0.00000000000E+00 -0.45593999997E+02  0.45594000000E+02  0.51100000000E-03 0.  1.
    9900012    2    1    2    0    0 -0.11309369467E+01 -0.24808277903E+02  0.35593431940E+02  0.47787284935E+02  0.20000063333E+02 0.  0.
        -12    1    1    2    0    0  0.11309369467E+01  0.24808277903E+02 -0.35593431940E+02  0.43400715065E+02  0.00000000000E+00 0.  1.
         11    1    3    3    0    0 -0.28159779484E+01 -0.19998493310E+02  0.19607347796E+02  0.28148135894E+02  0.51100000000E-03 0. -1.
        -11    1    3    3    0    0  0.27451662916E+01 -0.32248394740E+01  0.77050636075E+00  0.43045566455E+01  0.51100000000E-03 0.  1.
        -12    1    3    3    0    0 -0.10601252899E+01 -0.15849451194E+01  0.15215577783E+02  0.15334592395E+02  0.00000000000E+00 0.  1.
</event>
<event>
 7    1  0.2294216E-010  0.4778727E+02  0.7816164E-02  0.1312668E+00
        -11   -1    0    0    0    0  0.00000000000E+00  0.00000000000E+00  0.45593999997E+02  0.45594000000E+02  0.51100000000E-03 0.  1.
         11   -1    0    0    0    0 -0.00000000000E+00 -0.00000000000E+00 -0.45593999997E+02  0.45594000000E+02  0.51100000000E-03 0. -1.
    9900012    2    1    2    0    0 -0.39619904861E+02 -0.45700134264E+01 -0.17117286474E+02  0.47787269820E+02  0.19999994416E+02 0.  0.
        -12    1    1    2    0    0  0.39619904861E+02  0.45700134264E+01  0.17117286474E+02  0.43400730180E+02  0.00000000000E+00 0.  1.
         11    1    3    3    0    0 -0.21152057945E+02  0.10255950813E+01 -0.13890820889E+02  0.25326198013E+02  0.51100000000E-03 0.  1.
        -11    1    3    3    0    0 -0.13814362850E+02  0.10146217116E+01 -0.27225681045E+00  0.13854248525E+02  0.51100000000E-03 0. -1.
        -12    1    3    3    0    0 -0.46534840661E+01 -0.66102302193E+01 -0.29542087753E+01  0.86068232812E+01  0.00000000000E+00 0.  1.
</event>
<event>
 7    1  0.2294216E-010  0.4778727E+02  0.7816164E-02  0.1312668E+00
        -11   -1    0    0    0    0  0.00000000000E+00  0.00000000000E+00  0.45593999997E+02  0.45594000000E+02  0.51100000000E-03 0.  1.
         11   -1    0    0    0    0 -0.00000000000E+00 -0.00000000000E+00 -0.45593999997E+02  0.45594000000E+02  0.51100000000E-03 0. -1.
    9900012    2    1    2    0    0  0.18671352272E+02 -0.34923768517E+02 -0.17757658066E+02  0.47787269325E+02  0.19999992163E+02 0.  0.
        -12    1    1    2    0    0 -0.18671352272E+02  0.34923768517E+02  0.17757658066E+02  0.43400730675E+02  0.00000000000E+00 0.  1.
         11    1    3    3    0    0  0.47962515429E+00 -0.11215727432E+02 -0.23378723714E+01  0.11466831716E+02  0.51100000000E-03 0. -1.
        -11    1    3    3    0    0 -0.59175538559E+00  0.33040917598E+00  0.13482697714E+01  0.15090315761E+01  0.51100000000E-03 0.  1.
         12    1    3    3    0    0  0.18783482503E+02 -0.24038450261E+02 -0.16768055466E+02  0.34811406033E+02  0.00000000000E+00 0. -1.
</event>
<event>
 7    1  0.2294216E-010  0.4778727E+02  0.7816164E-02  0.1312668E+00
        -11   -1    0    0    0    0  0.00000000000E+00  0.00000000000E+00  0.45593999997E+02  0.45594000000E+02  0.51100000000E-03 0.  1.
         11   -1    0    0    0    0 -0.00000000000E+00 -0.00000000000E+00 -0.45593999997E+02  0.45594000000E+02  0.51100000000E-03 0. -1.
    9900012    2    1    2    0    0  0.24138517943E+02 -0.24469601777E+02 -0.26498939306E+02  0.47787271389E+02  0.20000001571E+02 0.  0.
        -12    1    1    2    0    0 -0.24138517943E+02  0.24469601777E+02  0.26498939306E+02  0.43400728611E+02  0.00000000000E+00 0.  1.
         11    1    3    3    0    0  0.12138801740E+02 -0.11752480672E+02 -0.13435300966E+02  0.21586537979E+02  0.51100000000E-03 0. -1.
        -11    1    3    3    0    0  0.29623481538E+01  0.24675642815E+01  0.54969098302E+00  0.38944242842E+01  0.51100000000E-03 0.  1.
        -12    1    3    3    0    0  0.90373680500E+01 -0.15184685387E+02 -0.13613329323E+02  0.22306309126E+02  0.00000000000E+00 0.  1.
</event>
<event>
 7    1  0.2294216E-010  0.4778729E+02  0.7816164E-02  0.1312668E+00
        -11   -1    0    0    0    0  0.00000000000E+00  0.00000000000E+00  0.45593999997E+02  0.45594000000E+02  0.51100000000E-03 0.  1.
         11   -1    0    0    0    0 -0.00000000000E+00 -0.00000000000E+00 -0.45593999997E+02  0.45594000000E+02  0.51100000000E-03 0. -1.
    9900012    2    1    2    0    0 -0.37662107439E+02  0.18059146129E+02 -0.11792153114E+02  0.47787286057E+02  0.20000068449E+02 0.  0.
        -12    1    1    2    0    0  0.37662107439E+02 -0.18059146129E+02  0.11792153114E+02  0.43400713943E+02  0.00000000000E+00 0.  1.
         11    1    3    3    0    0 -0.29870958923E+02  0.15232534233E+02 -0.93254188806E+01  0.34803271739E+02  0.51100000000E-03 0. -1.
        -11    1    3    3    0    0 -0.50344294987E+01  0.59034283753E+01 -0.38051468832E+01  0.86414749912E+01  0.51100000000E-03 0.  1.
        -12    1    3    3    0    0 -0.27567190172E+01 -0.30768164796E+01  0.13384126494E+01  0.43425393272E+01  0.00000000000E+00 0.  1.
</event>
<event>
 7    1  0.2294216E-010  0.4778726E+02  0.7816164E-02  0.1312668E+00
        -11   -1    0    0    0    0  0.00000000000E+00  0.00000000000E+00  0.45593999997E+02  0.45594000000E+02  0.51100000000E-03 0. -1.
         11   -1    0    0    0    0 -0.00000000000E+00 -0.00000000000E+00 -0.45593999997E+02  0.45594000000E+02  0.51100000000E-03 0.  1.
    9900012    2    1    2    0    0  0.15067934105E+02  0.35113726046E+02  0.20581730525E+02  0.47787262375E+02  0.19999960471E+02 0.  0.
        -12    1    1    2    0    0 -0.15067934105E+02 -0.35113726046E+02 -0.20581730525E+02  0.43400737625E+02  0.00000000000E+00 0.  1.
         11    1    3    3    0    0  0.59369619449E+01  0.23523135448E+01 -0.80095925658E+00  0.64360261140E+01  0.51100000000E-03 0. -1.
        -11    1    3    3    0    0 -0.22988559292E+00 -0.59840596221E+00  0.88850737905E+00  0.10956197813E+01  0.51100000000E-03 0.  1.
         12    1    3    3    0    0  0.93608577525E+01  0.33359818463E+02  0.20494182403E+02  0.40255616479E+02  0.00000000000E+00 0. -1.
</event>
<event>
 7    1  0.2294216E-010  0.4778727E+02  0.7816164E-02  0.1312668E+00
        -11   -1    0    0    0    0  0.00000000000E+00  0.00000000000E+00  0.45593999997E+02  0.45594000000E+02  0.51100000000E-03 0.  1.
         11   -1    0    0    0    0 -0.00000000000E+00 -0.00000000000E+00 -0.45593999997E+02  0.45594000000E+02  0.51100000000E-03 0. -1.
    9900012    2    1    2    0    0 -0.32606547929E+02 -0.25305559941E+02 -0.13418832577E+02  0.47787269597E+02  0.19999993400E+02 0.  0.
        -12    1    1    2    0    0  0.32606547929E+02  0.25305559941E+02  0.13418832577E+02  0.43400730403E+02  0.00000000000E+00 0.  1.
         11    1    3    3    0    0 -0.12778523656E+02 -0.43717693133E+01 -0.34125117294E+01  0.13930120973E+02  0.51100000000E-03 0. -1.
        -11    1    3    3    0    0 -0.18064608742E+02 -0.17192693257E+02 -0.22154149701E+01  0.25036510423E+02  0.51100000000E-03 0.  1.
        -12    1    3    3    0    0 -0.17634155315E+01 -0.37410973707E+01 -0.77909058772E+01  0.88206382003E+01  0.00000000000E+00 0.  1.
</event>
<event>
 7    1  0.2294216E-010  0.4778727E+02  0.7816164E-02  0.1312668E+00
        -11   -1    0    0    0    0  0.00000000000E+00  0.00000000000E+00  0.45593999997E+02  0.45594000000E+02  0.51100000000E-03 0. -1.
         11   -1    0    0    0    0 -0.00000000000E+00 -0.00000000000E+00 -0.45593999997E+02  0.45594000000E+02  0.51100000000E-03 0.  1.
    9900012    2    1    2    0    0 -0.16925343059E+02  0.54549021605E+00  0.39960714221E+02  0.47787268690E+02  0.19999989264E+02 0.  0.
        -12    1    1    2    0    0  0.16925343059E+02 -0.54549021605E+00 -0.39960714221E+02  0.43400731310E+02  0.00000000000E+00 0.  1.
         11    1    3    3    0    0 -0.70740953104E+01 -0.44970216425E+01  0.18167647251E+02  0.20008234180E+02  0.51100000000E-03 0. -1.
        -11    1    3    3    0    0 -0.68648095221E+01 -0.32818836595E+01  0.60464319839E+01  0.97188327554E+01  0.51100000000E-03 0.  1.
         12    1    3    3    0    0 -0.29864382267E+01  0.83243955180E+01  0.15746634985E+02  0.18060201754E+02  0.00000000000E+00 0. -1.
</event>
<event>
 7    1  0.2294216E-010  0.4778727E+02  0.7816164E-02  0.1312668E+00
        -11   -1    0    0    0    0  0.00000000000E+00  0.00000000000E+00  0.45593999997E+02  0.45594000000E+02  0.51100000000E-03 0. -1.
         11   -1    0    0    0    0 -0.00000000000E+00 -0.00000000000E+00 -0.45593999997E+02  0.45594000000E+02  0.51100000000E-03 0.  1.
    9900012    2    1    2    0    0  0.35792833706E+02  0.24538607547E+02 -0.59444007928E+00  0.47787267701E+02  0.19999984757E+02 0.  0.
        -12    1    1    2    0    0 -0.35792833706E+02 -0.24538607547E+02  0.59444007928E+00  0.43400732299E+02  0.00000000000E+00 0.  1.
         11    1    3    3    0    0  0.22396198858E+02  0.11123722456E+02 -0.22109450676E+00  0.25007515023E+02  0.51100000000E-03 0. -1.
        -11    1    3    3    0    0  0.10287390504E+02  0.84311900943E+01 -0.60488444517E+01  0.14611772283E+02  0.51100000000E-03 0.  1.
        -12    1    3    3    0    0  0.31092443438E+01  0.49836949962E+01  0.56754988792E+01  0.81679803949E+01  0.00000000000E+00 0.  1.
</event>
<event>
 7    1  0.2294216E-010  0.4778728E+02  0.7816164E-02  0.1312668E+00
        -11   -1    0    0    0    0  0.00000000000E+00  0.00000000000E+00  0.45593999997E+02  0.45594000000E+02  0.51100000000E-03 0.  1.
         11   -1    0    0    0    0 -0.00000000000E+00 -0.00000000000E+00 -0.45593999997E+02  0.45594000000E+02  0.51100000000E-03 0. -1.
    9900012    2    1    2    0    0 -0.21620306903E+02 -0.20853014691E+02 -0.31326298056E+02  0.47787276017E+02  0.20000022673E+02 0.  0.
        -12    1    1    2    0    0  0.21620306903E+02  0.20853014691E+02  0.31326298056E+02  0.43400723983E+02  0.00000000000E+00 0.  1.
         11    1    3    3    0    0 -0.23515383777E+00 -0.27495439113E+01 -0.10992099898E+01  0.29704464160E+01  0.51100000000E-03 0. -1.
        -11    1    3    3    0    0 -0.17357157528E+02 -0.10611042545E+02 -0.95808408262E+01  0.22486832870E+02  0.51100000000E-03 0.  1.
         12    1    3    3    0    0 -0.40279955378E+01 -0.74924282356E+01 -0.20646247240E+02  0.22329996731E+02  0.00000000000E+00 0. -1.
</event>
<event>
 7    1  0.2294216E-010  0.4778727E+02  0.7816164E-02  0.1312668E+00
        -11   -1    0    0    0    0  0.00000000000E+00  0.00000000000E+00  0.45593999997E+02  0.45594000000E+02  0.51100000000E-03 0. -1.
         11   -1    0    0    0    0 -0.00000000000E+00 -0.00000000000E+00 -0.45593999997E+02  0.45594000000E+02  0.51100000000E-03 0.  1.
    9900012    2    1    2    0    0 -0.16063663406E+02 -0.13976157575E+02  0.37818628825E+02  0.47787274789E+02  0.20000017074E+02 0.  0.
        -12    1    1    2    0    0  0.16063663406E+02  0.13976157575E+02 -0.37818628825E+02  0.43400725211E+02  0.00000000000E+00 0.  1.
         11    1    3    3    0    0 -0.82223062400E+01 -0.11612134353E+02  0.15844973990E+02  0.21295802054E+02  0.51100000000E-03 0. -1.
        -11    1    3    3    0    0 -0.96887973126E+01 -0.50115223281E+01  0.19779771917E+02  0.22588216547E+02  0.51100000000E-03 0.  1.
        -12    1    3    3    0    0  0.18474401466E+01  0.26474991056E+01  0.21938829178E+01  0.39032561877E+01  0.00000000000E+00 0.  1.
</event>
<event>
 7    1  0.2294216E-010  0.4778727E+02  0.7816164E-02  0.1312668E+00
        -11   -1    0    0    0    0  0.00000000000E+00  0.00000000000E+00  0.45593999997E+02  0.45594000000E+02  0.51100000000E-03 0.  1.
         11   -1    0    0    0    0 -0.00000000000E+00 -0.00000000000E+00 -0.45593999997E+02  0.45594000000E+02  0.51100000000E-03 0. -1.
    9900012    2    1    2    0    0 -0.30883256613E+02  0.11913399864E+02 -0.28069888443E+02  0.47787271060E+02  0.20000000072E+02 0.  0.
        -12    1    1    2    0    0  0.30883256613E+02 -0.11913399864E+02  0.28069888443E+02  0.43400728940E+02  0.00000000000E+00 0.  1.
         11    1    3    3    0    0 -0.93373260756E+00  0.41642713586E+01 -0.71748481093E+01  0.83481410016E+01  0.51100000000E-03 0.  1.
        -11    1    3    3    0    0 -0.15177212489E+02  0.20380380434E+01 -0.17476779276E+02  0.23236591664E+02  0.51100000000E-03 0. -1.
        -12    1    3    3    0    0 -0.14772311516E+02  0.57110904616E+01 -0.34182610574E+01  0.16202538395E+02  0.00000000000E+00 0.  1.
</event>
<event>
 7    1  0.2294216E-010  0.4778727E+02  0.7816164E-02  0.1312668E+00
        -11   -1    0    0    0    0  0.00000000000E+00  0.00000000000E+00  0.45593999997E+02  0.45594000000E+02  0.51100000000E-03 0. -1.
         11   -1    0    0    0    0 -0.00000000000E+00 -0.00000000000E+00 -0.45593999997E+02  0.45594000000E+02  0.51100000000E-03 0.  1.
    9900012    2    1    2    0    0  0.22662299003E+01 -0.14616195742E+02  0.40802628423E+02  0.47787268875E+02  0.19999990110E+02 0.  0.
        -12    1    1    2    0    0 -0.22662299003E+01  0.14616195742E+02 -0.40802628423E+02  0.43400731125E+02  0.00000000000E+00 0.  1.
         11    1    3    3    0    0  0.40398137690E+01 -0.94863799956E+00  0.29908535761E+01  0.51151944945E+01  0.51100000000E-03 0. -1.
        -11    1    3    3    0    0  0.30572964297E+01  0.16456128712E+01  0.96309043515E+01  0.10237647292E+02  0.51100000000E-03 0.  1.
        -12    1    3    3    0    0 -0.48308802983E+01 -0.15313170614E+02  0.28180870495E+02  0.32434427089E+02  0.00000000000E+00 0.  1.
</event>
<event>
 7    1  0.2294216E-010  0.4778727E+02  0.7816164E-02  0.1312668E+00
        -11   -1    0    0    0    0  0.00000000000E+00  0.00000000000E+00  0.45593999997E+02  0.45594000000E+02  0.51100000000E-03 0. -1.
         11   -1    0    0    0    0 -0.00000000000E+00 -0.00000000000E+00 -0.45593999997E+02  0.45594000000E+02  0.51100000000E-03 0.  1.
    9900012    2    1    2    0    0 -0.29558373990E+02  0.30811835310E+02 -0.77817989108E+01  0.47787273481E+02  0.20000011108E+02 0.  0.
        -12    1    1    2    0    0  0.29558373990E+02 -0.30811835310E+02  0.77817989108E+01  0.43400726519E+02  0.00000000000E+00 0.  1.
         11    1    3    3    0    0 -0.18297743899E+02  0.15612426336E+02  0.69375424798E+00  0.24063178990E+02  0.51100000000E-03 0. -1.
        -11    1    3    3    0    0 -0.13691746442E+02  0.12963906051E+02 -0.71644554372E+01  0.20170676803E+02  0.51100000000E-03 0.  1.
         12    1    3    3    0    0  0.24311163504E+01  0.22355029232E+01 -0.13110977216E+01  0.35534176879E+01  0.00000000000E+00 0. -1.
</event>
<event>
 7    1  0.2294216E-010  0.4778727E+02  0.7816164E-02  0.1312668E+00
        -11   -1    0    0    0    0  0.00000000000E+00  0.00000000000E+00  0.45593999997E+02  0.45594000000E+02  0.51100000000E-03 0.  1.
         11   -1    0    0    0    0 -0.00000000000E+00 -0.00000000000E+00 -0.45593999997E+02  0.45594000000E+02  0.51100000000E-03 0. -1.
    9900012    2    1    2    0    0 -0.45781835533E+01 -0.12961529358E+01 -0.43139122028E+02  0.47787266983E+02  0.19999981483E+02 0.  0.
        -12    1    1    2    0    0  0.45781835533E+01  0.12961529358E+01  0.43139122028E+02  0.43400733017E+02  0.00000000000E+00 0.  1.
         11    1    3    3    0    0  0.28680393764E+01  0.55752272093E+01 -0.98280737618E+01  0.11657608778E+02  0.51100000000E-03 0. -1.
        -11    1    3    3    0    0  0.17447673123E+01 -0.36361785638E+01 -0.12829678430E+02  0.13448667458E+02  0.51100000000E-03 0.  1.
         12    1    3    3    0    0 -0.91909902421E+01 -0.32352015814E+01 -0.20481369836E+02  0.22680990747E+02  0.00000000000E+00 0. -1.
</event>
<event>
 7    1  0.2294216E-010  0.4778727E+02  0.7816164E-02  0.1312668E+00
        -11   -1    0    0    0    0  0.00000000000E+00  0.00000000000E+00  0.45593999997E+02  0.45594000000E+02  0.51100000000E-03 0.  1.
         11   -1    0    0    0    0 -0.00000000000E+00 -0.00000000000E+00 -0.45593999997E+02  0.45594000000E+02  0.51100000000E-03 0. -1.
    9900012    2    1    2    0    0 -0.35522454881E+01  0.21130022500E+02 -0.37742909387E+02  0.47787268349E+02  0.19999987711E+02 0.  0.
        -12    1    1    2    0    0  0.35522454881E+01 -0.21130022500E+02  0.37742909387E+02  0.43400731651E+02  0.00000000000E+00 0.  1.
         11    1    3    3    0    0  0.50835761025E+01  0.27290513247E+01 -0.88163863201E+01  0.10536561827E+02  0.51100000000E-03 0. -1.
        -11    1    3    3    0    0 -0.12835350134E+01  0.14998661334E+02 -0.21598226627E+02  0.26326615765E+02  0.51100000000E-03 0.  1.
         12    1    3    3    0    0 -0.73522865772E+01  0.34023098410E+01 -0.73282964395E+01  0.10924090757E+02  0.00000000000E+00 0. -1.
</event>
<event>
 7    1  0.2294216E-010  0.4778727E+02  0.7816164E-02  0.1312668E+00
        -11   -1    0    0    0    0  0.00000000000E+00  0.00000000000E+00  0.45593999997E+02  0.45594000000E+02  0.51100000000E-03 0.  1.
         11   -1    0    0    0    0 -0.00000000000E+00 -0.00000000000E+00 -0.45593999997E+02  0.45594000000E+02  0.51100000000E-03 0. -1.
    9900012    2    1    2    0    0  0.18033425438E+01 -0.16500875736E+02 -0.40101024422E+02  0.47787273001E+02  0.20000008919E+02 0.  0.
        -12    1    1    2    0    0 -0.18033425438E+01  0.16500875736E+02  0.40101024422E+02  0.43400726999E+02  0.00000000000E+00 0.  1.
         11    1    3    3    0    0  0.23918981234E+01 -0.69848211491E+01 -0.23969236474E+02  0.25080534295E+02  0.51100000000E-03 0. -1.
        -11    1    3    3    0    0 -0.56121166971E+01 -0.85582256937E+00 -0.38409650076E+01  0.68542905208E+01  0.51100000000E-03 0.  1.
         12    1    3    3    0    0  0.50235611175E+01 -0.86602320175E+01 -0.12290822940E+02  0.15852448185E+02  0.00000000000E+00 0. -1.
</event>
<event>
 7    1  0.2294216E-010  0.4778728E+02  0.7816164E-02  0.1312668E+00
        -11   -1    0    0    0    0  0.00000000000E+00  0.00000000000E+00  0.45593999997E+02  0.45594000000E+02  0.51100000000E-03 0.  1.
         11   -1    0    0    0    0 -0.00000000000E+00 -0.00000000000E+00 -0.45593999997E+02  0.45594000000E+02  0.51100000000E-03 0. -1.
    9900012    2    1    2    0    0 -0.20436252627E+02 -0.32363171205E+02 -0.20459900451E+02  0.47787276523E+02  0.20000024977E+02 0.  0.
        -12    1    1    2    0    0  0.20436252627E+02  0.32363171205E+02  0.20459900451E+02  0.43400723477E+02  0.00000000000E+00 0.  1.
         11    1    3    3    0    0 -0.18876509570E+02 -0.28462387525E+02 -0.16987369721E+02  0.38144473354E+02  0.51100000000E-03 0. -1.
        -11    1    3    3    0    0 -0.11558329232E+01 -0.50528951039E+01  0.75899327668E+00  0.52386801518E+01  0.51100000000E-03 0.  1.
         12    1    3    3    0    0 -0.40391013425E+00  0.11521114236E+01 -0.42315240069E+01  0.44041230171E+01  0.00000000000E+00 0. -1.
</event>
<event>
 7    1  0.2294216E-010  0.4778727E+02  0.7816164E-02  0.1312668E+00
        -11   -1    0    0    0    0  0.00000000000E+00  0.00000000000E+00  0.45593999997E+02  0.45594000000E+02  0.51100000000E-03 0.  1.
         11   -1    0    0    0    0 -0.00000000000E+00 -0.00000000000E+00 -0.45593999997E+02  0.45594000000E+02  0.51100000000E-03 0. -1.
    9900012    2    1    2    0    0 -0.11718655236E+02  0.39194088856E+02 -0.14495503224E+02  0.47787273100E+02  0.20000009370E+02 0.  0.
        -12    1    1    2    0    0  0.11718655236E+02 -0.39194088856E+02  0.14495503224E+02  0.43400726900E+02  0.00000000000E+00 0.  1.
         11    1    3    3    0    0  0.47038037975E+00  0.10713440416E+01  0.99015065802E+00  0.15327864638E+01  0.51100000000E-03 0. -1.
        -11    1    3    3    0    0 -0.89456105608E+01  0.67809744431E+01 -0.82347618437E+01  0.13921812583E+02  0.51100000000E-03 0.  1.
         12    1    3    3    0    0 -0.32434250549E+01  0.31341770371E+02 -0.72508920384E+01  0.32332674053E+02  0.00000000000E+00 0. -1.
</event>
<event>
 7    1  0.2294216E-010  0.4778727E+02  0.7816164E-02  0.1312668E+00
        -11   -1    0    0    0    0  0.00000000000E+00  0.00000000000E+00  0.45593999997E+02  0.45594000000E+02  0.51100000000E-03 0. -1.
         11   -1    0    0    0    0 -0.00000000000E+00 -0.00000000000E+00 -0.45593999997E+02  0.45594000000E+02  0.51100000000E-03 0.  1.
    9900012    2    1    2    0    0 -0.35751605140E+02 -0.21169928222E+02  0.12541129794E+02  0.47787273422E+02  0.20000010840E+02 0.  0.
        -12    1    1    2    0    0  0.35751605140E+02  0.21169928222E+02 -0.12541129794E+02  0.43400726578E+02  0.00000000000E+00 0.  1.
         11    1    3    3    0    0 -0.13715703936E+02 -0.79956989249E+01 -0.16463727912E+01  0.15961274366E+02  0.51100000000E-03 0. -1.
        -11    1    3    3    0    0 -0.20323370503E+02 -0.14343856298E+02  0.15558190354E+02  0.29340124224E+02  0.51100000000E-03 0.  1.
        -12    1    3    3    0    0 -0.17125307003E+01  0.11696270010E+01 -0.13706877687E+01  0.24858748320E+01  0.00000000000E+00 0.  1.
</event>
<event>
 7    1  0.2294216E-010  0.4778727E+02  0.7816164E-02  0.1312668E+00
        -11   -1    0    0    0    0  0.00000000000E+00  0.00000000000E+00  0.45593999997E+02  0.45594000000E+02  0.51100000000E-03 0.  1.
         11   -1    0    0    0    0 -0.00000000000E+00 -0.00000000000E+00 -0.45593999997E+02  0.45594000000E+02  0.51100000000E-03 0. -1.
    9900012    2    1    2    0    0  0.42656572783E+02 -0.74825647572E+01 -0.28374427374E+01  0.47787273529E+02  0.20000011326E+02 0.  0.
        -12    1    1    2    0    0 -0.42656572783E+02  0.74825647572E+01  0.28374427374E+01  0.43400726471E+02  0.00000000000E+00 0.  1.
         11    1    3    3    0    0  0.21221749829E+02 -0.37008483431E+01 -0.49117523852E+01  0.22094892079E+02  0.51100000000E-03 0. -1.
        -11    1    3    3    0    0  0.77258390580E+01 -0.78715386270E+01 -0.94942151191E+00  0.11070280528E+02  0.51100000000E-03 0.  1.
        -12    1    3    3    0    0  0.13708983897E+02  0.40898222129E+01  0.30237311597E+01  0.14622100921E+02  0.00000000000E+00 0.  1.
</event>
<event>
 7    1  0.2294216E-010  0.4778727E+02  0.7816164E-02  0.1312668E+00
        -11   -1    0    0    0    0  0.00000000000E+00  0.00000000000E+00  0.45593999997E+02  0.45594000000E+02  0.51100000000E-03 0. -1.
         11   -1    0    0    0    0 -0.00000000000E+00 -0.00000000000E+00 -0.45593999997E+02  0.45594000000E+02  0.51100000000E-03 0.  1.
    9900012    2    1    2    0    0  0.43127161876E+02 -0.39672903622E+01  0.28163313641E+01  0.47787271819E+02  0.20000003530E+02 0.  0.
        -12    1    1    2    0    0 -0.43127161876E+02  0.39672903622E+01 -0.28163313641E+01  0.43400728181E+02  0.00000000000E+00 0.  1.
         11    1    3    3    0    0  0.14925657240E+02  0.36811987218E+01  0.78418866335E+01  0.17257510084E+02  0.51100000000E-03 0. -1.
        -11    1    3    3    0    0  0.17647647314E+02 -0.69923149233E+01 -0.39614884644E+00  0.18986544127E+02  0.51100000000E-03 0.  1.
         12    1    3    3    0    0  0.10553857322E+02 -0.65617416068E+00 -0.46294064229E+01  0.11543217607E+02  0.00000000000E+00 0. -1.
</event>
<event>
 7    1  0.2294216E-010  0.4778725E+02  0.7816164E-02  0.1312668E+00
        -11   -1    0    0    0    0  0.00000000000E+00  0.00000000000E+00  0.45593999997E+02  0.45594000000E+02  0.51100000000E-03 0.  1.
         11   -1    0    0    0    0 -0.00000000000E+00 -0.00000000000E+00 -0.45593999997E+02  0.45594000000E+02  0.51100000000E-03 0. -1.
    9900012    2    1    2    0    0 -0.15323252894E+02  0.19729343382E+01 -0.40557739970E+02  0.47787253225E+02  0.19999918753E+02 0.  0.
        -12    1    1    2    0    0  0.15323252894E+02 -0.19729343382E+01  0.40557739970E+02  0.43400746775E+02  0.00000000000E+00 0.  1.
         11    1    3    3    0    0 -0.54946650311E+01  0.42910602745E+01 -0.10992570469E+02  0.13016956167E+02  0.51100000000E-03 0. -1.
        -11    1    3    3    0    0 -0.10755694401E+02  0.17149477339E+01 -0.10045613272E+02  0.14816894211E+02  0.51100000000E-03 0.  1.
         12    1    3    3    0    0  0.92710653880E+00 -0.40330736701E+01 -0.19519556230E+02  0.19953402847E+02  0.00000000000E+00 0. -1.
</event>
<event>
 7    1  0.2294216E-010  0.4778727E+02  0.7816164E-02  0.1312668E+00
        -11   -1    0    0    0    0  0.00000000000E+00  0.00000000000E+00  0.45593999997E+02  0.45594000000E+02  0.51100000000E-03 0. -1.
         11   -1    0    0    0    0 -0.00000000000E+00 -0.00000000000E+00 -0.45593999997E+02  0.45594000000E+02  0.51100000000E-03 0.  1.
    9900012    2    1    2    0    0 -0.17575892360E+01  0.32989465206E+02  0.28146572236E+02  0.47787268864E+02  0.19999990060E+02 0.  0.
        -12    1    1    2    0    0  0.17575892360E+01 -0.32989465206E+02 -0.28146572236E+02  0.43400731136E+02  0.00000000000E+00 0.  1.
         11    1    3    3    0    0 -0.44444991306E+01  0.87419227488E+01  0.19342659333E+02  0.21686706901E+02  0.51100000000E-03 0. -1.
        -11    1    3    3    0    0 -0.50867865898E+00  0.59959780552E+01  0.16642239380E+01  0.62434083955E+01  0.51100000000E-03 0.  1.
         12    1    3    3    0    0  0.31955885536E+01  0.18251564402E+02  0.71396889649E+01  0.19857153568E+02  0.00000000000E+00 0. -1.
</event>
<event>
 7    1  0.2294216E-010  0.4778728E+02  0.7816164E-02  0.1312668E+00
        -11   -1    0    0    0    0  0.00000000000E+00  0.00000000000E+00  0.45593999997E+02  0.45594000000E+02  0.51100000000E-03 0. -1.
         11   -1    0    0    0    0 -0.00000000000E+00 -0.00000000000E+00 -0.45593999997E+02  0.45594000000E+02  0.51100000000E-03 0.  1.
    9900012    2    1    2    0    0  0.29019674862E+02 -0.28982145764E+02  0.14195654605E+02  0.47787275215E+02  0.20000019016E+02 0.  0.
        -12    1    1    2    0    0 -0.29019674862E+02  0.28982145764E+02 -0.14195654605E+02  0.43400724785E+02  0.00000000000E+00 0.  1.
         11    1    3    3    0    0  0.77078640601E+01 -0.11066007090E+01  0.55116597359E+01  0.95401324312E+01  0.51100000000E-03 0. -1.
        -11    1    3    3    0    0  0.91963274154E+00 -0.19449278567E-01 -0.19231827321E+01  0.21318383465E+01  0.51100000000E-03 0.  1.
        -12    1    3    3    0    0  0.20392178060E+02 -0.27856095777E+02  0.10607177601E+02  0.36115304438E+02  0.00000000000E+00 0.  1.
</event>
<event>
 7    1  0.2294216E-010  0.4778729E+02  0.7816164E-02  0.1312668E+00
        -11   -1    0    0    0    0  0.00000000000E+00  0.00000000000E+00  0.45593999997E+02  0.45594000000E+02  0.51100000000E-03 0.  1.
         11   -1    0    0    0    0 -0.00000000000E+00 -0.00000000000E+00 -0.45593999997E+02  0.45594000000E+02  0.51100000000E-03 0. -1.
    9900012    2    1    2    0    0 -0.10221903856E+02  0.20272362403E+02 -0.36988728480E+02  0.47787285370E+02  0.20000065316E+02 0.  0.
        -12    1    1    2    0    0  0.10221903856E+02 -0.20272362403E+02  0.36988728480E+02  0.43400714630E+02  0.00000000000E+00 0.  1.
         11    1    3    3    0    0 -0.72541048034E+01  0.17549546159E+02 -0.25430925984E+02  0.31738629516E+02  0.51100000000E-03 0. -1.
        -11    1    3    3    0    0 -0.15729159393E+01  0.61345490333E+01 -0.10415702414E+02  0.12189898007E+02  0.51100000000E-03 0.  1.
        -12    1    3    3    0    0 -0.13948831136E+01 -0.34117327890E+01 -0.11421000814E+01  0.38587578468E+01  0.00000000000E+00 0.  1.
</event>
<event>
 7    1  0.2294216E-010  0.4778727E+02  0.7816164E-02  0.1312668E+00
        -11   -1    0    0    0    0  0.00000000000E+00  0.00000000000E+00  0.45593999997E+02  0.45594000000E+02  0.51100000000E-03 0.  1.
         11   -1    0    0    0    0 -0.00000000000E+00 -0.00000000000E+00 -0.45593999997E+02  0.45594000000E+02  0.51100000000E-03 0. -1.
    9900012    2    1    2    0    0  0.20648402213E+02  0.29340929524E+02 -0.24420824084E+02  0.47787270648E+02  0.19999998194E+02 0.  0.
        -12    1    1    2    0    0 -0.20648402213E+02 -0.29340929524E+02  0.24420824084E+02  0.43400729352E+02  0.00000000000E+00 0.  1.
         11    1    3    3    0    0  0.15082226269E+02  0.19301914533E+02 -0.26138459148E+02  0.35822569712E+02  0.51100000000E-03 0. -1.
        -11    1    3    3    0    0  0.22454268955E+01  0.47148728689E+01 -0.64045801389E+00  0.52613833581E+01  0.51100000000E-03 0.  1.
         12    1    3    3    0    0  0.33207490488E+01  0.53241421226E+01  0.23580930782E+01  0.67033175781E+01  0.00000000000E+00 0. -1.
</event>
<event>
 7    1  0.2294216E-010  0.4778725E+02  0.7816164E-02  0.1312668E+00
        -11   -1    0    0    0    0  0.00000000000E+00  0.00000000000E+00  0.45593999997E+02  0.45594000000E+02  0.51100000000E-03 0. -1.
         11   -1    0    0    0    0 -0.00000000000E+00 -0.00000000000E+00 -0.45593999997E+02  0.45594000000E+02  0.51100000000E-03 0.  1.
    9900012    2    1    2    0    0 -0.26543938115E+02 -0.28752069268E+02  0.18771338377E+02  0.47787247906E+02  0.19999894504E+02 0.  0.
        -12    1    1    2    0    0  0.26543938115E+02  0.28752069268E+02 -0.18771338377E+02  0.43400752094E+02  0.00000000000E+00 0.  1.
         11    1    3    3    0    0 -0.10736394477E+02 -0.13195834074E+02  0.72343394797E+01  0.18486099406E+02  0.51100000000E-03 0. -1.
        -11    1    3    3    0    0 -0.66014358886E+01 -0.13833715225E+02  0.12643964443E+02  0.19870089829E+02  0.51100000000E-03 0.  1.
         12    1    3    3    0    0 -0.92061077496E+01 -0.17225199682E+01 -0.11069655460E+01  0.94310586711E+01  0.00000000000E+00 0. -1.
</event>
<event>
 7    1  0.2294216E-010  0.4778727E+02  0.7816164E-02  0.1312668E+00
        -11   -1    0    0    0    0  0.00000000000E+00  0.00000000000E+00  0.45593999997E+02  0.45594000000E+02  0.51100000000E-03 0.  1.
         11   -1    0    0    0    0 -0.00000000000E+00 -0.00000000000E+00 -0.45593999997E+02  0.45594000000E+02  0.51100000000E-03 0. -1.
    9900012    2    1    2    0    0 -0.88892026560E+01  0.40192649412E+02 -0.13753400772E+02  0.47787273930E+02  0.20000013158E+02 0.  0.
        -12    1    1    2    0    0  0.88892026560E+01 -0.40192649412E+02  0.13753400772E+02  0.43400726070E+02  0.00000000000E+00 0.  1.
         11    1    3    3    0    0  0.26892593890E+01  0.17570886919E+01 -0.27423452573E+01  0.42237346630E+01  0.51100000000E-03 0. -1.
        -11    1    3    3    0    0  0.22543963868E+01  0.52143308672E+01  0.69083643327E+00  0.57226571363E+01  0.51100000000E-03 0.  1.
        -12    1    3    3    0    0 -0.13832858432E+02  0.33221229852E+02 -0.11701891948E+02  0.37840882131E+02  0.00000000000E+00 0.  1.
</event>
<event>
 7    1  0.2294216E-010  0.4778727E+02  0.7816164E-02  0.1312668E+00
        -11   -1    0    0    0    0  0.00000000000E+00  0.00000000000E+00  0.45593999997E+02  0.45594000000E+02  0.51100000000E-03 0. -1.
         11   -1    0    0    0    0 -0.00000000000E+00 -0.00000000000E+00 -0.45593999997E+02  0.45594000000E+02  0.51100000000E-03 0.  1.
    9900012    2    1    2    0    0 -0.40869872082E+02  0.10687721416E+02 -0.99523536500E+01  0.47787272169E+02  0.20000005129E+02 0.  0.
        -12    1    1    2    0    0  0.40869872082E+02 -0.10687721416E+02  0.99523536500E+01  0.43400727831E+02  0.00000000000E+00 0.  1.
         11    1    3    3    0    0 -0.17325922507E+02  0.28825526130E+01 -0.94900586658E+01  0.19963915298E+02  0.51100000000E-03 0. -1.
        -11    1    3    3    0    0 -0.10011635606E+02  0.34117582442E+01 -0.64484304610E+01  0.12387703479E+02  0.51100000000E-03 0.  1.
        -12    1    3    3    0    0 -0.13532313969E+02  0.43934105586E+01  0.59861354768E+01  0.15435653392E+02  0.00000000000E+00 0.  1.
</event>
<event>
 7    1  0.2294216E-010  0.4778727E+02  0.7816164E-02  0.1312668E+00
        -11   -1    0    0    0    0  0.00000000000E+00  0.00000000000E+00  0.45593999997E+02  0.45594000000E+02  0.51100000000E-03 0.  1.
         11   -1    0    0    0    0 -0.00000000000E+00 -0.00000000000E+00 -0.45593999997E+02  0.45594000000E+02  0.51100000000E-03 0. -1.
    9900012    2    1    2    0    0 -0.43234879100E+02  0.20445055339E+01 -0.31919550015E+01  0.47787270163E+02  0.19999995979E+02 0.  0.
        -12    1    1    2    0    0  0.43234879100E+02 -0.20445055339E+01  0.31919550015E+01  0.43400729837E+02  0.00000000000E+00 0.  1.
         11    1    3    3    0    0 -0.13527180540E+02 -0.33104749790E+00  0.36870114631E+01  0.14024559159E+02  0.51100000000E-03 0. -1.
        -11    1    3    3    0    0 -0.27462322812E+02  0.58829818789E+01 -0.33131662295E+01  0.28280129433E+02  0.51100000000E-03 0.  1.
        -12    1    3    3    0    0 -0.22453757487E+01 -0.35074288471E+01 -0.35658002351E+01  0.54825815714E+01  0.00000000000E+00 0.  1.
</event>
<event>
 7    1  0.2294216E-010  0.4778727E+02  0.7816164E-02  0.1312668E+00
        -11   -1    0    0    0    0  0.00000000000E+00  0.00000000000E+00  0.45593999997E+02  0.45594000000E+02  0.51100000000E-03 0.  1.
         11   -1    0    0    0    0 -0.00000000000E+00 -0.00000000000E+00 -0.45593999997E+02  0.45594000000E+02  0.51100000000E-03 0. -1.
    9900012    2    1    2    0    0 -0.29874053905E+02  0.20420054078E+02 -0.23962175023E+02  0.47787268012E+02  0.19999986174E+02 0.  0.
        -12    1    1    2    0    0  0.29874053905E+02 -0.20420054078E+02  0.23962175023E+02  0.43400731988E+02  0.00000000000E+00 0.  1.
         11    1    3    3    0    0 -0.41523500379E+01  0.77947080410E+01 -0.14979440574E+02  0.17389166870E+02  0.51100000000E-03 0.  1.
        -11    1    3    3    0    0 -0.75185415935E+01  0.61401064808E+01 -0.33710650725E+01  0.10275867617E+02  0.51100000000E-03 0. -1.
        -12    1    3    3    0    0 -0.18203162273E+02  0.64852395566E+01 -0.56116693766E+01  0.20122233525E+02  0.00000000000E+00 0.  1.
</event>
<event>
 7    1  0.2294216E-010  0.4778725E+02  0.7816164E-02  0.1312668E+00
        -11   -1    0    0    0    0  0.00000000000E+00  0.00000000000E+00  0.45593999997E+02  0.45594000000E+02  0.51100000000E-03 0.  1.
         11   -1    0    0    0    0 -0.00000000000E+00 -0.00000000000E+00 -0.45593999997E+02  0.45594000000E+02  0.51100000000E-03 0. -1.
    9900012    2    1    2    0    0 -0.34013203220E+02 -0.92494751363E+01 -0.25321425347E+02  0.47787246951E+02  0.19999890147E+02 0.  0.
        -12    1    1    2    0    0  0.34013203220E+02  0.92494751363E+01  0.25321425347E+02  0.43400753049E+02  0.00000000000E+00 0.  1.
         11    1    3    3    0    0 -0.23568979822E+01 -0.14613417426E+01  0.28478571217E+01  0.39750192747E+01  0.51100000000E-03 0. -1.
        -11    1    3    3    0    0 -0.85806967178E+01 -0.57145673005E+01 -0.73215031635E+01  0.12644723976E+02  0.51100000000E-03 0.  1.
         12    1    3    3    0    0 -0.23075608520E+02 -0.20735660933E+01 -0.20847779306E+02  0.31167503700E+02  0.00000000000E+00 0. -1.
</event>
<event>
 7    1  0.2294216E-010  0.4778728E+02  0.7816164E-02  0.1312668E+00
        -11   -1    0    0    0    0  0.00000000000E+00  0.00000000000E+00  0.45593999997E+02  0.45594000000E+02  0.51100000000E-03 0.  1.
         11   -1    0    0    0    0 -0.00000000000E+00 -0.00000000000E+00 -0.45593999997E+02  0.45594000000E+02  0.51100000000E-03 0. -1.
    9900012    2    1    2    0    0 -0.15991450724E+02  0.13799110613E+02 -0.37914125668E+02  0.47787275638E+02  0.20000020944E+02 0.  0.
        -12    1    1    2    0    0  0.15991450724E+02 -0.13799110613E+02  0.37914125668E+02  0.43400724362E+02  0.00000000000E+00 0.  1.
         11    1    3    3    0    0 -0.11555956364E+02  0.60279064992E+01 -0.23824165815E+02  0.27156337406E+02  0.51100000000E-03 0. -1.
        -11    1    3    3    0    0 -0.71657373510E+01  0.46769143365E+01 -0.14112748489E+02  0.16504271861E+02  0.51100000000E-03 0.  1.
        -12    1    3    3    0    0  0.27302429908E+01  0.30942897771E+01  0.22788636499E-01  0.41266663707E+01  0.00000000000E+00 0.  1.
</event>
<event>
 7    1  0.2294216E-010  0.4778727E+02  0.7816164E-02  0.1312668E+00
        -11   -1    0    0    0    0  0.00000000000E+00  0.00000000000E+00  0.45593999997E+02  0.45594000000E+02  0.51100000000E-03 0.  1.
         11   -1    0    0    0    0 -0.00000000000E+00 -0.00000000000E+00 -0.45593999997E+02  0.45594000000E+02  0.51100000000E-03 0. -1.
    9900012    2    1    2    0    0 -0.18063033114E+02  0.25248767734E+02 -0.30329025977E+02  0.47787271272E+02  0.20000001039E+02 0.  0.
        -12    1    1    2    0    0  0.18063033114E+02 -0.25248767734E+02  0.30329025977E+02  0.43400728728E+02  0.00000000000E+00 0.  1.
         11    1    3    3    0    0 -0.18760614572E+02  0.26243767429E+02 -0.31461820135E+02  0.45061536974E+02  0.51100000000E-03 0. -1.
        -11    1    3    3    0    0 -0.68465842695E+00 -0.56989729189E+00  0.33566124673E-02  0.89081513956E+00  0.51100000000E-03 0.  1.
         12    1    3    3    0    0  0.13822398843E+01 -0.42510240281E+00  0.11294375457E+01  0.18349191590E+01  0.00000000000E+00 0. -1.
</event>
<event>
 7    1  0.2294216E-010  0.4778727E+02  0.7816164E-02  0.1312668E+00
        -11   -1    0    0    0    0  0.00000000000E+00  0.00000000000E+00  0.45593999997E+02  0.45594000000E+02  0.51100000000E-03 0.  1.
         11   -1    0    0    0    0 -0.00000000000E+00 -0.00000000000E+00 -0.45593999997E+02  0.45594000000E+02  0.51100000000E-03 0. -1.
    9900012    2    1    2    0    0  0.14455841739E+02 -0.35325632238E+02 -0.20657968208E+02  0.47787270699E+02  0.19999998423E+02 0.  0.
        -12    1    1    2    0    0 -0.14455841739E+02  0.35325632238E+02  0.20657968208E+02  0.43400729301E+02  0.00000000000E+00 0.  1.
         11    1    3    3    0    0  0.13959446965E+02 -0.31920479969E+02 -0.22569978219E+02  0.41511289043E+02  0.51100000000E-03 0. -1.
        -11    1    3    3    0    0  0.10366136926E+01  0.32369060365E+00 -0.10291637301E+01  0.14961690409E+01  0.51100000000E-03 0.  1.
         12    1    3    3    0    0 -0.54021891856E+00 -0.37288428736E+01  0.29411737409E+01  0.47798126145E+01  0.00000000000E+00 0. -1.
</event>
<event>
 7    1  0.2294216E-010  0.4778727E+02  0.7816164E-02  0.1312668E+00
        -11   -1    0    0    0    0  0.00000000000E+00  0.00000000000E+00  0.45593999997E+02  0.45594000000E+02  0.51100000000E-03 0.  1.
         11   -1    0    0    0    0 -0.00000000000E+00 -0.00000000000E+00 -0.45593999997E+02  0.45594000000E+02  0.51100000000E-03 0. -1.
    9900012    2    1    2    0    0 -0.16593041193E+02  0.20020247186E+02 -0.34748873603E+02  0.47787268093E+02  0.19999986542E+02 0.  0.
        -12    1    1    2    0    0  0.16593041193E+02 -0.20020247186E+02  0.34748873603E+02  0.43400731907E+02  0.00000000000E+00 0.  1.
         11    1    3    3    0    0 -0.69032081794E+00  0.34177400070E+01 -0.21777941509E+01  0.41109946742E+01  0.51100000000E-03 0.  1.
        -11    1    3    3    0    0 -0.15080737640E+02  0.15320998634E+02 -0.34843012971E+02  0.40941387373E+02  0.51100000000E-03 0. -1.
         12    1    3    3    0    0 -0.82198273477E+00  0.12815085446E+01  0.22719335187E+01  0.27348860451E+01  0.00000000000E+00 0. -1.
</event>
<event>
 7    1  0.2294216E-010  0.4778725E+02  0.7816164E-02  0.1312668E+00
        -11   -1    0    0    0    0  0.00000000000E+00  0.00000000000E+00  0.45593999997E+02  0.45594000000E+02  0.51100000000E-03 0. -1.
         11   -1    0    0    0    0 -0.00000000000E+00 -0.00000000000E+00 -0.45593999997E+02  0.45594000000E+02  0.51100000000E-03 0.  1.
    9900012    2    1    2    0    0  0.21497268735E+02 -0.99111684337E+01  0.36376656585E+02  0.47787251538E+02  0.19999911061E+02 0.  0.
        -12    1    1    2    0    0 -0.21497268735E+02  0.99111684337E+01 -0.36376656585E+02  0.43400748462E+02  0.00000000000E+00 0.  1.
         11    1    3    3    0    0  0.10131535293E+02 -0.14147685583E+01  0.67664583012E+01  0.12265175730E+02  0.51100000000E-03 0. -1.
        -11    1    3    3    0    0  0.22957115085E+01 -0.71807519289E+01  0.44722460215E+01  0.87655276129E+01  0.51100000000E-03 0.  1.
         12    1    3    3    0    0  0.90700219327E+01 -0.13156479465E+01  0.25137952262E+02  0.26756548195E+02  0.00000000000E+00 0. -1.
</event>
<event>
 7    1  0.2294216E-010  0.4778733E+02  0.7816164E-02  0.1312667E+00
        -11   -1    0    0    0    0  0.00000000000E+00  0.00000000000E+00  0.45593999997E+02  0.45594000000E+02  0.51100000000E-03 0. -1.
         11   -1    0    0    0    0 -0.00000000000E+00 -0.00000000000E+00 -0.45593999997E+02  0.45594000000E+02  0.51100000000E-03 0.  1.
    9900012    2    1    2    0    0 -0.14321265789E+02  0.25104466946E+02  0.32377233811E+02  0.47787329686E+02  0.20000267369E+02 0.  0.
        -12    1    1    2    0    0  0.14321265789E+02 -0.25104466946E+02 -0.32377233811E+02  0.43400670314E+02  0.00000000000E+00 0.  1.
         11    1    3    3    0    0 -0.78343270124E+01  0.56499687785E+01  0.10107145245E+02  0.13980458226E+02  0.51100000000E-03 0. -1.
        -11    1    3    3    0    0 -0.55875988909E+01  0.20440324748E+02  0.23739983500E+02  0.31821611429E+02  0.51100000000E-03 0.  1.
        -12    1    3    3    0    0 -0.89933988536E+00 -0.98582658029E+00 -0.14698949332E+01  0.19852600310E+01  0.00000000000E+00 0.  1.
</event>
<event>
 7    1  0.2294216E-010  0.4778727E+02  0.7816164E-02  0.1312668E+00
        -11   -1    0    0    0    0  0.00000000000E+00  0.00000000000E+00  0.45593999997E+02  0.45594000000E+02  0.51100000000E-03 0.  1.
         11   -1    0    0    0    0 -0.00000000000E+00 -0.00000000000E+00 -0.45593999997E+02  0.45594000000E+02  0.51100000000E-03 0. -1.
    9900012    2    1    2    0    0 -0.33981398722E+02 -0.18304676352E+02 -0.19845068390E+02  0.47787269881E+02  0.19999994697E+02 0.  0.
        -12    1    1    2    0    0  0.33981398722E+02  0.18304676352E+02  0.19845068390E+02  0.43400730119E+02  0.00000000000E+00 0.  1.
         11    1    3    3    0    0 -0.15983461340E+02 -0.12853590169E+02 -0.93688929378E+01  0.22549101352E+02  0.51100000000E-03 0. -1.
        -11    1    3    3    0    0 -0.49261074689E+01 -0.78923537557E+01 -0.65323780803E+01  0.11367838240E+02  0.51100000000E-03 0.  1.
        -12    1    3    3    0    0 -0.13071829913E+02  0.24412675727E+01 -0.39437973715E+01  0.13870330290E+02  0.00000000000E+00 0.  1.
</event>
<event>
 7    1  0.2294216E-010  0.4778727E+02  0.7816164E-02  0.1312668E+00
        -11   -1    0    0    0    0  0.00000000000E+00  0.00000000000E+00  0.45593999997E+02  0.45594000000E+02  0.51100000000E-03 0.  1.
         11   -1    0    0    0    0 -0.00000000000E+00 -0.00000000000E+00 -0.45593999997E+02  0.45594000000E+02  0.51100000000E-03 0. -1.
    9900012    2    1    2    0    0  0.43278441670E+02  0.32503726745E+01  0.18628581448E+00  0.47787272606E+02  0.20000007121E+02 0.  0.
        -12    1    1    2    0    0 -0.43278441670E+02 -0.32503726745E+01 -0.18628581448E+00  0.43400727394E+02  0.00000000000E+00 0.  1.
         11    1    3    3    0    0  0.22448921015E+00 -0.35864697834E+01  0.14607490378E+01  0.38790396911E+01  0.51100000000E-03 0. -1.
        -11    1    3    3    0    0  0.30495309702E+01 -0.62033595135E+00  0.60952668296E+00  0.31711163443E+01  0.51100000000E-03 0.  1.
         12    1    3    3    0    0  0.40004421490E+02  0.74571784092E+01 -0.18839899063E+01  0.40737116571E+02  0.00000000000E+00 0. -1.
</event>
<event>
 7    1  0.2294216E-010  0.4778727E+02  0.7816164E-02  0.1312668E+00
        -11   -1    0    0    0    0  0.00000000000E+00  0.00000000000E+00  0.45593999997E+02  0.45594000000E+02  0.51100000000E-03 0.  1.
         11   -1    0    0    0    0 -0.00000000000E+00 -0.00000000000E+00 -0.45593999997E+02  0.45594000000E+02  0.51100000000E-03 0. -1.
    9900012    2    1    2    0    0 -0.30736274989E+02  0.28035636028E+02  0.12365578583E+02  0.47787273953E+02  0.20000013261E+02 0.  0.
        -12    1    1    2    0    0  0.30736274989E+02 -0.28035636028E+02 -0.12365578583E+02  0.43400726047E+02  0.00000000000E+00 0.  1.
         11    1    3    3    0    0 -0.17582351090E+02  0.15182779075E+02 -0.16732813308E+01  0.23290678843E+02  0.51100000000E-03 0. -1.
        -11    1    3    3    0    0 -0.45487076968E+01  0.72932941828E+01  0.22639167220E+01  0.88886557439E+01  0.51100000000E-03 0.  1.
        -12    1    3    3    0    0 -0.86052162026E+01  0.55595627701E+01  0.11774943191E+02  0.15607939366E+02  0.00000000000E+00 0.  1.
</event>
<event>
 7    1  0.2294216E-010  0.4778727E+02  0.7816164E-02  0.1312668E+00
        -11   -1    0    0    0    0  0.00000000000E+00  0.00000000000E+00  0.45593999997E+02  0.45594000000E+02  0.51100000000E-03 0.  1.
         11   -1    0    0    0    0 -0.00000000000E+00 -0.00000000000E+00 -0.45593999997E+02  0.45594000000E+02  0.51100000000E-03 0. -1.
    9900012    2    1    2    0    0  0.33013442515E+02 -0.20283996527E+02  0.19552381623E+02  0.47787268106E+02  0.19999986601E+02 0.  0.
        -12    1    1    2    0    0 -0.33013442515E+02  0.20283996527E+02 -0.19552381623E+02  0.43400731894E+02  0.00000000000E+00 0.  1.
         11    1    3    3    0    0  0.43383530355E+01  0.72190739318E+00  0.45519261974E+01  0.63294936380E+01  0.51100000000E-03 0. -1.
        -11    1    3    3    0    0 -0.92068852305E+00  0.30461954627E+00 -0.12073600466E+01  0.15486054913E+01  0.51100000000E-03 0.  1.
         12    1    3    3    0    0  0.29595778003E+02 -0.21310523467E+02  0.16207815472E+02  0.39909168976E+02  0.00000000000E+00 0. -1.
</event>
<event>
 7    1  0.2294216E-010  0.4778727E+02  0.7816164E-02  0.1312668E+00
        -11   -1    0    0    0    0  0.00000000000E+00  0.00000000000E+00  0.45593999997E+02  0.45594000000E+02  0.51100000000E-03 0.  1.
         11   -1    0    0    0    0 -0.00000000000E+00 -0.00000000000E+00 -0.45593999997E+02  0.45594000000E+02  0.51100000000E-03 0. -1.
    9900012    2    1    2    0    0 -0.30941669641E+02  0.33540709888E+01 -0.30248743492E+02  0.47787271951E+02  0.20000004133E+02 0.  0.
        -12    1    1    2    0    0  0.30941669641E+02 -0.33540709888E+01  0.30248743492E+02  0.43400728049E+02  0.00000000000E+00 0.  1.
         11    1    3    3    0    0 -0.56727047712E+01  0.55864284752E+01 -0.11491589667E+02  0.13980142913E+02  0.51100000000E-03 0. -1.
        -11    1    3    3    0    0 -0.52876421615E+01  0.12920732579E+01  0.94600838379E+00  0.55248117664E+01  0.51100000000E-03 0.  1.
         12    1    3    3    0    0 -0.19981322708E+02 -0.35244307443E+01 -0.19703162209E+02  0.28282317272E+02  0.00000000000E+00 0. -1.
</event>
<event>
 7    1  0.2294216E-010  0.4778726E+02  0.7816164E-02  0.1312668E+00
        -11   -1    0    0    0    0  0.00000000000E+00  0.00000000000E+00  0.45593999997E+02  0.45594000000E+02  0.51100000000E-03 0.  1.
         11   -1    0    0    0    0 -0.00000000000E+00 -0.00000000000E+00 -0.45593999997E+02  0.45594000000E+02  0.51100000000E-03 0. -1.
    9900012    2    1    2    0    0  0.20244585341E+02  0.16985636313E+02 -0.34427736102E+02  0.47787261646E+02  0.19999957149E+02 0.  0.
        -12    1    1    2    0    0 -0.20244585341E+02 -0.16985636313E+02  0.34427736102E+02  0.43400738354E+02  0.00000000000E+00 0.  1.
         11    1    3    3    0    0  0.13947266088E+01  0.19370772523E+00 -0.14311287360E+00  0.14153679916E+01  0.51100000000E-03 0.  1.
        -11    1    3    3    0    0  0.21431146468E+02  0.17274046334E+02 -0.33977271593E+02  0.43728042500E+02  0.51100000000E-03 0. -1.
         12    1    3    3    0    0 -0.25812877362E+01 -0.48211774649E+00 -0.30735163452E+00  0.26438511543E+01  0.00000000000E+00 0. -1.
</event>
<event>
 7    1  0.2294216E-010  0.4778727E+02  0.7816164E-02  0.1312668E+00
        -11   -1    0    0    0    0  0.00000000000E+00  0.00000000000E+00  0.45593999997E+02  0.45594000000E+02  0.51100000000E-03 0.  1.
         11   -1    0    0    0    0 -0.00000000000E+00 -0.00000000000E+00 -0.45593999997E+02  0.45594000000E+02  0.51100000000E-03 0. -1.
    9900012    2    1    2    0    0  0.23653081791E+02 -0.53554778095E+01 -0.35992692173E+02  0.47787270621E+02  0.19999998069E+02 0.  0.
        -12    1    1    2    0    0 -0.23653081791E+02  0.53554778095E+01  0.35992692173E+02  0.43400729379E+02  0.00000000000E+00 0.  1.
         11    1    3    3    0    0  0.99895135656E+00 -0.43357344599E+01 -0.70699007499E+01  0.83534420447E+01  0.51100000000E-03 0. -1.
        -11    1    3    3    0    0  0.69061148399E+01 -0.64357609149E+01 -0.63268079936E+01  0.11364063551E+02  0.51100000000E-03 0.  1.
         12    1    3    3    0    0  0.15748015595E+02  0.54160175653E+01 -0.22595983430E+02  0.28069765025E+02  0.00000000000E+00 0. -1.
</event>
<event>
 7    1  0.2294216E-010  0.4778727E+02  0.7816164E-02  0.1312668E+00
        -11   -1    0    0    0    0  0.00000000000E+00  0.00000000000E+00  0.45593999997E+02  0.45594000000E+02  0.51100000000E-03 0.  1.
         11   -1    0    0    0    0 -0.00000000000E+00 -0.00000000000E+00 -0.45593999997E+02  0.45594000000E+02  0.51100000000E-03 0. -1.
    9900012    2    1    2    0    0  0.40239402820E+02  0.54268338014E+01  0.15328507696E+02  0.47787271750E+02  0.20000003219E+02 0.  0.
        -12    1    1    2    0    0 -0.40239402820E+02 -0.54268338014E+01 -0.15328507696E+02  0.43400728250E+02  0.00000000000E+00 0.  1.
         11    1    3    3    0    0  0.15703775006E+02  0.12421947142E+01  0.66301815088E+01  0.17091252273E+02  0.51100000000E-03 0. -1.
        -11    1    3    3    0    0  0.26504890721E+02  0.48468464591E+01  0.65954003222E+01  0.27739871275E+02  0.51100000000E-03 0.  1.
        -12    1    3    3    0    0 -0.19692629070E+01 -0.66220737188E+00  0.21029258646E+01  0.29561482020E+01  0.00000000000E+00 0.  1.
</event>
<event>
 7    1  0.2294216E-010  0.4778727E+02  0.7816164E-02  0.1312668E+00
        -11   -1    0    0    0    0  0.00000000000E+00  0.00000000000E+00  0.45593999997E+02  0.45594000000E+02  0.51100000000E-03 0.  1.
         11   -1    0    0    0    0 -0.00000000000E+00 -0.00000000000E+00 -0.45593999997E+02  0.45594000000E+02  0.51100000000E-03 0. -1.
    9900012    2    1    2    0    0 -0.30222886272E+02  0.64125055857E+01 -0.30480816033E+02  0.47787271567E+02  0.20000002382E+02 0.  0.
        -12    1    1    2    0    0  0.30222886272E+02 -0.64125055857E+01  0.30480816033E+02  0.43400728433E+02  0.00000000000E+00 0.  1.
         11    1    3    3    0    0 -0.23491421630E+01  0.46186651844E+00 -0.33670130178E+01  0.41314121685E+01  0.51100000000E-03 0. -1.
        -11    1    3    3    0    0 -0.36360176211E+01  0.82420916415E+01 -0.32834101185E+01  0.95881948788E+01  0.51100000000E-03 0.  1.
         12    1    3    3    0    0 -0.24237726488E+02 -0.22914525742E+01 -0.23830392897E+02  0.34067664519E+02  0.00000000000E+00 0. -1.
</event>
<event>
 7    1  0.2294216E-010  0.4778727E+02  0.7816164E-02  0.1312668E+00
        -11   -1    0    0    0    0  0.00000000000E+00  0.00000000000E+00  0.45593999997E+02  0.45594000000E+02  0.51100000000E-03 0.  1.
         11   -1    0    0    0    0 -0.00000000000E+00 -0.00000000000E+00 -0.45593999997E+02  0.45594000000E+02  0.51100000000E-03 0. -1.
    9900012    2    1    2    0    0 -0.49525962974E+01  0.81270236640E+01 -0.42344378776E+02  0.47787272613E+02  0.20000007154E+02 0.  0.
        -12    1    1    2    0    0  0.49525962974E+01 -0.81270236640E+01  0.42344378776E+02  0.43400727387E+02  0.00000000000E+00 0.  1.
         11    1    3    3    0    0  0.24027245262E-02 -0.32421173588E+00 -0.15185889170E+02  0.15189349860E+02  0.51100000000E-03 0. -1.
        -11    1    3    3    0    0 -0.27901671848E+01  0.13480166349E+01 -0.24523492429E+02  0.24718492328E+02  0.51100000000E-03 0.  1.
        -12    1    3    3    0    0 -0.21648318371E+01  0.71032187650E+01 -0.26349971766E+01  0.78794304253E+01  0.00000000000E+00 0.  1.
</event>
<event>
 7    1  0.2294216E-010  0.4778728E+02  0.7816164E-02  0.1312668E+00
        -11   -1    0    0    0    0  0.00000000000E+00  0.00000000000E+00  0.45593999997E+02  0.45594000000E+02  0.51100000000E-03 0.  1.
         11   -1    0    0    0    0 -0.00000000000E+00 -0.00000000000E+00 -0.45593999997E+02  0.45594000000E+02  0.51100000000E-03 0. -1.
    9900012    2    1    2    0    0 -0.19375192357E+02 -0.36186106088E+02  0.14099308182E+02  0.47787275998E+02  0.20000022584E+02 0.  0.
        -12    1    1    2    0    0  0.19375192357E+02  0.36186106088E+02 -0.14099308182E+02  0.43400724002E+02  0.00000000000E+00 0.  1.
         11    1    3    3    0    0 -0.92857217463E+01 -0.18697051820E+02  0.71761703701E+01  0.22074913285E+02  0.51100000000E-03 0. -1.
        -11    1    3    3    0    0 -0.10838307036E+02 -0.17136849510E+02  0.99415096528E+01  0.22582606691E+02  0.51100000000E-03 0.  1.
        -12    1    3    3    0    0  0.74883642481E+00 -0.35220475892E+00 -0.30183718413E+01  0.31297560217E+01  0.00000000000E+00 0.  1.
</event>
<event>
 7    1  0.2294216E-010  0.4778731E+02  0.7816164E-02  0.1312668E+00
        -11   -1    0    0    0    0  0.00000000000E+00  0.00000000000E+00  0.45593999997E+02  0.45594000000E+02  0.51100000000E-03 0.  1.
         11   -1    0    0    0    0 -0.00000000000E+00 -0.00000000000E+00 -0.45593999997E+02  0.45594000000E+02  0.51100000000E-03 0. -1.
    9900012    2    1    2    0    0 -0.42684610276E+02  0.45754403963E+01 -0.63803758772E+01  0.47787311001E+02  0.20000182178E+02 0.  0.
        -12    1    1    2    0    0  0.42684610276E+02 -0.45754403963E+01  0.63803758772E+01  0.43400688999E+02  0.00000000000E+00 0.  1.
         11    1    3    3    0    0 -0.16649163077E+02  0.77865446529E+01  0.38113704017E+01  0.18771026967E+02  0.51100000000E-03 0. -1.
        -11    1    3    3    0    0 -0.74339719675E+01  0.20823064541E+01 -0.40899298222E+01  0.87365591393E+01  0.51100000000E-03 0.  1.
         12    1    3    3    0    0 -0.18601475232E+02 -0.52934107108E+01 -0.61018164567E+01  0.20279724895E+02  0.00000000000E+00 0. -1.
</event>
<event>
 7    1  0.2294216E-010  0.4778722E+02  0.7816164E-02  0.1312668E+00
        -11   -1    0    0    0    0  0.00000000000E+00  0.00000000000E+00  0.45593999997E+02  0.45594000000E+02  0.51100000000E-03 0. -1.
         11   -1    0    0    0    0 -0.00000000000E+00 -0.00000000000E+00 -0.45593999997E+02  0.45594000000E+02  0.51100000000E-03 0.  1.
    9900012    2    1    2    0    0  0.42654480592E+02 -0.12859030347E+01  0.79100852200E+01  0.47787219945E+02  0.19999767016E+02 0.  0.
        -12    1    1    2    0    0 -0.42654480592E+02  0.12859030347E+01 -0.79100852200E+01  0.43400780055E+02  0.00000000000E+00 0.  1.
         11    1    3    3    0    0  0.26587981219E+02 -0.23752757931E+01  0.66129881536E+01  0.27500805315E+02  0.51100000000E-03 0. -1.
        -11    1    3    3    0    0  0.15437837658E+02  0.29460783361E+01 -0.25943593233E+01  0.15929121435E+02  0.51100000000E-03 0.  1.
         12    1    3    3    0    0  0.62866171477E+00 -0.18567055777E+01  0.38914563898E+01  0.43572931951E+01  0.00000000000E+00 0. -1.
</event>
<event>
 7    1  0.2294216E-010  0.4778727E+02  0.7816164E-02  0.1312668E+00
        -11   -1    0    0    0    0  0.00000000000E+00  0.00000000000E+00  0.45593999997E+02  0.45594000000E+02  0.51100000000E-03 0.  1.
         11   -1    0    0    0    0 -0.00000000000E+00 -0.00000000000E+00 -0.45593999997E+02  0.45594000000E+02  0.51100000000E-03 0. -1.
    9900012    2    1    2    0    0  0.32077474146E+02 -0.28348973231E+02 -0.71410561385E+01  0.47787270587E+02  0.19999997912E+02 0.  0.
        -12    1    1    2    0    0 -0.32077474146E+02  0.28348973231E+02  0.71410561385E+01  0.43400729413E+02  0.00000000000E+00 0.  1.
         11    1    3    3    0    0  0.16361351236E+02 -0.84878388927E+01 -0.72046694060E+01  0.19790009723E+02  0.51100000000E-03 0. -1.
        -11    1    3    3    0    0  0.65399001576E+01 -0.51978741968E+01  0.53373323447E+01  0.99133902907E+01  0.51100000000E-03 0.  1.
         12    1    3    3    0    0  0.91762227528E+01 -0.14663260142E+02 -0.52737190772E+01  0.18083870573E+02  0.00000000000E+00 0. -1.
</event>
<event>
 7    1  0.2294216E-010  0.4778727E+02  0.7816164E-02  0.1312668E+00
        -11   -1    0    0    0    0  0.00000000000E+00  0.00000000000E+00  0.45593999997E+02  0.45594000000E+02  0.51100000000E-03 0.  1.
         11   -1    0    0    0    0 -0.00000000000E+00 -0.00000000000E+00 -0.45593999997E+02  0.45594000000E+02  0.51100000000E-03 0. -1.
    9900012    2    1    2    0    0  0.14844961861E+02  0.12044671610E+02 -0.38963778553E+02  0.47787273670E+02  0.20000011969E+02 0.  0.
        -12    1    1    2    0    0 -0.14844961861E+02 -0.12044671610E+02  0.38963778553E+02  0.43400726330E+02  0.00000000000E+00 0.  1.
         11    1    3    3    0    0  0.73925629307E+01  0.11980628974E+02 -0.24500211691E+02  0.28256783795E+02  0.51100000000E-03 0. -1.
        -11    1    3    3    0    0  0.94341378574E+00  0.35112233070E+01 -0.40357915456E+00  0.36580862589E+01  0.51100000000E-03 0.  1.
        -12    1    3    3    0    0  0.65089851450E+01 -0.34471806706E+01 -0.14059987708E+02  0.15872403615E+02  0.00000000000E+00 0.  1.
</event>
<event>
 7    1  0.2294216E-010  0.4778727E+02  0.7816164E-02  0.1312668E+00
        -11   -1    0    0    0    0  0.00000000000E+00  0.00000000000E+00  0.45593999997E+02  0.45594000000E+02  0.51100000000E-03 0.  1.
         11   -1    0    0    0    0 -0.00000000000E+00 -0.00000000000E+00 -0.45593999997E+02  0.45594000000E+02  0.51100000000E-03 0. -1.
    9900012    2    1    2    0    0 -0.43209883079E+02  0.38360818865E+01 -0.13469348751E+01  0.47787265519E+02  0.19999974805E+02 0.  0.
        -12    1    1    2    0    0  0.43209883079E+02 -0.38360818865E+01  0.13469348751E+01  0.43400734481E+02  0.00000000000E+00 0.  1.
         11    1    3    3    0    0 -0.11283175853E+02  0.33058668510E+01  0.23772067506E+01  0.11995412672E+02  0.51100000000E-03 0. -1.
        -11    1    3    3    0    0 -0.25020314354E+02 -0.88772418602E+00  0.39778902709E+01  0.25350104455E+02  0.51100000000E-03 0.  1.
        -12    1    3    3    0    0 -0.69063928716E+01  0.14179392216E+01 -0.77020318966E+01  0.10441748391E+02  0.00000000000E+00 0.  1.
</event>
<event>
 7    1  0.2294216E-010  0.4778726E+02  0.7816164E-02  0.1312668E+00
        -11   -1    0    0    0    0  0.00000000000E+00  0.00000000000E+00  0.45593999997E+02  0.45594000000E+02  0.51100000000E-03 0. -1.
         11   -1    0    0    0    0 -0.00000000000E+00 -0.00000000000E+00 -0.45593999997E+02  0.45594000000E+02  0.51100000000E-03 0.  1.
    9900012    2    1    2    0    0 -0.10087781454E+02  0.44624055682E+01  0.41975560948E+02  0.47787261354E+02  0.19999955816E+02 0.  0.
        -12    1    1    2    0    0  0.10087781454E+02 -0.44624055682E+01 -0.41975560948E+02  0.43400738646E+02  0.00000000000E+00 0.  1.
         11    1    3    3    0    0  0.30708855761E+01  0.14898301429E+01  0.97000485689E+01  0.10283038198E+02  0.51100000000E-03 0. -1.
        -11    1    3    3    0    0 -0.41905540580E+00  0.57953084276E+01  0.12855076541E+02  0.14107239288E+02  0.51100000000E-03 0.  1.
         12    1    3    3    0    0 -0.12739611625E+02 -0.28227330023E+01  0.19420435838E+02  0.23396983868E+02  0.00000000000E+00 0. -1.
</event>
<event>
 7    1  0.2294216E-010  0.4778727E+02  0.7816164E-02  0.1312668E+00
        -11   -1    0    0    0    0  0.00000000000E+00  0.00000000000E+00  0.45593999997E+02  0.45594000000E+02  0.51100000000E-03 0.  1.
         11   -1    0    0    0    0 -0.00000000000E+00 -0.00000000000E+00 -0.45593999997E+02  0.45594000000E+02  0.51100000000E-03 0. -1.
    9900012    2    1    2    0    0  0.29006096754E+02 -0.15431305897E+02 -0.28357436195E+02  0.47787273761E+02  0.20000012384E+02 0.  0.
        -12    1    1    2    0    0 -0.29006096754E+02  0.15431305897E+02  0.28357436195E+02  0.43400726239E+02  0.00000000000E+00 0.  1.
         11    1    3    3    0    0  0.14404340965E+02 -0.26701701226E+01 -0.21996448035E+02  0.26428366834E+02  0.51100000000E-03 0. -1.
        -11    1    3    3    0    0  0.33940340052E+01  0.16643696414E-02 -0.80805919112E+00  0.34889009038E+01  0.51100000000E-03 0.  1.
        -12    1    3    3    0    0  0.11207721784E+02 -0.12762800145E+02 -0.55529289683E+01  0.17870006022E+02  0.00000000000E+00 0.  1.
</event>
<event>
 7    1  0.2294216E-010  0.4778727E+02  0.7816164E-02  0.1312668E+00
        -11   -1    0    0    0    0  0.00000000000E+00  0.00000000000E+00  0.45593999997E+02  0.45594000000E+02  0.51100000000E-03 0.  1.
         11   -1    0    0    0    0 -0.00000000000E+00 -0.00000000000E+00 -0.45593999997E+02  0.45594000000E+02  0.51100000000E-03 0. -1.
    9900012    2    1    2    0    0 -0.31047305347E+02 -0.16650918860E+02 -0.25346301766E+02  0.47787270958E+02  0.19999999605E+02 0.  0.
        -12    1    1    2    0    0  0.31047305347E+02  0.16650918860E+02  0.25346301766E+02  0.43400729042E+02  0.00000000000E+00 0.  1.
         11    1    3    3    0    0 -0.14719244031E+02 -0.34502983923E+01 -0.16214207467E+02  0.22168924825E+02  0.51100000000E-03 0. -1.
        -11    1    3    3    0    0 -0.55389679654E+01  0.14398612180E+01 -0.26994548543E+01  0.63277502496E+01  0.51100000000E-03 0.  1.
        -12    1    3    3    0    0 -0.10789093350E+02 -0.14640481685E+02 -0.64326394447E+01  0.19290595883E+02  0.00000000000E+00 0.  1.
</event>
<event>
 7    1  0.2294216E-010  0.4778728E+02  0.7816164E-02  0.1312668E+00
        -11   -1    0    0    0    0  0.00000000000E+00  0.00000000000E+00  0.45593999997E+02  0.45594000000E+02  0.51100000000E-03 0.  1.
         11   -1    0    0    0    0 -0.00000000000E+00 -0.00000000000E+00 -0.45593999997E+02  0.45594000000E+02  0.51100000000E-03 0. -1.
    9900012    2    1    2    0    0 -0.42730075566E+02  0.75992122869E+01 -0.12384429179E+00  0.47787277395E+02  0.20000028955E+02 0.  0.
        -12    1    1    2    0    0  0.42730075566E+02 -0.75992122869E+01  0.12384429179E+00  0.43400722605E+02  0.00000000000E+00 0.  1.
         11    1    3    3    0    0 -0.70069711390E+01  0.12650245873E+01 -0.47657503531E+01  0.85679815849E+01  0.51100000000E-03 0. -1.
        -11    1    3    3    0    0 -0.25234621815E+02  0.97341858829E+01 -0.50416361715E+00  0.27051704089E+02  0.51100000000E-03 0.  1.
        -12    1    3    3    0    0 -0.10488482612E+02 -0.33999981833E+01  0.51460696785E+01  0.12167591721E+02  0.00000000000E+00 0.  1.
</event>
<event>
 7    1  0.2294216E-010  0.4778727E+02  0.7816164E-02  0.1312668E+00
        -11   -1    0    0    0    0  0.00000000000E+00  0.00000000000E+00  0.45593999997E+02  0.45594000000E+02  0.51100000000E-03 0.  1.
         11   -1    0    0    0    0 -0.00000000000E+00 -0.00000000000E+00 -0.45593999997E+02  0.45594000000E+02  0.51100000000E-03 0. -1.
    9900012    2    1    2    0    0 -0.29586451415E+02 -0.21010098033E+02 -0.23808422303E+02  0.47787270752E+02  0.19999998667E+02 0.  0.
        -12    1    1    2    0    0  0.29586451415E+02  0.21010098033E+02  0.23808422303E+02  0.43400729248E+02  0.00000000000E+00 0.  1.
         11    1    3    3    0    0 -0.65176536965E+01 -0.90108414930E+01 -0.60507746824E+01  0.12660448201E+02  0.51100000000E-03 0. -1.
        -11    1    3    3    0    0 -0.22377975576E+02 -0.12704753903E+02 -0.10484334848E+02  0.27786792548E+02  0.51100000000E-03 0.  1.
        -12    1    3    3    0    0 -0.69082214216E+00  0.70549736336E+00 -0.72733127728E+01  0.73400300035E+01  0.00000000000E+00 0.  1.
</event>
<event>
 7    1  0.2294216E-010  0.4778727E+02  0.7816164E-02  0.1312668E+00
        -11   -1    0    0    0    0  0.00000000000E+00  0.00000000000E+00  0.45593999997E+02  0.45594000000E+02  0.51100000000E-03 0.  1.
         11   -1    0    0    0    0 -0.00000000000E+00 -0.00000000000E+00 -0.45593999997E+02  0.45594000000E+02  0.51100000000E-03 0. -1.
    9900012    2    1    2    0    0 -0.34621507203E+02  0.18554374268E+01 -0.26106167938E+02  0.47787269436E+02  0.19999992667E+02 0.  0.
        -12    1    1    2    0    0  0.34621507203E+02 -0.18554374268E+01  0.26106167938E+02  0.43400730564E+02  0.00000000000E+00 0.  1.
         11    1    3    3    0    0 -0.13200201793E+02 -0.65212101810E+01 -0.10365068210E+02  0.18005725446E+02  0.51100000000E-03 0. -1.
        -11    1    3    3    0    0 -0.13149784872E+02  0.18789590220E+00 -0.11247684865E+02  0.17304986626E+02  0.51100000000E-03 0.  1.
        -12    1    3    3    0    0 -0.82715205390E+01  0.81887517056E+01 -0.44934148627E+01  0.12476557364E+02  0.00000000000E+00 0.  1.
</event>
<event>
 7    1  0.2294216E-010  0.4778727E+02  0.7816164E-02  0.1312668E+00
        -11   -1    0    0    0    0  0.00000000000E+00  0.00000000000E+00  0.45593999997E+02  0.45594000000E+02  0.51100000000E-03 0. -1.
         11   -1    0    0    0    0 -0.00000000000E+00 -0.00000000000E+00 -0.45593999997E+02  0.45594000000E+02  0.51100000000E-03 0.  1.
    9900012    2    1    2    0    0 -0.34709774686E+02 -0.12081083735E+02 -0.23084675035E+02  0.47787271153E+02  0.20000000497E+02 0.  0.
        -12    1    1    2    0    0  0.34709774686E+02  0.12081083735E+02  0.23084675035E+02  0.43400728847E+02  0.00000000000E+00 0.  1.
         11    1    3    3    0    0 -0.27360997943E+01 -0.58073163127E+01 -0.15169982653E+00  0.64213844253E+01  0.51100000000E-03 0. -1.
        -11    1    3    3    0    0 -0.72804056372E+01 -0.60941573570E+01 -0.86205088855E+01  0.12824049042E+02  0.51100000000E-03 0.  1.
        -12    1    3    3    0    0 -0.24693269254E+02 -0.17961006528E+00 -0.14312466323E+02  0.28541837686E+02  0.00000000000E+00 0.  1.
</event>
<event>
 7    1  0.2294216E-010  0.4778727E+02  0.7816164E-02  0.1312668E+00
        -11   -1    0    0    0    0  0.00000000000E+00  0.00000000000E+00  0.45593999997E+02  0.45594000000E+02  0.51100000000E-03 0.  1.
         11   -1    0    0    0    0 -0.00000000000E+00 -0.00000000000E+00 -0.45593999997E+02  0.45594000000E+02  0.51100000000E-03 0. -1.
    9900012    2    1    2    0    0 -0.54950124460E+01 -0.20620827348E+02 -0.37791659653E+02  0.47787271646E+02  0.20000002744E+02 0.  0.
        -12    1    1    2    0    0  0.54950124460E+01  0.20620827348E+02  0.37791659653E+02  0.43400728354E+02  0.00000000000E+00 0.  1.
         11    1    3    3    0    0 -0.71568743752E+01 -0.13198750970E+02 -0.31511903712E+02  0.34905987363E+02  0.51100000000E-03 0. -1.
        -11    1    3    3    0    0 -0.24624928268E+01  0.31132367804E+00 -0.13459087286E+01  0.28235197753E+01  0.51100000000E-03 0.  1.
         12    1    3    3    0    0  0.41243547559E+01 -0.77334000562E+01 -0.49338472125E+01  0.10057764508E+02  0.00000000000E+00 0. -1.
</event>
<event>
 7    1  0.2294216E-010  0.4778727E+02  0.7816164E-02  0.1312668E+00
        -11   -1    0    0    0    0  0.00000000000E+00  0.00000000000E+00  0.45593999997E+02  0.45594000000E+02  0.51100000000E-03 0.  1.
         11   -1    0    0    0    0 -0.00000000000E+00 -0.00000000000E+00 -0.45593999997E+02  0.45594000000E+02  0.51100000000E-03 0. -1.
    9900012    2    1    2    0    0  0.30979258891E+02 -0.22846534910E+02  0.20048550579E+02  0.47787273978E+02  0.20000013377E+02 0.  0.
        -12    1    1    2    0    0 -0.30979258891E+02  0.22846534910E+02 -0.20048550579E+02  0.43400726022E+02  0.00000000000E+00 0.  1.
         11    1    3    3    0    0  0.91838660216E+01 -0.43338173865E+01  0.45159506705E+01  0.11113918254E+02  0.51100000000E-03 0. -1.
        -11    1    3    3    0    0  0.40329361144E+01 -0.12704093275E+02  0.17299447116E+01  0.13440657298E+02  0.51100000000E-03 0.  1.
        -12    1    3    3    0    0  0.17762456755E+02 -0.58086242488E+01  0.13802655197E+02  0.23232698426E+02  0.00000000000E+00 0.  1.
</event>
<event>
 7    1  0.2294216E-010  0.4778727E+02  0.7816164E-02  0.1312668E+00
        -11   -1    0    0    0    0  0.00000000000E+00  0.00000000000E+00  0.45593999997E+02  0.45594000000E+02  0.51100000000E-03 0.  1.
         11   -1    0    0    0    0 -0.00000000000E+00 -0.00000000000E+00 -0.45593999997E+02  0.45594000000E+02  0.51100000000E-03 0. -1.
    9900012    2    1    2    0    0  0.11539312710E+02  0.22769566743E+02 -0.35100058506E+02  0.47787274031E+02  0.20000013617E+02 0.  0.
        -12    1    1    2    0    0 -0.11539312710E+02 -0.22769566743E+02  0.35100058506E+02  0.43400725969E+02  0.00000000000E+00 0.  1.
         11    1    3    3    0    0  0.77642183397E+01  0.53749758358E+01 -0.13219989775E+02  0.16246279007E+02  0.51100000000E-03 0. -1.
        -11    1    3    3    0    0  0.91500658350E+01  0.11077432284E+02 -0.14920137822E+02  0.20713370650E+02  0.51100000000E-03 0.  1.
        -12    1    3    3    0    0 -0.53749714651E+01  0.63171586236E+01 -0.69599309088E+01  0.10827624374E+02  0.00000000000E+00 0.  1.
</event>
<event>
 7    1  0.2294216E-010  0.4778727E+02  0.7816164E-02  0.1312668E+00
        -11   -1    0    0    0    0  0.00000000000E+00  0.00000000000E+00  0.45593999997E+02  0.45594000000E+02  0.51100000000E-03 0. -1.
         11   -1    0    0    0    0 -0.00000000000E+00 -0.00000000000E+00 -0.45593999997E+02  0.45594000000E+02  0.51100000000E-03 0.  1.
    9900012    2    1    2    0    0  0.17119760944E+02  0.39246705709E+02  0.70875306627E+01  0.47787271726E+02  0.20000003109E+02 0.  0.
        -12    1    1    2    0    0 -0.17119760944E+02 -0.39246705709E+02 -0.70875306627E+01  0.43400728274E+02  0.00000000000E+00 0.  1.
         11    1    3    3    0    0  0.10978640625E+02  0.11311408284E+02  0.58863497873E+01  0.16826396567E+02  0.51100000000E-03 0. -1.
        -11    1    3    3    0    0  0.76305322984E+01  0.16440130095E+02  0.49325248750E+01  0.18783841529E+02  0.51100000000E-03 0.  1.
        -12    1    3    3    0    0 -0.14894119796E+01  0.11495167330E+02 -0.37313439995E+01  0.12177033630E+02  0.00000000000E+00 0.  1.
</event>
<event>
 7    1  0.2294216E-010  0.4778726E+02  0.7816164E-02  0.1312668E+00
        -11   -1    0    0    0    0  0.00000000000E+00  0.00000000000E+00  0.45593999997E+02  0.45594000000E+02  0.51100000000E-03 0.  1.
         11   -1    0    0    0    0 -0.00000000000E+00 -0.00000000000E+00 -0.45593999997E+02  0.45594000000E+02  0.51100000000E-03 0. -1.
    9900012    2    1    2    0    0  0.35794983579E+02 -0.15102223337E+00 -0.24542214992E+02  0.47787262980E+02  0.19999963232E+02 0.  0.
        -12    1    1    2    0    0 -0.35794983579E+02  0.15102223337E+00  0.24542214992E+02  0.43400737020E+02  0.00000000000E+00 0.  1.
         11    1    3    3    0    0  0.24535141453E+02 -0.22868399812E+01 -0.25444928936E+02  0.35420999591E+02  0.51100000000E-03 0. -1.
        -11    1    3    3    0    0  0.40907565326E+00  0.11069274932E+01  0.87109737868E+00  0.14667795572E+01  0.51100000000E-03 0.  1.
         12    1    3    3    0    0  0.10850766473E+02  0.10288902546E+01  0.31616564579E-01  0.10899483832E+02  0.00000000000E+00 0. -1.
</event>
<event>
 7    1  0.2294216E-010  0.4778727E+02  0.7816164E-02  0.1312668E+00
        -11   -1    0    0    0    0  0.00000000000E+00  0.00000000000E+00  0.45593999997E+02  0.45594000000E+02  0.51100000000E-03 0. -1.
         11   -1    0    0    0    0 -0.00000000000E+00 -0.00000000000E+00 -0.45593999997E+02  0.45594000000E+02  0.51100000000E-03 0.  1.
    9900012    2    1    2    0    0  0.31884206501E+02 -0.22622711517E+02 -0.18847641572E+02  0.47787270820E+02  0.19999998975E+02 0.  0.
        -12    1    1    2    0    0 -0.31884206501E+02  0.22622711517E+02  0.18847641572E+02  0.43400729180E+02  0.00000000000E+00 0.  1.
         11    1    3    3    0    0  0.68929903421E+01 -0.25720674466E+01 -0.29285008025E+01  0.79186466026E+01  0.51100000000E-03 0. -1.
        -11    1    3    3    0    0 -0.20740846428E+01 -0.51919695448E+01 -0.14802831591E+01  0.57835640700E+01  0.51100000000E-03 0.  1.
        -12    1    3    3    0    0  0.27065300802E+02 -0.14858674526E+02 -0.14438857610E+02  0.34085060147E+02  0.00000000000E+00 0.  1.
</event>
<event>
 7    1  0.2294216E-010  0.4778728E+02  0.7816164E-02  0.1312668E+00
        -11   -1    0    0    0    0  0.00000000000E+00  0.00000000000E+00  0.45593999997E+02  0.45594000000E+02  0.51100000000E-03 0.  1.
         11   -1    0    0    0    0 -0.00000000000E+00 -0.00000000000E+00 -0.45593999997E+02  0.45594000000E+02  0.51100000000E-03 0. -1.
    9900012    2    1    2    0    0 -0.42588791380E+02  0.57954479925E+01 -0.60191688500E+01  0.47787276938E+02  0.20000026872E+02 0.  0.
        -12    1    1    2    0    0  0.42588791380E+02 -0.57954479925E+01  0.60191688500E+01  0.43400723062E+02  0.00000000000E+00 0.  1.
         11    1    3    3    0    0 -0.77396531494E+01  0.34731216200E+01  0.90054213917E+00  0.85308722336E+01  0.51100000000E-03 0.  1.
        -11    1    3    3    0    0 -0.11568750352E+02 -0.33038558130E+00  0.54143214963E+01  0.12777324323E+02  0.51100000000E-03 0. -1.
         12    1    3    3    0    0 -0.23280387879E+02  0.26527119537E+01 -0.12334032486E+02  0.26479080381E+02  0.00000000000E+00 0. -1.
</event>
<event>
 7    1  0.2294216E-010  0.4778727E+02  0.7816164E-02  0.1312668E+00
        -11   -1    0    0    0    0  0.00000000000E+00  0.00000000000E+00  0.45593999997E+02  0.45594000000E+02  0.51100000000E-03 0.  1.
         11   -1    0    0    0    0 -0.00000000000E+00 -0.00000000000E+00 -0.45593999997E+02  0.45594000000E+02  0.51100000000E-03 0. -1.
    9900012    2    1    2    0    0  0.32364439905E+02 -0.28745674524E+02  0.31388515080E+01  0.47787272322E+02  0.20000005827E+02 0.  0.
        -12    1    1    2    0    0 -0.32364439905E+02  0.28745674524E+02 -0.31388515080E+01  0.43400727678E+02  0.00000000000E+00 0.  1.
         11    1    3    3    0    0  0.24256615242E+02 -0.15928256644E+02  0.19008965937E+01  0.29081027335E+02  0.51100000000E-03 0. -1.
        -11    1    3    3    0    0  0.47207424048E+01 -0.32142283057E+01 -0.42683008030E+01  0.71298712793E+01  0.51100000000E-03 0.  1.
         12    1    3    3    0    0  0.33870822576E+01 -0.96031895739E+01  0.55062557173E+01  0.11576373708E+02  0.00000000000E+00 0. -1.
</event>
<event>
 7    1  0.2294216E-010  0.4778724E+02  0.7816164E-02  0.1312668E+00
        -11   -1    0    0    0    0  0.00000000000E+00  0.00000000000E+00  0.45593999997E+02  0.45594000000E+02  0.51100000000E-03 0. -1.
         11   -1    0    0    0    0 -0.00000000000E+00 -0.00000000000E+00 -0.45593999997E+02  0.45594000000E+02  0.51100000000E-03 0.  1.
    9900012    2    1    2    0    0  0.38148306021E+02 -0.33939131243E+01  0.20416019582E+02  0.47787242470E+02  0.19999869717E+02 0.  0.
        -12    1    1    2    0    0 -0.38148306021E+02  0.33939131243E+01 -0.20416019582E+02  0.43400757530E+02  0.00000000000E+00 0.  1.
         11    1    3    3    0    0  0.12888605988E+02  0.46380107877E+00  0.23080290652E+01  0.13101842396E+02  0.51100000000E-03 0. -1.
        -11    1    3    3    0    0  0.21680786319E+02 -0.58105693419E+01  0.80725792322E+01  0.23853422128E+02  0.51100000000E-03 0.  1.
        -12    1    3    3    0    0  0.35789137148E+01  0.19528551388E+01  0.10035411285E+02  0.10831977946E+02  0.00000000000E+00 0.  1.
</event>
<event>
 7    1  0.2294216E-010  0.4778727E+02  0.7816164E-02  0.1312668E+00
        -11   -1    0    0    0    0  0.00000000000E+00  0.00000000000E+00  0.45593999997E+02  0.45594000000E+02  0.51100000000E-03 0.  1.
         11   -1    0    0    0    0 -0.00000000000E+00 -0.00000000000E+00 -0.45593999997E+02  0.45594000000E+02  0.51100000000E-03 0. -1.
    9900012    2    1    2    0    0 -0.17697507396E+02  0.24303965273E+02 -0.31300779208E+02  0.47787271031E+02  0.19999999937E+02 0.  0.
        -12    1    1    2    0    0  0.17697507396E+02 -0.24303965273E+02  0.31300779208E+02  0.43400728969E+02  0.00000000000E+00 0.  1.
         11    1    3    3    0    0 -0.56864109976E+01 -0.19627765873E+00 -0.36742741871E+01  0.67730411202E+01  0.51100000000E-03 0. -1.
        -11    1    3    3    0    0 -0.38015925249E+00  0.71976829340E+01 -0.11249877708E+01  0.72949817287E+01  0.51100000000E-03 0.  1.
         12    1    3    3    0    0 -0.11630937146E+02  0.17302559998E+02 -0.26501517250E+02  0.33719248182E+02  0.00000000000E+00 0. -1.
</event>
<event>
 7    1  0.2294216E-010  0.4778727E+02  0.7816164E-02  0.1312668E+00
        -11   -1    0    0    0    0  0.00000000000E+00  0.00000000000E+00  0.45593999997E+02  0.45594000000E+02  0.51100000000E-03 0. -1.
         11   -1    0    0    0    0 -0.00000000000E+00 -0.00000000000E+00 -0.45593999997E+02  0.45594000000E+02  0.51100000000E-03 0.  1.
    9900012    2    1    2    0    0 -0.27702011238E+02  0.26532121803E+02 -0.20304396645E+02  0.47787269163E+02  0.19999991424E+02 0.  0.
        -12    1    1    2    0    0  0.27702011238E+02 -0.26532121803E+02  0.20304396645E+02  0.43400730837E+02  0.00000000000E+00 0.  1.
         11    1    3    3    0    0 -0.10565831571E+02  0.12468426775E+02 -0.12588888857E+02  0.20629556126E+02  0.51100000000E-03 0. -1.
        -11    1    3    3    0    0  0.33989233972E+00 -0.12871736301E+01 -0.31957004723E+01  0.34619134199E+01  0.51100000000E-03 0.  1.
         12    1    3    3    0    0 -0.17476072007E+02  0.15350868658E+02 -0.45198073158E+01  0.23695799618E+02  0.00000000000E+00 0. -1.
</event>
<event>
 7    1  0.2294216E-010  0.4778727E+02  0.7816164E-02  0.1312668E+00
        -11   -1    0    0    0    0  0.00000000000E+00  0.00000000000E+00  0.45593999997E+02  0.45594000000E+02  0.51100000000E-03 0. -1.
         11   -1    0    0    0    0 -0.00000000000E+00 -0.00000000000E+00 -0.45593999997E+02  0.45594000000E+02  0.51100000000E-03 0.  1.
    9900012    2    1    2    0    0  0.68957388630E+01  0.64460506644E+01  0.42361782747E+02  0.47787269348E+02  0.19999992265E+02 0.  0.
        -12    1    1    2    0    0 -0.68957388630E+01 -0.64460506644E+01 -0.42361782747E+02  0.43400730652E+02  0.00000000000E+00 0.  1.
         11    1    3    3    0    0  0.24547946211E+01 -0.27994498574E+01  0.34450202008E+01  0.50725832256E+01  0.51100000000E-03 0. -1.
        -11    1    3    3    0    0 -0.18056048684E+01 -0.24041593751E+01  0.23016044470E+01  0.37864989811E+01  0.51100000000E-03 0.  1.
         12    1    3    3    0    0  0.62465491103E+01  0.11649659897E+02  0.36615158099E+02  0.38928187141E+02  0.00000000000E+00 0. -1.
</event>
<event>
 7    1  0.2294216E-010  0.4778727E+02  0.7816164E-02  0.1312668E+00
        -11   -1    0    0    0    0  0.00000000000E+00  0.00000000000E+00  0.45593999997E+02  0.45594000000E+02  0.51100000000E-03 0. -1.
         11   -1    0    0    0    0 -0.00000000000E+00 -0.00000000000E+00 -0.45593999997E+02  0.45594000000E+02  0.51100000000E-03 0.  1.
    9900012    2    1    2    0    0  0.25611619184E+02  0.88162022269E+01  0.33910807771E+02  0.47787270253E+02  0.19999996390E+02 0.  0.
        -12    1    1    2    0    0 -0.25611619184E+02 -0.88162022269E+01 -0.33910807771E+02  0.43400729747E+02  0.00000000000E+00 0.  1.
         11    1    3    3    0    0  0.11294102115E+02  0.64777901870E+01  0.83765148287E+01  0.15481747615E+02  0.51100000000E-03 0. -1.
        -11    1    3    3    0    0 -0.27234111942E+00  0.26225681956E+01 -0.28067076696E+00  0.26515674546E+01  0.51100000000E-03 0.  1.
         12    1    3    3    0    0  0.14589858189E+02 -0.28415615569E+00  0.25814963709E+02  0.29653955183E+02  0.00000000000E+00 0. -1.
</event>
<event>
 7    1  0.2294216E-010  0.4778726E+02  0.7816164E-02  0.1312668E+00
        -11   -1    0    0    0    0  0.00000000000E+00  0.00000000000E+00  0.45593999997E+02  0.45594000000E+02  0.51100000000E-03 0. -1.
         11   -1    0    0    0    0 -0.00000000000E+00 -0.00000000000E+00 -0.45593999997E+02  0.45594000000E+02  0.51100000000E-03 0.  1.
    9900012    2    1    2    0    0 -0.60300098734E+00  0.43309840555E+02  0.27419946700E+01  0.47787257681E+02  0.19999939070E+02 0.  0.
        -12    1    1    2    0    0  0.60300098734E+00 -0.43309840555E+02 -0.27419946700E+01  0.43400742319E+02  0.00000000000E+00 0.  1.
         11    1    3    3    0    0  0.54184260870E+00  0.12703442645E+02 -0.20549265635E+01  0.12879975616E+02  0.51100000000E-03 0. -1.
        -11    1    3    3    0    0  0.22478483195E+01  0.20150413355E+01 -0.38057075486E+01  0.48576356242E+01  0.51100000000E-03 0.  1.
         12    1    3    3    0    0 -0.33926919156E+01  0.28591356575E+02  0.86026287820E+01  0.30049646440E+02  0.00000000000E+00 0. -1.
</event>
<event>
 7    1  0.2294216E-010  0.4778726E+02  0.7816164E-02  0.1312668E+00
        -11   -1    0    0    0    0  0.00000000000E+00  0.00000000000E+00  0.45593999997E+02  0.45594000000E+02  0.51100000000E-03 0. -1.
         11   -1    0    0    0    0 -0.00000000000E+00 -0.00000000000E+00 -0.45593999997E+02  0.45594000000E+02  0.51100000000E-03 0.  1.
    9900012    2    1    2    0    0 -0.25588909817E+02  0.32059590789E+02  0.14177951585E+02  0.47787262928E+02  0.19999962995E+02 0.  0.
        -12    1    1    2    0    0  0.25588909817E+02 -0.32059590789E+02 -0.14177951585E+02  0.43400737072E+02  0.00000000000E+00 0.  1.
         11    1    3    3    0    0  0.12729190448E+01  0.21517752551E+00 -0.10638933334E+00  0.12953544740E+01  0.51100000000E-03 0. -1.
        -11    1    3    3    0    0 -0.11229779994E+02  0.15998841385E+02  0.14324209936E+02  0.24233321583E+02  0.51100000000E-03 0.  1.
         12    1    3    3    0    0 -0.15632048868E+02  0.15845571879E+02 -0.39869017690E-01  0.22258586871E+02  0.00000000000E+00 0. -1.
</event>
<event>
 7    1  0.2294216E-010  0.4778727E+02  0.7816164E-02  0.1312668E+00
        -11   -1    0    0    0    0  0.00000000000E+00  0.00000000000E+00  0.45593999997E+02  0.45594000000E+02  0.51100000000E-03 0.  1.
         11   -1    0    0    0    0 -0.00000000000E+00 -0.00000000000E+00 -0.45593999997E+02  0.45594000000E+02  0.51100000000E-03 0. -1.
    9900012    2    1    2    0    0 -0.26461527230E+02  0.32973861767E+02 -0.98048779737E+01  0.47787267112E+02  0.19999982069E+02 0.  0.
        -12    1    1    2    0    0  0.26461527230E+02 -0.32973861767E+02  0.98048779737E+01  0.43400732888E+02  0.00000000000E+00 0.  1.
         11    1    3    3    0    0 -0.92093596701E+01  0.22360649227E+02 -0.85783691453E+01  0.25659293771E+02  0.51100000000E-03 0. -1.
        -11    1    3    3    0    0 -0.60659492898E+01  0.79784638671E+01  0.19373878924E+01  0.10208089859E+02  0.51100000000E-03 0.  1.
        -12    1    3    3    0    0 -0.11186218270E+02  0.26347486729E+01 -0.31638967207E+01  0.11919883482E+02  0.00000000000E+00 0.  1.
</event>
<event>
 7    1  0.2294216E-010  0.4778727E+02  0.7816164E-02  0.1312668E+00
        -11   -1    0    0    0    0  0.00000000000E+00  0.00000000000E+00  0.45593999997E+02  0.45594000000E+02  0.51100000000E-03 0. -1.
         11   -1    0    0    0    0 -0.00000000000E+00 -0.00000000000E+00 -0.45593999997E+02  0.45594000000E+02  0.51100000000E-03 0.  1.
    9900012    2    1    2    0    0 -0.20407153827E+01 -0.24505323154E+02  0.35762379972E+02  0.47787271856E+02  0.20000003701E+02 0.  0.
        -12    1    1    2    0    0  0.20407153827E+01  0.24505323154E+02 -0.35762379972E+02  0.43400728144E+02  0.00000000000E+00 0.  1.
         11    1    3    3    0    0  0.35629870598E+00 -0.87340407750E+01  0.18621126731E+02  0.20570774852E+02  0.51100000000E-03 0. -1.
        -11    1    3    3    0    0 -0.66633208766E+01 -0.11417325865E+02  0.16417113212E+02  0.21077874217E+02  0.51100000000E-03 0.  1.
         12    1    3    3    0    0  0.42663067880E+01 -0.43539565146E+01  0.72414002822E+00  0.61386227870E+01  0.00000000000E+00 0. -1.
</event>
<event>
 7    1  0.2294216E-010  0.4778729E+02  0.7816164E-02  0.1312668E+00
        -11   -1    0    0    0    0  0.00000000000E+00  0.00000000000E+00  0.45593999997E+02  0.45594000000E+02  0.51100000000E-03 0.  1.
         11   -1    0    0    0    0 -0.00000000000E+00 -0.00000000000E+00 -0.45593999997E+02  0.45594000000E+02  0.51100000000E-03 0. -1.
    9900012    2    1    2    0    0  0.49402991563E+00 -0.14418549350E+02 -0.40932658894E+02  0.47787294993E+02  0.20000109192E+02 0.  0.
        -12    1    1    2    0    0 -0.49402991563E+00  0.14418549350E+02  0.40932658894E+02  0.43400705007E+02  0.00000000000E+00 0.  1.
         11    1    3    3    0    0  0.42818094652E+01 -0.82529624638E+00 -0.12108441567E+02  0.12869707208E+02  0.51100000000E-03 0. -1.
        -11    1    3    3    0    0  0.29971127193E+01  0.10902316632E+01 -0.75220138843E+01  0.81701886678E+01  0.51100000000E-03 0.  1.
        -12    1    3    3    0    0 -0.67848922689E+01 -0.14683484767E+02 -0.21302203443E+02  0.26747399117E+02  0.00000000000E+00 0.  1.
</event>
<event>
 7    1  0.2294216E-010  0.4778727E+02  0.7816164E-02  0.1312668E+00
        -11   -1    0    0    0    0  0.00000000000E+00  0.00000000000E+00  0.45593999997E+02  0.45594000000E+02  0.51100000000E-03 0.  1.
         11   -1    0    0    0    0 -0.00000000000E+00 -0.00000000000E+00 -0.45593999997E+02  0.45594000000E+02  0.51100000000E-03 0. -1.
    9900012    2    1    2    0    0 -0.30720061571E+02  0.21163305967E+01 -0.30584672986E+02  0.47787271206E+02  0.20000000739E+02 0.  0.
        -12    1    1    2    0    0  0.30720061571E+02 -0.21163305967E+01  0.30584672986E+02  0.43400728794E+02  0.00000000000E+00 0.  1.
         11    1    3    3    0    0  0.10489262308E+01 -0.13512475549E+00 -0.17918048770E+01  0.20806417076E+01  0.51100000000E-03 0.  1.
        -11    1    3    3    0    0 -0.71029702143E+01 -0.38441088748E+01 -0.14386619158E+02  0.16498611152E+02  0.51100000000E-03 0. -1.
         12    1    3    3    0    0 -0.24666017588E+02  0.60955642270E+01 -0.14406248952E+02  0.29208018347E+02  0.00000000000E+00 0. -1.
</event>
<event>
 7    1  0.2294216E-010  0.4778728E+02  0.7816164E-02  0.1312668E+00
        -11   -1    0    0    0    0  0.00000000000E+00  0.00000000000E+00  0.45593999997E+02  0.45594000000E+02  0.51100000000E-03 0.  1.
         11   -1    0    0    0    0 -0.00000000000E+00 -0.00000000000E+00 -0.45593999997E+02  0.45594000000E+02  0.51100000000E-03 0. -1.
    9900012    2    1    2    0    0 -0.40658954144E+02  0.71872735297E+01 -0.13372183489E+02  0.47787277147E+02  0.20000027825E+02 0.  0.
        -12    1    1    2    0    0  0.40658954144E+02 -0.71872735297E+01  0.13372183489E+02  0.43400722853E+02  0.00000000000E+00 0.  1.
         11    1    3    3    0    0 -0.30913803456E+01 -0.24914296874E+01 -0.12959369006E+01  0.41765185310E+01  0.51100000000E-03 0. -1.
        -11    1    3    3    0    0 -0.33757137812E+01 -0.51758819934E+00  0.33089252426E+01  0.47552421178E+01  0.51100000000E-03 0.  1.
         12    1    3    3    0    0 -0.34191860017E+02  0.10196291416E+02 -0.15385171831E+02  0.38855516498E+02  0.00000000000E+00 0. -1.
</event>
<event>
 7    1  0.2294216E-010  0.4778727E+02  0.7816164E-02  0.1312668E+00
        -11   -1    0    0    0    0  0.00000000000E+00  0.00000000000E+00  0.45593999997E+02  0.45594000000E+02  0.51100000000E-03 0. -1.
         11   -1    0    0    0    0 -0.00000000000E+00 -0.00000000000E+00 -0.45593999997E+02  0.45594000000E+02  0.51100000000E-03 0.  1.
    9900012    2    1    2    0    0 -0.36766093838E+02  0.21945955640E+02 -0.70889054693E+01  0.47787271828E+02  0.20000003574E+02 0.  0.
        -12    1    1    2    0    0  0.36766093838E+02 -0.21945955640E+02  0.70889054693E+01  0.43400728172E+02  0.00000000000E+00 0.  1.
         11    1    3    3    0    0  0.95485321063E+00  0.15241122686E+01  0.10540952713E+01  0.20846534396E+01  0.51100000000E-03 0. -1.
        -11    1    3    3    0    0 -0.24987722564E+01  0.82596741298E-01 -0.41358238003E+01  0.48327759910E+01  0.51100000000E-03 0.  1.
         12    1    3    3    0    0 -0.35222174793E+02  0.20339246630E+02 -0.40071769403E+01  0.40869842398E+02  0.00000000000E+00 0. -1.
</event>
<event>
 7    1  0.2294216E-010  0.4778726E+02  0.7816164E-02  0.1312668E+00
        -11   -1    0    0    0    0  0.00000000000E+00  0.00000000000E+00  0.45593999997E+02  0.45594000000E+02  0.51100000000E-03 0.  1.
         11   -1    0    0    0    0 -0.00000000000E+00 -0.00000000000E+00 -0.45593999997E+02  0.45594000000E+02  0.51100000000E-03 0. -1.
    9900012    2    1    2    0    0  0.61886955061E+01 -0.23098464537E+02 -0.36218570100E+02  0.47787264566E+02  0.19999970464E+02 0.  0.
        -12    1    1    2    0    0 -0.61886955061E+01  0.23098464537E+02  0.36218570100E+02  0.43400735434E+02  0.00000000000E+00 0.  1.
         11    1    3    3    0    0  0.52629118806E+01 -0.28618631333E+01 -0.45476236270E+01  0.75212620597E+01  0.51100000000E-03 0. -1.
        -11    1    3    3    0    0  0.10265728596E+01 -0.12856366866E+02 -0.73389058707E+01  0.14839122631E+02  0.51100000000E-03 0.  1.
         12    1    3    3    0    0 -0.10078923417E+00 -0.73802345383E+01 -0.24332040603E+02  0.25426879876E+02  0.00000000000E+00 0. -1.
</event>
<event>
 7    1  0.2294216E-010  0.4778723E+02  0.7816164E-02  0.1312668E+00
        -11   -1    0    0    0    0  0.00000000000E+00  0.00000000000E+00  0.45593999997E+02  0.45594000000E+02  0.51100000000E-03 0. -1.
         11   -1    0    0    0    0 -0.00000000000E+00 -0.00000000000E+00 -0.45593999997E+02  0.45594000000E+02  0.51100000000E-03 0.  1.
    9900012    2    1    2    0    0  0.30164438992E+02  0.30555099609E+02  0.63339749879E+01  0.47787231217E+02  0.19999818408E+02 0.  0.
        -12    1    1    2    0    0 -0.30164438992E+02 -0.30555099609E+02 -0.63339749879E+01  0.43400768783E+02  0.00000000000E+00 0.  1.
         11    1    3    3    0    0  0.85274871049E+00  0.37209942440E+01  0.34013391529E+01  0.51129332894E+01  0.51100000000E-03 0. -1.
        -11    1    3    3    0    0  0.17582371627E+02  0.73604211123E+01  0.53908726101E+01  0.19808510766E+02  0.51100000000E-03 0.  1.
         12    1    3    3    0    0  0.11729318654E+02  0.19473684253E+02 -0.24582367751E+01  0.22865787162E+02  0.00000000000E+00 0. -1.
</event>
<event>
 7    1  0.2294216E-010  0.4778727E+02  0.7816164E-02  0.1312668E+00
        -11   -1    0    0    0    0  0.00000000000E+00  0.00000000000E+00  0.45593999997E+02  0.45594000000E+02  0.51100000000E-03 0.  1.
         11   -1    0    0    0    0 -0.00000000000E+00 -0.00000000000E+00 -0.45593999997E+02  0.45594000000E+02  0.51100000000E-03 0. -1.
    9900012    2    1    2    0    0  0.27568649584E+02  0.32960799041E+02  0.60973986512E+01  0.47787274388E+02  0.20000015246E+02 0.  0.
        -12    1    1    2    0    0 -0.27568649584E+02 -0.32960799041E+02 -0.60973986512E+01  0.43400725612E+02  0.00000000000E+00 0.  1.
         11    1    3    3    0    0  0.21780350615E+02  0.29094781554E+02  0.70667248009E+01  0.37024702379E+02  0.51100000000E-03 0. -1.
        -11    1    3    3    0    0  0.36006838364E+01  0.36870055142E+01  0.31890662999E+01  0.60604519533E+01  0.51100000000E-03 0.  1.
        -12    1    3    3    0    0  0.21876151328E+01  0.17901197259E+00 -0.41583924496E+01  0.47021200560E+01  0.00000000000E+00 0.  1.
</event>
<event>
 7    1  0.2294216E-010  0.4778727E+02  0.7816164E-02  0.1312668E+00
        -11   -1    0    0    0    0  0.00000000000E+00  0.00000000000E+00  0.45593999997E+02  0.45594000000E+02  0.51100000000E-03 0.  1.
         11   -1    0    0    0    0 -0.00000000000E+00 -0.00000000000E+00 -0.45593999997E+02  0.45594000000E+02  0.51100000000E-03 0. -1.
    9900012    2    1    2    0    0  0.19044766567E+02  0.29495043174E+02 -0.25513975601E+02  0.47787266637E+02  0.19999979907E+02 0.  0.
        -12    1    1    2    0    0 -0.19044766567E+02 -0.29495043174E+02  0.25513975601E+02  0.43400733363E+02  0.00000000000E+00 0.  1.
         11    1    3    3    0    0 -0.93773537760E+00  0.53553961102E+01 -0.42263795326E+01  0.68863560284E+01  0.51100000000E-03 0.  1.
        -11    1    3    3    0    0  0.88342232937E+01  0.20532417732E+02 -0.18089225140E+02  0.28754890811E+02  0.51100000000E-03 0. -1.
        -12    1    3    3    0    0  0.11148278651E+02  0.36072293322E+01 -0.31983709279E+01  0.12146019798E+02  0.00000000000E+00 0.  1.
</event>
<event>
 7    1  0.2294216E-010  0.4778727E+02  0.7816164E-02  0.1312668E+00
        -11   -1    0    0    0    0  0.00000000000E+00  0.00000000000E+00  0.45593999997E+02  0.45594000000E+02  0.51100000000E-03 0.  1.
         11   -1    0    0    0    0 -0.00000000000E+00 -0.00000000000E+00 -0.45593999997E+02  0.45594000000E+02  0.51100000000E-03 0. -1.
    9900012    2    1    2    0    0 -0.19655260726E+02  0.14757812785E+02 -0.35770114585E+02  0.47787269478E+02  0.19999992857E+02 0.  0.
        -12    1    1    2    0    0  0.19655260726E+02 -0.14757812785E+02  0.35770114585E+02  0.43400730522E+02  0.00000000000E+00 0.  1.
         11    1    3    3    0    0 -0.12883902175E+01  0.10218382013E+01 -0.48013772317E+01  0.50751676075E+01  0.51100000000E-03 0. -1.
        -11    1    3    3    0    0 -0.41902111623E+01  0.23597320442E+01 -0.21856204252E+02  0.22379005105E+02  0.51100000000E-03 0.  1.
         12    1    3    3    0    0 -0.14176659346E+02  0.11376242539E+02 -0.91125331015E+01  0.20333096765E+02  0.00000000000E+00 0. -1.
</event>
<event>
 7    1  0.2294216E-010  0.4778727E+02  0.7816164E-02  0.1312668E+00
        -11   -1    0    0    0    0  0.00000000000E+00  0.00000000000E+00  0.45593999997E+02  0.45594000000E+02  0.51100000000E-03 0.  1.
         11   -1    0    0    0    0 -0.00000000000E+00 -0.00000000000E+00 -0.45593999997E+02  0.45594000000E+02  0.51100000000E-03 0. -1.
    9900012    2    1    2    0    0 -0.18668783121E+02  0.36530005576E+02  0.14165386786E+02  0.47787274737E+02  0.20000016836E+02 0.  0.
        -12    1    1    2    0    0  0.18668783121E+02 -0.36530005576E+02 -0.14165386786E+02  0.43400725263E+02  0.00000000000E+00 0.  1.
         11    1    3    3    0    0 -0.12528905602E+02  0.15591881523E+02  0.83358940801E+01  0.21669503349E+02  0.51100000000E-03 0. -1.
        -11    1    3    3    0    0 -0.11403649591E+01  0.20110911747E+02  0.60896910455E+01  0.21043610452E+02  0.51100000000E-03 0.  1.
         12    1    3    3    0    0 -0.49995125600E+01  0.82721230548E+00 -0.26019833980E+00  0.50741609368E+01  0.00000000000E+00 0. -1.
</event>
<event>
 7    1  0.2294216E-010  0.4778727E+02  0.7816164E-02  0.1312668E+00
        -11   -1    0    0    0    0  0.00000000000E+00  0.00000000000E+00  0.45593999997E+02  0.45594000000E+02  0.51100000000E-03 0.  1.
         11   -1    0    0    0    0 -0.00000000000E+00 -0.00000000000E+00 -0.45593999997E+02  0.45594000000E+02  0.51100000000E-03 0. -1.
    9900012    2    1    2    0    0 -0.23989809683E+02 -0.24174750810E+01 -0.36086950771E+02  0.47787272237E+02  0.20000005437E+02 0.  0.
        -12    1    1    2    0    0  0.23989809683E+02  0.24174750810E+01  0.36086950771E+02  0.43400727763E+02  0.00000000000E+00 0.  1.
         11    1    3    3    0    0 -0.13409937069E+02 -0.48606295995E+01 -0.14644849208E+02  0.20443183238E+02  0.51100000000E-03 0. -1.
        -11    1    3    3    0    0 -0.38105482016E+01 -0.49352090881E+01 -0.45929539865E+01  0.77441457194E+01  0.51100000000E-03 0.  1.
        -12    1    3    3    0    0 -0.67693244129E+01  0.73783636066E+01 -0.16849147577E+02  0.19599943280E+02  0.00000000000E+00 0.  1.
</event>
<event>
 7    1  0.2294216E-010  0.4778727E+02  0.7816164E-02  0.1312668E+00
        -11   -1    0    0    0    0  0.00000000000E+00  0.00000000000E+00  0.45593999997E+02  0.45594000000E+02  0.51100000000E-03 0.  1.
         11   -1    0    0    0    0 -0.00000000000E+00 -0.00000000000E+00 -0.45593999997E+02  0.45594000000E+02  0.51100000000E-03 0. -1.
    9900012    2    1    2    0    0  0.61744247644E+01 -0.38481324980E+02 -0.19096793188E+02  0.47787269552E+02  0.19999993196E+02 0.  0.
        -12    1    1    2    0    0 -0.61744247644E+01  0.38481324980E+02  0.19096793188E+02  0.43400730448E+02  0.00000000000E+00 0.  1.
         11    1    3    3    0    0 -0.10887389820E+00 -0.28156952725E+02 -0.14324515384E+02  0.31591416263E+02  0.51100000000E-03 0. -1.
        -11    1    3    3    0    0  0.14399006941E+01 -0.98342193710E+01 -0.90804921848E+00  0.99804678392E+01  0.51100000000E-03 0.  1.
        -12    1    3    3    0    0  0.48433979684E+01 -0.49015288370E+00 -0.38642285852E+01  0.62153854498E+01  0.00000000000E+00 0.  1.
</event>
<event>
 7    1  0.2294216E-010  0.4778726E+02  0.7816164E-02  0.1312668E+00
        -11   -1    0    0    0    0  0.00000000000E+00  0.00000000000E+00  0.45593999997E+02  0.45594000000E+02  0.51100000000E-03 0.  1.
         11   -1    0    0    0    0 -0.00000000000E+00 -0.00000000000E+00 -0.45593999997E+02  0.45594000000E+02  0.51100000000E-03 0. -1.
    9900012    2    1    2    0    0  0.22040065044E+02 -0.30596048773E+02  0.21488174102E+02  0.47787259294E+02  0.19999946423E+02 0.  0.
        -12    1    1    2    0    0 -0.22040065044E+02  0.30596048773E+02 -0.21488174102E+02  0.43400740706E+02  0.00000000000E+00 0.  1.
         11    1    3    3    0    0  0.14830720950E+02 -0.15644868486E+02  0.23001273541E+01  0.21679547503E+02  0.51100000000E-03 0.  1.
        -11    1    3    3    0    0  0.16503333735E+01 -0.26688211139E+01  0.68123332149E+00  0.32109633261E+01  0.51100000000E-03 0. -1.
         12    1    3    3    0    0  0.55590107204E+01 -0.12282359173E+02  0.18506813426E+02  0.22896748464E+02  0.00000000000E+00 0. -1.
</event>
<event>
 7    1  0.2294216E-010  0.4778728E+02  0.7816164E-02  0.1312668E+00
        -11   -1    0    0    0    0  0.00000000000E+00  0.00000000000E+00  0.45593999997E+02  0.45594000000E+02  0.51100000000E-03 0. -1.
         11   -1    0    0    0    0 -0.00000000000E+00 -0.00000000000E+00 -0.45593999997E+02  0.45594000000E+02  0.51100000000E-03 0.  1.
    9900012    2    1    2    0    0  0.41589903872E+02 -0.11850993612E+02 -0.36683463105E+01  0.47787275141E+02  0.20000018677E+02 0.  0.
        -12    1    1    2    0    0 -0.41589903872E+02  0.11850993612E+02  0.36683463105E+01  0.43400724859E+02  0.00000000000E+00 0.  1.
         11    1    3    3    0    0  0.25007848583E+02 -0.80618525932E+01 -0.26859655676E+01  0.26412125421E+02  0.51100000000E-03 0. -1.
        -11    1    3    3    0    0  0.16454499614E+02 -0.55967773408E+01  0.23928372110E+01  0.17544233933E+02  0.51100000000E-03 0.  1.
        -12    1    3    3    0    0  0.12755567563E+00  0.18076363223E+01 -0.33752179538E+01  0.38309157860E+01  0.00000000000E+00 0.  1.
</event>
<event>
 7    1  0.2294216E-010  0.4778728E+02  0.7816164E-02  0.1312668E+00
        -11   -1    0    0    0    0  0.00000000000E+00  0.00000000000E+00  0.45593999997E+02  0.45594000000E+02  0.51100000000E-03 0.  1.
         11   -1    0    0    0    0 -0.00000000000E+00 -0.00000000000E+00 -0.45593999997E+02  0.45594000000E+02  0.51100000000E-03 0. -1.
    9900012    2    1    2    0    0 -0.28731851169E+02  0.67350970885E+01 -0.31823606848E+02  0.47787276996E+02  0.20000027137E+02 0.  0.
        -12    1    1    2    0    0  0.28731851169E+02 -0.67350970885E+01  0.31823606848E+02  0.43400723004E+02  0.00000000000E+00 0.  1.
         11    1    3    3    0    0 -0.13619251523E+02 -0.24525238825E+01 -0.67270765444E+01  0.15386761990E+02  0.51100000000E-03 0. -1.
        -11    1    3    3    0    0  0.14532738566E+01  0.17351513119E+01 -0.36521344861E+01  0.42966081440E+01  0.51100000000E-03 0.  1.
        -12    1    3    3    0    0 -0.16565873503E+02  0.74524696591E+01 -0.21444395818E+02  0.28103906863E+02  0.00000000000E+00 0.  1.
</event>
<event>
 7    1  0.2294216E-010  0.4778727E+02  0.7816164E-02  0.1312668E+00
        -11   -1    0    0    0    0  0.00000000000E+00  0.00000000000E+00  0.45593999997E+02  0.45594000000E+02  0.51100000000E-03 0.  1.
         11   -1    0    0    0    0 -0.00000000000E+00 -0.00000000000E+00 -0.45593999997E+02  0.45594000000E+02  0.51100000000E-03 0. -1.
    9900012    2    1    2    0    0  0.33517479761E+02 -0.21414888433E+02  0.17366765903E+02  0.47787268969E+02  0.19999990538E+02 0.  0.
        -12    1    1    2    0    0 -0.33517479761E+02  0.21414888433E+02 -0.17366765903E+02  0.43400731031E+02  0.00000000000E+00 0.  1.
         11    1    3    3    0    0  0.10527509565E+02 -0.89075566264E+01  0.10228920319E+02  0.17169852471E+02  0.51100000000E-03 0. -1.
        -11    1    3    3    0    0  0.10929832684E+02 -0.98378345080E+01  0.10193798336E+02  0.17892952666E+02  0.51100000000E-03 0.  1.
         12    1    3    3    0    0  0.12060137511E+02 -0.26694972983E+01 -0.30559527526E+01  0.12724463833E+02  0.00000000000E+00 0. -1.
</event>
<event>
 7    1  0.2294216E-010  0.4778727E+02  0.7816164E-02  0.1312668E+00
        -11   -1    0    0    0    0  0.00000000000E+00  0.00000000000E+00  0.45593999997E+02  0.45594000000E+02  0.51100000000E-03 0. -1.
         11   -1    0    0    0    0 -0.00000000000E+00 -0.00000000000E+00 -0.45593999997E+02  0.45594000000E+02  0.51100000000E-03 0.  1.
    9900012    2    1    2    0    0  0.31703348970E+02 -0.27305850979E+02 -0.11528729486E+02  0.47787269163E+02  0.19999991422E+02 0.  0.
        -12    1    1    2    0    0 -0.31703348970E+02  0.27305850979E+02  0.11528729486E+02  0.43400730837E+02  0.00000000000E+00 0.  1.
         11    1    3    3    0    0  0.12918529052E+02 -0.11867923366E+02  0.28035656585E+01  0.17765021208E+02  0.51100000000E-03 0. -1.
        -11    1    3    3    0    0  0.67146331082E+01  0.61259391457E-01 -0.41747582048E+01  0.79068740233E+01  0.51100000000E-03 0.  1.
        -12    1    3    3    0    0  0.12070186810E+02 -0.15499187005E+02 -0.10157536940E+02  0.22115373931E+02  0.00000000000E+00 0.  1.
</event>
<event>
 7    1  0.2294216E-010  0.4778727E+02  0.7816164E-02  0.1312668E+00
        -11   -1    0    0    0    0  0.00000000000E+00  0.00000000000E+00  0.45593999997E+02  0.45594000000E+02  0.51100000000E-03 0.  1.
         11   -1    0    0    0    0 -0.00000000000E+00 -0.00000000000E+00 -0.45593999997E+02  0.45594000000E+02  0.51100000000E-03 0. -1.
    9900012    2    1    2    0    0 -0.13467580071E+02 -0.24842407373E+02 -0.32940894649E+02  0.47787268931E+02  0.19999990365E+02 0.  0.
        -12    1    1    2    0    0  0.13467580071E+02  0.24842407373E+02  0.32940894649E+02  0.43400731069E+02  0.00000000000E+00 0.  1.
         11    1    3    3    0    0 -0.50369695717E+01 -0.92281358647E+01 -0.64954937621E+01  0.12358033560E+02  0.51100000000E-03 0. -1.
        -11    1    3    3    0    0 -0.12472536506E+01 -0.98569571047E+00  0.20551192671E+01  0.25982211541E+01  0.51100000000E-03 0.  1.
         12    1    3    3    0    0 -0.71833568488E+01 -0.14628575798E+02 -0.28500520154E+02  0.32831014217E+02  0.00000000000E+00 0. -1.
</event>
<event>
 7    1  0.2294216E-010  0.4778727E+02  0.7816164E-02  0.1312668E+00
        -11   -1    0    0    0    0  0.00000000000E+00  0.00000000000E+00  0.45593999997E+02  0.45594000000E+02  0.51100000000E-03 0. -1.
         11   -1    0    0    0    0 -0.00000000000E+00 -0.00000000000E+00 -0.45593999997E+02  0.45594000000E+02  0.51100000000E-03 0.  1.
    9900012    2    1    2    0    0 -0.21898978654E+02  0.37366624294E+02  0.27917102727E+01  0.47787268169E+02  0.19999986892E+02 0.  0.
        -12    1    1    2    0    0  0.21898978654E+02 -0.37366624294E+02 -0.27917102727E+01  0.43400731831E+02  0.00000000000E+00 0.  1.
         11    1    3    3    0    0 -0.85146401831E+00  0.94106948897E+01 -0.47308252372E+01  0.10567254940E+02  0.51100000000E-03 0.  1.
        -11    1    3    3    0    0 -0.53512147183E+01  0.14144815812E+02  0.38596294821E+00  0.15128128799E+02  0.51100000000E-03 0. -1.
         12    1    3    3    0    0 -0.15696299917E+02  0.13811113592E+02  0.71365725617E+01  0.22091884430E+02  0.00000000000E+00 0. -1.
</event>
<event>
 7    1  0.2294216E-010  0.4778727E+02  0.7816164E-02  0.1312668E+00
        -11   -1    0    0    0    0  0.00000000000E+00  0.00000000000E+00  0.45593999997E+02  0.45594000000E+02  0.51100000000E-03 0.  1.
         11   -1    0    0    0    0 -0.00000000000E+00 -0.00000000000E+00 -0.45593999997E+02  0.45594000000E+02  0.51100000000E-03 0. -1.
    9900012    2    1    2    0    0  0.10431120198E+02  0.50005116751E+01 -0.41830729027E+02  0.47787271014E+02  0.19999999859E+02 0.  0.
        -12    1    1    2    0    0 -0.10431120198E+02 -0.50005116751E+01  0.41830729027E+02  0.43400728986E+02  0.00000000000E+00 0.  1.
         11    1    3    3    0    0  0.10366134009E+02 -0.58754055999E+01 -0.18320644974E+02  0.21854591229E+02  0.51100000000E-03 0. -1.
        -11    1    3    3    0    0  0.38288461998E+00  0.21971751374E+01 -0.40724624332E+01  0.46431809945E+01  0.51100000000E-03 0.  1.
         12    1    3    3    0    0 -0.31789843025E+00  0.86787421377E+01 -0.19437621620E+02  0.21289498790E+02  0.00000000000E+00 0. -1.
</event>
<event>
 7    1  0.2294216E-010  0.4778727E+02  0.7816164E-02  0.1312668E+00
        -11   -1    0    0    0    0  0.00000000000E+00  0.00000000000E+00  0.45593999997E+02  0.45594000000E+02  0.51100000000E-03 0.  1.
         11   -1    0    0    0    0 -0.00000000000E+00 -0.00000000000E+00 -0.45593999997E+02  0.45594000000E+02  0.51100000000E-03 0. -1.
    9900012    2    1    2    0    0 -0.13643378534E+01 -0.57900144010E+01 -0.42991132842E+02  0.47787272039E+02  0.20000004534E+02 0.  0.
        -12    1    1    2    0    0  0.13643378534E+01  0.57900144010E+01  0.42991132842E+02  0.43400727961E+02  0.00000000000E+00 0.  1.
         11    1    3    3    0    0 -0.41973287306E+01 -0.11084214775E+02 -0.20917329866E+02  0.24041881679E+02  0.51100000000E-03 0. -1.
        -11    1    3    3    0    0 -0.20654251156E+01  0.17099251529E+01 -0.66457776991E+01  0.71663230756E+01  0.51100000000E-03 0.  1.
        -12    1    3    3    0    0  0.48984159928E+01  0.35842752215E+01 -0.15428025276E+02  0.16579067285E+02  0.00000000000E+00 0.  1.
</event>
<event>
 7    1  0.2294216E-010  0.4778727E+02  0.7816164E-02  0.1312668E+00
        -11   -1    0    0    0    0  0.00000000000E+00  0.00000000000E+00  0.45593999997E+02  0.45594000000E+02  0.51100000000E-03 0. -1.
         11   -1    0    0    0    0 -0.00000000000E+00 -0.00000000000E+00 -0.45593999997E+02  0.45594000000E+02  0.51100000000E-03 0.  1.
    9900012    2    1    2    0    0  0.35214198925E+02  0.18484232927E+02 -0.17375755198E+02  0.47787267962E+02  0.19999985944E+02 0.  0.
        -12    1    1    2    0    0 -0.35214198925E+02 -0.18484232927E+02  0.17375755198E+02  0.43400732038E+02  0.00000000000E+00 0.  1.
         11    1    3    3    0    0 -0.23960090835E+00  0.45417713566E+00  0.86622578964E+00  0.10069919789E+01  0.51100000000E-03 0. -1.
        -11    1    3    3    0    0  0.38557939390E+01  0.85469021991E+01 -0.77410990424E+01  0.12159000730E+02  0.51100000000E-03 0.  1.
         12    1    3    3    0    0  0.31598005894E+02  0.94831535918E+01 -0.10500881945E+02  0.34621275253E+02  0.00000000000E+00 0. -1.
</event>
<event>
 7    1  0.2294216E-010  0.4778727E+02  0.7816164E-02  0.1312668E+00
        -11   -1    0    0    0    0  0.00000000000E+00  0.00000000000E+00  0.45593999997E+02  0.45594000000E+02  0.51100000000E-03 0.  1.
         11   -1    0    0    0    0 -0.00000000000E+00 -0.00000000000E+00 -0.45593999997E+02  0.45594000000E+02  0.51100000000E-03 0. -1.
    9900012    2    1    2    0    0  0.34182752004E+02  0.13907205356E+02 -0.22841899080E+02  0.47787271331E+02  0.20000001307E+02 0.  0.
        -12    1    1    2    0    0 -0.34182752004E+02 -0.13907205356E+02  0.22841899080E+02  0.43400728669E+02  0.00000000000E+00 0.  1.
         11    1    3    3    0    0  0.60732096924E+01 -0.31271457367E+01 -0.43883555817E+01  0.81191490563E+01  0.51100000000E-03 0. -1.
        -11    1    3    3    0    0  0.15686812113E+02  0.46012308047E+01 -0.37962637887E+01  0.16782699967E+02  0.51100000000E-03 0.  1.
        -12    1    3    3    0    0  0.12422730199E+02  0.12433120288E+02 -0.14657279710E+02  0.22885422308E+02  0.00000000000E+00 0.  1.
</event>
<event>
 7    1  0.2294216E-010  0.4778727E+02  0.7816164E-02  0.1312668E+00
        -11   -1    0    0    0    0  0.00000000000E+00  0.00000000000E+00  0.45593999997E+02  0.45594000000E+02  0.51100000000E-03 0. -1.
         11   -1    0    0    0    0 -0.00000000000E+00 -0.00000000000E+00 -0.45593999997E+02  0.45594000000E+02  0.51100000000E-03 0.  1.
    9900012    2    1    2    0    0 -0.13913006400E+02 -0.40831782094E+02  0.47766931070E+01  0.47787274509E+02  0.20000015798E+02 0.  0.
        -12    1    1    2    0    0  0.13913006400E+02  0.40831782094E+02 -0.47766931070E+01  0.43400725491E+02  0.00000000000E+00 0.  1.
         11    1    3    3    0    0 -0.17092360231E+02 -0.25291311534E+02  0.98416765422E+00  0.30541247578E+02  0.51100000000E-03 0. -1.
        -11    1    3    3    0    0 -0.72908194601E-01 -0.10603586220E+02  0.83772713060E+00  0.10636876578E+02  0.51100000000E-03 0.  1.
         12    1    3    3    0    0  0.32522620257E+01 -0.49368843404E+01  0.29547983222E+01  0.66091503538E+01  0.00000000000E+00 0. -1.
</event>
<event>
 7    1  0.2294216E-010  0.4778727E+02  0.7816164E-02  0.1312668E+00
        -11   -1    0    0    0    0  0.00000000000E+00  0.00000000000E+00  0.45593999997E+02  0.45594000000E+02  0.51100000000E-03 0.  1.
         11   -1    0    0    0    0 -0.00000000000E+00 -0.00000000000E+00 -0.45593999997E+02  0.45594000000E+02  0.51100000000E-03 0. -1.
    9900012    2    1    2    0    0 -0.39685756989E+02  0.74920135995E+01 -0.15891307177E+02  0.47787271673E+02  0.20000002864E+02 0.  0.
        -12    1    1    2    0    0  0.39685756989E+02 -0.74920135995E+01  0.15891307177E+02  0.43400728327E+02  0.00000000000E+00 0.  1.
         11    1    3    3    0    0 -0.21423284623E+02  0.12122303996E+02 -0.97242964956E+01  0.26466380954E+02  0.51100000000E-03 0. -1.
        -11    1    3    3    0    0 -0.14955822290E+01  0.14390641778E+01 -0.22559004946E+01  0.30654133839E+01  0.51100000000E-03 0.  1.
        -12    1    3    3    0    0 -0.16766890137E+02 -0.60693545746E+01 -0.39111101863E+01  0.18255477335E+02  0.00000000000E+00 0.  1.
</event>
<event>
 7    1  0.2294216E-010  0.4778727E+02  0.7816164E-02  0.1312668E+00
        -11   -1    0    0    0    0  0.00000000000E+00  0.00000000000E+00  0.45593999997E+02  0.45594000000E+02  0.51100000000E-03 0. -1.
         11   -1    0    0    0    0 -0.00000000000E+00 -0.00000000000E+00 -0.45593999997E+02  0.45594000000E+02  0.51100000000E-03 0.  1.
    9900012    2    1    2    0    0 -0.13510399797E+02  0.35495052290E+02  0.21004616590E+02  0.47787267773E+02  0.19999985086E+02 0.  0.
        -12    1    1    2    0    0  0.13510399797E+02 -0.35495052290E+02 -0.21004616590E+02  0.43400732227E+02  0.00000000000E+00 0.  1.
         11    1    3    3    0    0 -0.38218942862E+01  0.45326064323E+01  0.19542299754E+01  0.62426286180E+01  0.51100000000E-03 0. -1.
        -11    1    3    3    0    0  0.45984374452E+01  0.90133450346E+01  0.20581269963E+01  0.10325788234E+02  0.51100000000E-03 0.  1.
        -12    1    3    3    0    0 -0.14286942956E+02  0.21949100823E+02  0.16992259618E+02  0.31218850922E+02  0.00000000000E+00 0.  1.
</event>
<event>
 7    1  0.2294216E-010  0.4778727E+02  0.7816164E-02  0.1312668E+00
        -11   -1    0    0    0    0  0.00000000000E+00  0.00000000000E+00  0.45593999997E+02  0.45594000000E+02  0.51100000000E-03 0. -1.
         11   -1    0    0    0    0 -0.00000000000E+00 -0.00000000000E+00 -0.45593999997E+02  0.45594000000E+02  0.51100000000E-03 0.  1.
    9900012    2    1    2    0    0 -0.31673473794E+02  0.29639274455E+02  0.13884355511E+01  0.47787270909E+02  0.19999999381E+02 0.  0.
        -12    1    1    2    0    0  0.31673473794E+02 -0.29639274455E+02 -0.13884355511E+01  0.43400729091E+02  0.00000000000E+00 0.  1.
         11    1    3    3    0    0 -0.24822536077E+01  0.35020780606E+01  0.35817675849E+01  0.55906344013E+01  0.51100000000E-03 0. -1.
        -11    1    3    3    0    0 -0.22988279844E+01  0.49797772962E+01  0.47804925523E+01  0.72757062423E+01  0.51100000000E-03 0.  1.
         12    1    3    3    0    0 -0.26892392202E+02  0.21157419098E+02 -0.69738245861E+01  0.34920930265E+02  0.00000000000E+00 0. -1.
</event>
<event>
 7    1  0.2294216E-010  0.4778727E+02  0.7816164E-02  0.1312668E+00
        -11   -1    0    0    0    0  0.00000000000E+00  0.00000000000E+00  0.45593999997E+02  0.45594000000E+02  0.51100000000E-03 0. -1.
         11   -1    0    0    0    0 -0.00000000000E+00 -0.00000000000E+00 -0.45593999997E+02  0.45594000000E+02  0.51100000000E-03 0.  1.
    9900012    2    1    2    0    0  0.13063070556E+01 -0.89406843262E+01  0.42449746348E+02  0.47787271442E+02  0.20000001813E+02 0.  0.
        -12    1    1    2    0    0 -0.13063070556E+01  0.89406843262E+01 -0.42449746348E+02  0.43400728558E+02  0.00000000000E+00 0.  1.
         11    1    3    3    0    0 -0.75394728922E-01 -0.26183413779E+01  0.55498517612E+01  0.61369577780E+01  0.51100000000E-03 0. -1.
        -11    1    3    3    0    0 -0.35199720281E+01 -0.11165810618E+02  0.28328431053E+02  0.30652333289E+02  0.51100000000E-03 0.  1.
        -12    1    3    3    0    0  0.49016738127E+01  0.48434676698E+01  0.85714635334E+01  0.10997980375E+02  0.00000000000E+00 0.  1.
</event>
