<event>
 7    1  0.1418970E-010  0.4778723E+02  0.7816164E-02  0.1312668E+00
        -11   -1    0    0    0    0  0.00000000000E+00  0.00000000000E+00  0.45593999997E+02  0.45594000000E+02  0.51100000000E-03 0.  1.
         11   -1    0    0    0    0 -0.00000000000E+00 -0.00000000000E+00 -0.45593999997E+02  0.45594000000E+02  0.51100000000E-03 0. -1.
    9900012    2    1    2    0    0  0.84469818156E+01 -0.88620175223E+01  0.41638198629E+02  0.47787234553E+02  0.19999833618E+02 0.  0.
         12    1    1    2    0    0 -0.84469818156E+01  0.88620175223E+01 -0.41638198629E+02  0.43400765447E+02  0.00000000000E+00 0. -1.
         11    1    3    3    0    0 -0.47438198837E+00 -0.77097997401E+01  0.31647560359E+02  0.32576588637E+02  0.51100000000E-03 0. -1.
        -11    1    3    3    0    0  0.38150273853E+01 -0.40767498738E+01  0.47353103960E+01  0.73210305484E+01  0.51100000000E-03 0.  1.
         12    1    3    3    0    0  0.51063364186E+01  0.29245320916E+01  0.52553278740E+01  0.78896153669E+01  0.00000000000E+00 0. -1.
</event>
<event>
 7    1  0.1418970E-010  0.4778727E+02  0.7816164E-02  0.1312668E+00
        -11   -1    0    0    0    0  0.00000000000E+00  0.00000000000E+00  0.45593999997E+02  0.45594000000E+02  0.51100000000E-03 0.  1.
         11   -1    0    0    0    0 -0.00000000000E+00 -0.00000000000E+00 -0.45593999997E+02  0.45594000000E+02  0.51100000000E-03 0. -1.
    9900012    2    1    2    0    0  0.42482242669E+02 -0.86478191513E+01  0.20242901012E+01  0.47787268801E+02  0.19999989770E+02 0.  0.
         12    1    1    2    0    0 -0.42482242669E+02  0.86478191513E+01 -0.20242901012E+01  0.43400731199E+02  0.00000000000E+00 0. -1.
         11    1    3    3    0    0  0.18459643781E+02 -0.85879591879E+00  0.68709386204E+01  0.19715622657E+02  0.51100000000E-03 0. -1.
        -11    1    3    3    0    0  0.14917296421E+02 -0.27695428539E+01  0.24511087078E+01  0.15368930811E+02  0.51100000000E-03 0.  1.
         12    1    3    3    0    0  0.91053024669E+01 -0.50194803787E+01 -0.72977572269E+01  0.12702715333E+02  0.00000000000E+00 0. -1.
</event>
<event>
 7    1  0.1418970E-010  0.4778728E+02  0.7816164E-02  0.1312668E+00
        -11   -1    0    0    0    0  0.00000000000E+00  0.00000000000E+00  0.45593999997E+02  0.45594000000E+02  0.51100000000E-03 0.  1.
         11   -1    0    0    0    0 -0.00000000000E+00 -0.00000000000E+00 -0.45593999997E+02  0.45594000000E+02  0.51100000000E-03 0. -1.
    9900012    2    1    2    0    0  0.36389814026E+02 -0.11344086886E+02 -0.20753685587E+02  0.47787281832E+02  0.20000049183E+02 0.  0.
         12    1    1    2    0    0 -0.36389814026E+02  0.11344086886E+02  0.20753685587E+02  0.43400718168E+02  0.00000000000E+00 0. -1.
         11    1    3    3    0    0  0.79186714665E+00 -0.29474744971E+01 -0.28523538622E+01  0.41773894126E+01  0.51100000000E-03 0. -1.
        -11    1    3    3    0    0  0.96147731205E+01 -0.95878406534E+01 -0.81202399053E+01  0.15821151884E+02  0.51100000000E-03 0.  1.
        -12    1    3    3    0    0  0.25983173759E+02  0.11912282641E+01 -0.97810918193E+01  0.27788740535E+02  0.00000000000E+00 0.  1.
</event>
<event>
 7    1  0.1418970E-010  0.4778727E+02  0.7816164E-02  0.1312668E+00
        -11   -1    0    0    0    0  0.00000000000E+00  0.00000000000E+00  0.45593999997E+02  0.45594000000E+02  0.51100000000E-03 0.  1.
         11   -1    0    0    0    0 -0.00000000000E+00 -0.00000000000E+00 -0.45593999997E+02  0.45594000000E+02  0.51100000000E-03 0. -1.
    9900012    2    1    2    0    0 -0.27684822289E+02 -0.13900581807E+02  0.30396508566E+02  0.47787270828E+02  0.19999999011E+02 0.  0.
         12    1    1    2    0    0  0.27684822289E+02  0.13900581807E+02 -0.30396508566E+02  0.43400729172E+02  0.00000000000E+00 0. -1.
         11    1    3    3    0    0 -0.11165131098E+01 -0.23276294836E+01 -0.66865989463E+00  0.26667521169E+01  0.51100000000E-03 0. -1.
        -11    1    3    3    0    0 -0.26045065737E+02 -0.14085518246E+02  0.30467291559E+02  0.42485328394E+02  0.51100000000E-03 0.  1.
        -12    1    3    3    0    0 -0.52324344200E+00  0.25125659232E+01  0.59787690112E+00  0.26351903170E+01  0.00000000000E+00 0.  1.
</event>
<event>
 7    1  0.1418970E-010  0.4778727E+02  0.7816164E-02  0.1312668E+00
        -11   -1    0    0    0    0  0.00000000000E+00  0.00000000000E+00  0.45593999997E+02  0.45594000000E+02  0.51100000000E-03 0.  1.
         11   -1    0    0    0    0 -0.00000000000E+00 -0.00000000000E+00 -0.45593999997E+02  0.45594000000E+02  0.51100000000E-03 0. -1.
    9900012    2    1    2    0    0  0.32803877149E+02 -0.65966964932E+01  0.27640776560E+02  0.47787270865E+02  0.19999999183E+02 0.  0.
         12    1    1    2    0    0 -0.32803877149E+02  0.65966964932E+01 -0.27640776560E+02  0.43400729135E+02  0.00000000000E+00 0. -1.
         11    1    3    3    0    0  0.18842847828E+02 -0.61446887907E+00  0.49876451124E+01  0.19501463799E+02  0.51100000000E-03 0. -1.
        -11    1    3    3    0    0  0.87117412703E+01  0.14789319494E+00  0.13661370552E+02  0.16203374771E+02  0.51100000000E-03 0.  1.
        -12    1    3    3    0    0  0.52492880508E+01 -0.61301208091E+01  0.89917608950E+01  0.12082432295E+02  0.00000000000E+00 0.  1.
</event>
<event>
 7    1  0.1418970E-010  0.4778727E+02  0.7816164E-02  0.1312668E+00
        -11   -1    0    0    0    0  0.00000000000E+00  0.00000000000E+00  0.45593999997E+02  0.45594000000E+02  0.51100000000E-03 0.  1.
         11   -1    0    0    0    0 -0.00000000000E+00 -0.00000000000E+00 -0.45593999997E+02  0.45594000000E+02  0.51100000000E-03 0. -1.
    9900012    2    1    2    0    0 -0.34224848469E+02  0.12885087217E+02  0.23372161126E+02  0.47787266815E+02  0.19999980714E+02 0.  0.
         12    1    1    2    0    0  0.34224848469E+02 -0.12885087217E+02 -0.23372161126E+02  0.43400733185E+02  0.00000000000E+00 0. -1.
         11    1    3    3    0    0 -0.82324561910E+01 -0.12308015293E+01  0.23897405233E+00  0.83273835147E+01  0.51100000000E-03 0. -1.
        -11    1    3    3    0    0 -0.13567992557E+02  0.51481091104E+01  0.42085896249E+01  0.15109787435E+02  0.51100000000E-03 0.  1.
        -12    1    3    3    0    0 -0.12424399721E+02  0.89677796361E+01  0.18924597448E+02  0.24350095865E+02  0.00000000000E+00 0.  1.
</event>
<event>
 7    1  0.1418970E-010  0.4778727E+02  0.7816164E-02  0.1312668E+00
        -11   -1    0    0    0    0  0.00000000000E+00  0.00000000000E+00  0.45593999997E+02  0.45594000000E+02  0.51100000000E-03 0.  1.
         11   -1    0    0    0    0 -0.00000000000E+00 -0.00000000000E+00 -0.45593999997E+02  0.45594000000E+02  0.51100000000E-03 0. -1.
    9900012    2    1    2    0    0  0.45554133947E+01 -0.29383309530E+02  0.31614751830E+02  0.47787271857E+02  0.20000003703E+02 0.  0.
         12    1    1    2    0    0 -0.45554133947E+01  0.29383309530E+02 -0.31614751830E+02  0.43400728143E+02  0.00000000000E+00 0. -1.
         11    1    3    3    0    0  0.29228743753E+01 -0.14537104561E+02  0.78055802296E+01  0.16757019025E+02  0.51100000000E-03 0. -1.
        -11    1    3    3    0    0  0.64812986585E+01 -0.31161949967E+01  0.92059702383E+01  0.11681942983E+02  0.51100000000E-03 0.  1.
        -12    1    3    3    0    0 -0.48487596391E+01 -0.11730009972E+02  0.14603201362E+02  0.19348309848E+02  0.00000000000E+00 0.  1.
</event>
<event>
 7    1  0.1418970E-010  0.4778727E+02  0.7816164E-02  0.1312668E+00
        -11   -1    0    0    0    0  0.00000000000E+00  0.00000000000E+00  0.45593999997E+02  0.45594000000E+02  0.51100000000E-03 0.  1.
         11   -1    0    0    0    0 -0.00000000000E+00 -0.00000000000E+00 -0.45593999997E+02  0.45594000000E+02  0.51100000000E-03 0. -1.
    9900012    2    1    2    0    0 -0.12922123415E+02 -0.19028329947E+02  0.36804412723E+02  0.47787269476E+02  0.19999992849E+02 0.  0.
         12    1    1    2    0    0  0.12922123415E+02  0.19028329947E+02 -0.36804412723E+02  0.43400730524E+02  0.00000000000E+00 0. -1.
         11    1    3    3    0    0 -0.88366570419E+01 -0.66938163846E+01  0.63707848465E+01  0.12785952655E+02  0.51100000000E-03 0. -1.
        -11    1    3    3    0    0 -0.78070180953E+01 -0.10090402821E+02  0.24770078723E+02  0.27862565583E+02  0.51100000000E-03 0.  1.
         12    1    3    3    0    0  0.37215517218E+01 -0.22441107419E+01  0.56635491528E+01  0.71387512386E+01  0.00000000000E+00 0. -1.
</event>
<event>
 7    1  0.1418970E-010  0.4778727E+02  0.7816164E-02  0.1312668E+00
        -11   -1    0    0    0    0  0.00000000000E+00  0.00000000000E+00  0.45593999997E+02  0.45594000000E+02  0.51100000000E-03 0.  1.
         11   -1    0    0    0    0 -0.00000000000E+00 -0.00000000000E+00 -0.45593999997E+02  0.45594000000E+02  0.51100000000E-03 0. -1.
    9900012    2    1    2    0    0  0.60462670054E+01 -0.19000090096E+02  0.38549480276E+02  0.47787271920E+02  0.20000003990E+02 0.  0.
         12    1    1    2    0    0 -0.60462670054E+01  0.19000090096E+02 -0.38549480276E+02  0.43400728080E+02  0.00000000000E+00 0. -1.
         11    1    3    3    0    0  0.41491881312E+01 -0.13490649500E+00  0.14699266426E+01  0.44039353431E+01  0.51100000000E-03 0. -1.
        -11    1    3    3    0    0  0.53991791595E+01 -0.29414859993E+01  0.11717762484E+02  0.13232892102E+02  0.51100000000E-03 0.  1.
         12    1    3    3    0    0 -0.35021002852E+01 -0.15923697602E+02  0.25361791149E+02  0.30150444475E+02  0.00000000000E+00 0. -1.
</event>
<event>
 7    1  0.1418970E-010  0.4778727E+02  0.7816164E-02  0.1312668E+00
        -11   -1    0    0    0    0  0.00000000000E+00  0.00000000000E+00  0.45593999997E+02  0.45594000000E+02  0.51100000000E-03 0.  1.
         11   -1    0    0    0    0 -0.00000000000E+00 -0.00000000000E+00 -0.45593999997E+02  0.45594000000E+02  0.51100000000E-03 0. -1.
    9900012    2    1    2    0    0  0.54232728504E+01 -0.18137586323E+02  0.39054315939E+02  0.47787268215E+02  0.19999987097E+02 0.  0.
         12    1    1    2    0    0 -0.54232728504E+01  0.18137586323E+02 -0.39054315939E+02  0.43400731785E+02  0.00000000000E+00 0. -1.
         11    1    3    3    0    0  0.89821975278E+01 -0.11979675893E+01  0.14956837990E+02  0.17487767202E+02  0.51100000000E-03 0. -1.
        -11    1    3    3    0    0 -0.38800559537E+01 -0.45980468377E+01  0.75488745572E+01  0.96531018987E+01  0.51100000000E-03 0.  1.
        -12    1    3    3    0    0  0.32113127620E+00 -0.12341571896E+02  0.16548603392E+02  0.20646399114E+02  0.00000000000E+00 0.  1.
</event>
<event>
 7    1  0.1418970E-010  0.4778727E+02  0.7816164E-02  0.1312668E+00
        -11   -1    0    0    0    0  0.00000000000E+00  0.00000000000E+00  0.45593999997E+02  0.45594000000E+02  0.51100000000E-03 0.  1.
         11   -1    0    0    0    0 -0.00000000000E+00 -0.00000000000E+00 -0.45593999997E+02  0.45594000000E+02  0.51100000000E-03 0. -1.
    9900012    2    1    2    0    0 -0.38189339733E+02  0.40440973395E+01  0.20219868385E+02  0.47787268785E+02  0.19999989698E+02 0.  0.
         12    1    1    2    0    0  0.38189339733E+02 -0.40440973395E+01 -0.20219868385E+02  0.43400731215E+02  0.00000000000E+00 0. -1.
         11    1    3    3    0    0  0.57229633352E+00 -0.97468795167E+00  0.28358115062E+01  0.30527638062E+01  0.51100000000E-03 0. -1.
        -11    1    3    3    0    0 -0.19516386501E+02 -0.30358825929E+01  0.46453123745E+01  0.20290018543E+02  0.51100000000E-03 0.  1.
         12    1    3    3    0    0 -0.19245249565E+02  0.80546678841E+01  0.12738744504E+02  0.24444486435E+02  0.00000000000E+00 0. -1.
</event>
<event>
 7    1  0.1781083E-010  0.4778727E+02  0.7816164E-02  0.1312668E+00
        -11   -1    0    0    0    0  0.00000000000E+00  0.00000000000E+00  0.45593999997E+02  0.45594000000E+02  0.51100000000E-03 0. -1.
         11   -1    0    0    0    0 -0.00000000000E+00 -0.00000000000E+00 -0.45593999997E+02  0.45594000000E+02  0.51100000000E-03 0.  1.
    9900012    2    1    2    0    0  0.42517166603E+02 -0.46731250760E+01 -0.73536286461E+01  0.47787269497E+02  0.19999992943E+02 0.  0.
         12    1    1    2    0    0 -0.42517166603E+02  0.46731250760E+01  0.73536286461E+01  0.43400730503E+02  0.00000000000E+00 0. -1.
         11    1    3    3    0    0  0.52955155770E+01 -0.35384852841E+01  0.32886346592E+01  0.71678784528E+01  0.51100000000E-03 0. -1.
        -11    1    3    3    0    0  0.13778126187E+02  0.54855752474E+01 -0.35794003845E+01  0.15255831816E+02  0.51100000000E-03 0.  1.
        -12    1    3    3    0    0  0.23443524840E+02 -0.66202150394E+01 -0.70628629208E+01  0.25363559228E+02  0.00000000000E+00 0.  1.
</event>
<event>
 7    1  0.1418970E-010  0.4778727E+02  0.7816164E-02  0.1312668E+00
        -11   -1    0    0    0    0  0.00000000000E+00  0.00000000000E+00  0.45593999997E+02  0.45594000000E+02  0.51100000000E-03 0.  1.
         11   -1    0    0    0    0 -0.00000000000E+00 -0.00000000000E+00 -0.45593999997E+02  0.45594000000E+02  0.51100000000E-03 0. -1.
    9900012    2    1    2    0    0 -0.14226433903E+01 -0.42316556007E+02  0.95345763322E+01  0.47787274518E+02  0.20000015837E+02 0.  0.
         12    1    1    2    0    0  0.14226433903E+01  0.42316556007E+02 -0.95345763322E+01  0.43400725482E+02  0.00000000000E+00 0. -1.
         11    1    3    3    0    0 -0.45306888613E+00 -0.91346834253E+00 -0.19730538636E+01  0.22209542179E+01  0.51100000000E-03 0. -1.
        -11    1    3    3    0    0  0.60393411002E+00 -0.52757042146E+01 -0.35579119786E+01  0.63919112383E+01  0.51100000000E-03 0.  1.
        -12    1    3    3    0    0 -0.15735086142E+01 -0.36127383450E+02  0.15065542174E+02  0.39174409062E+02  0.00000000000E+00 0.  1.
</event>
<event>
 7    1  0.1418970E-010  0.4778732E+02  0.7816164E-02  0.1312668E+00
        -11   -1    0    0    0    0  0.00000000000E+00  0.00000000000E+00  0.45593999997E+02  0.45594000000E+02  0.51100000000E-03 0.  1.
         11   -1    0    0    0    0 -0.00000000000E+00 -0.00000000000E+00 -0.45593999997E+02  0.45594000000E+02  0.51100000000E-03 0. -1.
    9900012    2    1    2    0    0  0.28227745256E+02 -0.55318573253E+01  0.32499416221E+02  0.47787319102E+02  0.20000219112E+02 0.  0.
         12    1    1    2    0    0 -0.28227745256E+02  0.55318573253E+01 -0.32499416221E+02  0.43400680898E+02  0.00000000000E+00 0. -1.
         11    1    3    3    0    0  0.80744319340E+01 -0.64652339706E+01  0.16323149981E+02  0.19324619710E+02  0.51100000000E-03 0. -1.
        -11    1    3    3    0    0  0.19185054699E+02  0.19349315397E+00  0.17974527676E+02  0.26290443298E+02  0.51100000000E-03 0.  1.
         12    1    3    3    0    0  0.96825862374E+00  0.73988349138E+00 -0.17982614365E+01  0.21722560939E+01  0.00000000000E+00 0. -1.
</event>
<event>
 7    1  0.1418970E-010  0.4778726E+02  0.7816164E-02  0.1312668E+00
        -11   -1    0    0    0    0  0.00000000000E+00  0.00000000000E+00  0.45593999997E+02  0.45594000000E+02  0.51100000000E-03 0. -1.
         11   -1    0    0    0    0 -0.00000000000E+00 -0.00000000000E+00 -0.45593999997E+02  0.45594000000E+02  0.51100000000E-03 0.  1.
    9900012    2    1    2    0    0  0.60983607609E+01 -0.27411175253E+02 -0.33091712396E+02  0.47787263117E+02  0.19999963856E+02 0.  0.
         12    1    1    2    0    0 -0.60983607609E+01  0.27411175253E+02  0.33091712396E+02  0.43400736883E+02  0.00000000000E+00 0. -1.
         11    1    3    3    0    0  0.16685778993E+01 -0.11121185412E+02 -0.18743903193E+02  0.21858609844E+02  0.51100000000E-03 0. -1.
        -11    1    3    3    0    0  0.83702196653E+01 -0.15209166392E+02 -0.10345818658E+02  0.20209287062E+02  0.51100000000E-03 0.  1.
         12    1    3    3    0    0 -0.39404368037E+01 -0.10808234493E+01 -0.40019905451E+01  0.57193662110E+01  0.00000000000E+00 0. -1.
</event>
<event>
 7    1  0.1418970E-010  0.4778727E+02  0.7816164E-02  0.1312668E+00
        -11   -1    0    0    0    0  0.00000000000E+00  0.00000000000E+00  0.45593999997E+02  0.45594000000E+02  0.51100000000E-03 0. -1.
         11   -1    0    0    0    0 -0.00000000000E+00 -0.00000000000E+00 -0.45593999997E+02  0.45594000000E+02  0.51100000000E-03 0.  1.
    9900012    2    1    2    0    0  0.35318052599E+02  0.16271196554E+02  0.19274511301E+02  0.47787268870E+02  0.19999990088E+02 0.  0.
         12    1    1    2    0    0 -0.35318052599E+02 -0.16271196554E+02 -0.19274511301E+02  0.43400731130E+02  0.00000000000E+00 0. -1.
         11    1    3    3    0    0  0.18965360327E+02  0.14087657937E+01  0.77897323684E+01  0.20551142158E+02  0.51100000000E-03 0. -1.
        -11    1    3    3    0    0  0.13805162566E+02  0.12028356540E+02  0.13663660833E+02  0.22846433029E+02  0.51100000000E-03 0.  1.
         12    1    3    3    0    0  0.25475297063E+01  0.28340742204E+01 -0.21788819008E+01  0.43896936828E+01  0.00000000000E+00 0. -1.
</event>
<event>
 7    1  0.1418970E-010  0.4778729E+02  0.7816164E-02  0.1312668E+00
        -11   -1    0    0    0    0  0.00000000000E+00  0.00000000000E+00  0.45593999997E+02  0.45594000000E+02  0.51100000000E-03 0.  1.
         11   -1    0    0    0    0 -0.00000000000E+00 -0.00000000000E+00 -0.45593999997E+02  0.45594000000E+02  0.51100000000E-03 0. -1.
    9900012    2    1    2    0    0  0.41229677935E+02  0.45197932421E+01  0.12779166111E+02  0.47787286180E+02  0.20000069009E+02 0.  0.
         12    1    1    2    0    0 -0.41229677935E+02 -0.45197932421E+01 -0.12779166111E+02  0.43400713820E+02  0.00000000000E+00 0. -1.
         11    1    3    3    0    0  0.23970781688E+02 -0.41612643316E+01  0.42536337839E+01  0.24698337924E+02  0.51100000000E-03 0. -1.
        -11    1    3    3    0    0  0.17187727753E+02  0.52448464097E+01  0.77237271635E+01  0.19559712696E+02  0.51100000000E-03 0.  1.
        -12    1    3    3    0    0  0.71168493683E-01  0.34362111640E+01  0.80180516367E+00  0.35292355601E+01  0.00000000000E+00 0.  1.
</event>
<event>
 7    1  0.1418970E-010  0.4778727E+02  0.7816164E-02  0.1312668E+00
        -11   -1    0    0    0    0  0.00000000000E+00  0.00000000000E+00  0.45593999997E+02  0.45594000000E+02  0.51100000000E-03 0.  1.
         11   -1    0    0    0    0 -0.00000000000E+00 -0.00000000000E+00 -0.45593999997E+02  0.45594000000E+02  0.51100000000E-03 0. -1.
    9900012    2    1    2    0    0 -0.15487272082E+01  0.19667566766E+02  0.38657620309E+02  0.47787270208E+02  0.19999996189E+02 0.  0.
         12    1    1    2    0    0  0.15487272082E+01 -0.19667566766E+02 -0.38657620309E+02  0.43400729792E+02  0.00000000000E+00 0. -1.
         11    1    3    3    0    0 -0.73148360813E+01  0.80089290158E+01  0.16272678727E+02  0.19556324913E+02  0.51100000000E-03 0. -1.
        -11    1    3    3    0    0  0.18591401384E+01  0.12001647242E+02  0.11760752057E+02  0.16905952436E+02  0.51100000000E-03 0.  1.
        -12    1    3    3    0    0  0.39069687347E+01 -0.34300949113E+00  0.10624189525E+02  0.11324992860E+02  0.00000000000E+00 0.  1.
</event>
<event>
 7    1  0.1418970E-010  0.4778729E+02  0.7816164E-02  0.1312668E+00
        -11   -1    0    0    0    0  0.00000000000E+00  0.00000000000E+00  0.45593999997E+02  0.45594000000E+02  0.51100000000E-03 0.  1.
         11   -1    0    0    0    0 -0.00000000000E+00 -0.00000000000E+00 -0.45593999997E+02  0.45594000000E+02  0.51100000000E-03 0. -1.
    9900012    2    1    2    0    0  0.70673512336E+01  0.38940622680E+02  0.17812985751E+02  0.47787285611E+02  0.20000066414E+02 0.  0.
         12    1    1    2    0    0 -0.70673512336E+01 -0.38940622680E+02 -0.17812985751E+02  0.43400714389E+02  0.00000000000E+00 0. -1.
         11    1    3    3    0    0 -0.44604451432E+01  0.15229237612E+01  0.19748063062E+01  0.51102571233E+01  0.51100000000E-03 0. -1.
        -11    1    3    3    0    0  0.24322954657E+01  0.14695301788E+02  0.83799806553E+01  0.17090700158E+02  0.51100000000E-03 0.  1.
         12    1    3    3    0    0  0.90955009110E+01  0.22722397131E+02  0.74581987892E+01  0.25586328329E+02  0.00000000000E+00 0. -1.
</event>
<event>
 7    1  0.1418970E-010  0.4778727E+02  0.7816164E-02  0.1312668E+00
        -11   -1    0    0    0    0  0.00000000000E+00  0.00000000000E+00  0.45593999997E+02  0.45594000000E+02  0.51100000000E-03 0. -1.
         11   -1    0    0    0    0 -0.00000000000E+00 -0.00000000000E+00 -0.45593999997E+02  0.45594000000E+02  0.51100000000E-03 0.  1.
    9900012    2    1    2    0    0  0.29814917906E+02  0.68170820423E+01 -0.30793207376E+02  0.47787267773E+02  0.19999985085E+02 0.  0.
         12    1    1    2    0    0 -0.29814917906E+02 -0.68170820423E+01  0.30793207376E+02  0.43400732227E+02  0.00000000000E+00 0. -1.
         11    1    3    3    0    0  0.14463488731E+02  0.25623677817E+00 -0.11963878297E+02  0.18772121556E+02  0.51100000000E-03 0.  1.
        -11    1    3    3    0    0  0.40847971375E+01 -0.34151649185E+01 -0.10603386099E+02  0.11865104977E+02  0.51100000000E-03 0. -1.
        -12    1    3    3    0    0  0.11266632038E+02  0.99760101827E+01 -0.82259429795E+01  0.17150041240E+02  0.00000000000E+00 0.  1.
</event>
<event>
 7    1  0.1418970E-010  0.4778727E+02  0.7816164E-02  0.1312668E+00
        -11   -1    0    0    0    0  0.00000000000E+00  0.00000000000E+00  0.45593999997E+02  0.45594000000E+02  0.51100000000E-03 0.  1.
         11   -1    0    0    0    0 -0.00000000000E+00 -0.00000000000E+00 -0.45593999997E+02  0.45594000000E+02  0.51100000000E-03 0. -1.
    9900012    2    1    2    0    0  0.24272849334E+02 -0.13543351473E+01  0.35952993000E+02  0.47787272539E+02  0.20000006814E+02 0.  0.
         12    1    1    2    0    0 -0.24272849334E+02  0.13543351473E+01 -0.35952993000E+02  0.43400727461E+02  0.00000000000E+00 0. -1.
         11    1    3    3    0    0 -0.22375071907E+01  0.46296270285E+00  0.28655127961E+01  0.36649606735E+01  0.51100000000E-03 0. -1.
        -11    1    3    3    0    0  0.11723907701E+02 -0.16296010546E+01  0.24014498431E+02  0.26773153466E+02  0.51100000000E-03 0.  1.
        -12    1    3    3    0    0  0.14786448824E+02 -0.18769679554E+00  0.90729817732E+01  0.17349158399E+02  0.00000000000E+00 0.  1.
</event>
<event>
 7    1  0.1418970E-010  0.4778727E+02  0.7816164E-02  0.1312668E+00
        -11   -1    0    0    0    0  0.00000000000E+00  0.00000000000E+00  0.45593999997E+02  0.45594000000E+02  0.51100000000E-03 0.  1.
         11   -1    0    0    0    0 -0.00000000000E+00 -0.00000000000E+00 -0.45593999997E+02  0.45594000000E+02  0.51100000000E-03 0. -1.
    9900012    2    1    2    0    0 -0.34492669675E+02 -0.17160662245E+02 -0.19984757219E+02  0.47787272920E+02  0.20000008551E+02 0.  0.
         12    1    1    2    0    0  0.34492669675E+02  0.17160662245E+02  0.19984757219E+02  0.43400727080E+02  0.00000000000E+00 0. -1.
         11    1    3    3    0    0 -0.13218420468E+02 -0.62006856652E+01 -0.97469095297E+01  0.17554981858E+02  0.51100000000E-03 0. -1.
        -11    1    3    3    0    0 -0.21189743793E+02 -0.12279185588E+02 -0.12587766671E+02  0.27536076531E+02  0.51100000000E-03 0.  1.
         12    1    3    3    0    0 -0.84505413555E-01  0.13192090076E+01  0.23499189823E+01  0.26962145304E+01  0.00000000000E+00 0. -1.
</event>
<event>
 7    1  0.1418970E-010  0.4778727E+02  0.7816164E-02  0.1312668E+00
        -11   -1    0    0    0    0  0.00000000000E+00  0.00000000000E+00  0.45593999997E+02  0.45594000000E+02  0.51100000000E-03 0.  1.
         11   -1    0    0    0    0 -0.00000000000E+00 -0.00000000000E+00 -0.45593999997E+02  0.45594000000E+02  0.51100000000E-03 0. -1.
    9900012    2    1    2    0    0 -0.31001063660E+02  0.29802545703E+02  0.58621984022E+01  0.47787273641E+02  0.20000011838E+02 0.  0.
         12    1    1    2    0    0  0.31001063660E+02 -0.29802545703E+02 -0.58621984022E+01  0.43400726359E+02  0.00000000000E+00 0. -1.
         11    1    3    3    0    0 -0.36156282038E+01  0.30779846459E+01 -0.29711753028E+01  0.56013069662E+01  0.51100000000E-03 0. -1.
        -11    1    3    3    0    0 -0.14483372165E+02  0.15944108066E+02  0.12601756795E+02  0.24955699266E+02  0.51100000000E-03 0.  1.
         12    1    3    3    0    0 -0.12902063291E+02  0.10780452992E+02 -0.37683830897E+01  0.17230267409E+02  0.00000000000E+00 0. -1.
</event>
<event>
 7    1  0.1418970E-010  0.4778727E+02  0.7816164E-02  0.1312668E+00
        -11   -1    0    0    0    0  0.00000000000E+00  0.00000000000E+00  0.45593999997E+02  0.45594000000E+02  0.51100000000E-03 0. -1.
         11   -1    0    0    0    0 -0.00000000000E+00 -0.00000000000E+00 -0.45593999997E+02  0.45594000000E+02  0.51100000000E-03 0.  1.
    9900012    2    1    2    0    0 -0.16322793409E+02  0.33151593624E+02 -0.22763160221E+02  0.47787271806E+02  0.20000003474E+02 0.  0.
         12    1    1    2    0    0  0.16322793409E+02 -0.33151593624E+02  0.22763160221E+02  0.43400728194E+02  0.00000000000E+00 0. -1.
         11    1    3    3    0    0 -0.35868231347E+00  0.23593191234E+01 -0.77188549694E+01  0.80793416828E+01  0.51100000000E-03 0. -1.
        -11    1    3    3    0    0 -0.93570438555E+01  0.94616914031E+01 -0.10425858519E+02  0.16904922361E+02  0.51100000000E-03 0.  1.
         12    1    3    3    0    0 -0.66070672402E+01  0.21330583097E+02 -0.46184467331E+01  0.22803007762E+02  0.00000000000E+00 0. -1.
</event>
<event>
 7    1  0.1418970E-010  0.4778728E+02  0.7816164E-02  0.1312668E+00
        -11   -1    0    0    0    0  0.00000000000E+00  0.00000000000E+00  0.45593999997E+02  0.45594000000E+02  0.51100000000E-03 0.  1.
         11   -1    0    0    0    0 -0.00000000000E+00 -0.00000000000E+00 -0.45593999997E+02  0.45594000000E+02  0.51100000000E-03 0. -1.
    9900012    2    1    2    0    0  0.30688256565E+00 -0.16821420309E+02  0.40007100002E+02  0.47787281011E+02  0.20000045443E+02 0.  0.
         12    1    1    2    0    0 -0.30688256565E+00  0.16821420309E+02 -0.40007100002E+02  0.43400718989E+02  0.00000000000E+00 0. -1.
         11    1    3    3    0    0 -0.17347118139E+01 -0.47978091111E+01  0.88467249319E+00  0.51779187928E+01  0.51100000000E-03 0. -1.
        -11    1    3    3    0    0  0.63397615819E+01 -0.33440467787E+01  0.15423191771E+02  0.17007353422E+02  0.51100000000E-03 0.  1.
        -12    1    3    3    0    0 -0.42981672024E+01 -0.86795644195E+01  0.23699235738E+02  0.25602008796E+02  0.00000000000E+00 0.  1.
</event>
<event>
 7    1  0.1418970E-010  0.4778727E+02  0.7816164E-02  0.1312668E+00
        -11   -1    0    0    0    0  0.00000000000E+00  0.00000000000E+00  0.45593999997E+02  0.45594000000E+02  0.51100000000E-03 0.  1.
         11   -1    0    0    0    0 -0.00000000000E+00 -0.00000000000E+00 -0.45593999997E+02  0.45594000000E+02  0.51100000000E-03 0. -1.
    9900012    2    1    2    0    0  0.34768082607E+02  0.25160826380E+02  0.64604188125E+01  0.47787265404E+02  0.19999974281E+02 0.  0.
         12    1    1    2    0    0 -0.34768082607E+02 -0.25160826380E+02 -0.64604188125E+01  0.43400734596E+02  0.00000000000E+00 0. -1.
         11    1    3    3    0    0  0.25962676971E+02  0.10810462108E+02 -0.30617825572E+01  0.28289595246E+02  0.51100000000E-03 0. -1.
        -11    1    3    3    0    0 -0.30433256684E-01  0.70500377017E+00  0.73297953590E+00  0.10174555323E+01  0.51100000000E-03 0.  1.
         12    1    3    3    0    0  0.88358388923E+01  0.13645360501E+02  0.87892218338E+01  0.18480214625E+02  0.00000000000E+00 0. -1.
</event>
<event>
 7    1  0.1418970E-010  0.4778726E+02  0.7816164E-02  0.1312668E+00
        -11   -1    0    0    0    0  0.00000000000E+00  0.00000000000E+00  0.45593999997E+02  0.45594000000E+02  0.51100000000E-03 0.  1.
         11   -1    0    0    0    0 -0.00000000000E+00 -0.00000000000E+00 -0.45593999997E+02  0.45594000000E+02  0.51100000000E-03 0. -1.
    9900012    2    1    2    0    0  0.18521682061E+02 -0.31119293038E+01  0.39126551198E+02  0.47787264764E+02  0.19999971367E+02 0.  0.
         12    1    1    2    0    0 -0.18521682061E+02  0.31119293038E+01 -0.39126551198E+02  0.43400735236E+02  0.00000000000E+00 0. -1.
         11    1    3    3    0    0 -0.13305638203E+01 -0.24944166632E+01  0.10435235058E+02  0.10811412745E+02  0.51100000000E-03 0. -1.
        -11    1    3    3    0    0  0.11061094397E+00  0.31878572908E+01  0.45945336976E+01  0.55932467357E+01  0.51100000000E-03 0.  1.
        -12    1    3    3    0    0  0.19741634937E+02 -0.38053699314E+01  0.24096782443E+02  0.31382605284E+02  0.00000000000E+00 0.  1.
</event>
<event>
 7    1  0.1418970E-010  0.4778726E+02  0.7816164E-02  0.1312668E+00
        -11   -1    0    0    0    0  0.00000000000E+00  0.00000000000E+00  0.45593999997E+02  0.45594000000E+02  0.51100000000E-03 0.  1.
         11   -1    0    0    0    0 -0.00000000000E+00 -0.00000000000E+00 -0.45593999997E+02  0.45594000000E+02  0.51100000000E-03 0. -1.
    9900012    2    1    2    0    0  0.21010269215E+02  0.28390693571E+02  0.25222232532E+02  0.47787263740E+02  0.19999966698E+02 0.  0.
         12    1    1    2    0    0 -0.21010269215E+02 -0.28390693571E+02 -0.25222232532E+02  0.43400736260E+02  0.00000000000E+00 0. -1.
         11    1    3    3    0    0  0.58316949585E+01  0.14092858808E+02  0.30551250603E+01  0.15554778200E+02  0.51100000000E-03 0. -1.
        -11    1    3    3    0    0  0.43359805693E+01  0.11039192213E+02  0.13530160448E+02  0.17992491052E+02  0.51100000000E-03 0.  1.
         12    1    3    3    0    0  0.10842593688E+02  0.32586425498E+01  0.86369470238E+01  0.14239994489E+02  0.00000000000E+00 0. -1.
</event>
<event>
 7    1  0.1418970E-010  0.4778728E+02  0.7816164E-02  0.1312668E+00
        -11   -1    0    0    0    0  0.00000000000E+00  0.00000000000E+00  0.45593999997E+02  0.45594000000E+02  0.51100000000E-03 0.  1.
         11   -1    0    0    0    0 -0.00000000000E+00 -0.00000000000E+00 -0.45593999997E+02  0.45594000000E+02  0.51100000000E-03 0. -1.
    9900012    2    1    2    0    0  0.31537313826E+02 -0.26462680009E+02  0.13738527954E+02  0.47787277114E+02  0.20000027675E+02 0.  0.
         12    1    1    2    0    0 -0.31537313826E+02  0.26462680009E+02 -0.13738527954E+02  0.43400722886E+02  0.00000000000E+00 0. -1.
         11    1    3    3    0    0  0.39527559795E+01 -0.73667128881E+01  0.10724695150E+02  0.13598228743E+02  0.51100000000E-03 0. -1.
        -11    1    3    3    0    0  0.13322035799E+02 -0.69402751734E+01  0.35743657117E+01  0.15440859685E+02  0.51100000000E-03 0.  1.
         12    1    3    3    0    0  0.14262522047E+02 -0.12155691948E+02 -0.56053290768E+00  0.18748188687E+02  0.00000000000E+00 0. -1.
</event>
<event>
 7    1  0.1418970E-010  0.4778732E+02  0.7816164E-02  0.1312668E+00
        -11   -1    0    0    0    0  0.00000000000E+00  0.00000000000E+00  0.45593999997E+02  0.45594000000E+02  0.51100000000E-03 0.  1.
         11   -1    0    0    0    0 -0.00000000000E+00 -0.00000000000E+00 -0.45593999997E+02  0.45594000000E+02  0.51100000000E-03 0. -1.
    9900012    2    1    2    0    0  0.25682401525E+02  0.10614481244E+02  0.33337160205E+02  0.47787317854E+02  0.20000213424E+02 0.  0.
         12    1    1    2    0    0 -0.25682401525E+02 -0.10614481244E+02 -0.33337160205E+02  0.43400682146E+02  0.00000000000E+00 0. -1.
         11    1    3    3    0    0  0.10983755981E+01  0.49889279279E+01  0.14793458290E+02  0.15650630634E+02  0.51100000000E-03 0. -1.
        -11    1    3    3    0    0  0.10705379304E+02 -0.61939467679E+00  0.10107132795E+02  0.14735770404E+02  0.51100000000E-03 0.  1.
         12    1    3    3    0    0  0.13878646623E+02  0.62449479926E+01  0.84365691209E+01  0.17400916816E+02  0.00000000000E+00 0. -1.
</event>
<event>
 7    1  0.1418970E-010  0.4778727E+02  0.7816164E-02  0.1312668E+00
        -11   -1    0    0    0    0  0.00000000000E+00  0.00000000000E+00  0.45593999997E+02  0.45594000000E+02  0.51100000000E-03 0.  1.
         11   -1    0    0    0    0 -0.00000000000E+00 -0.00000000000E+00 -0.45593999997E+02  0.45594000000E+02  0.51100000000E-03 0. -1.
    9900012    2    1    2    0    0  0.12940989066E+02  0.29575680252E+02  0.29007469026E+02  0.47787270517E+02  0.19999997595E+02 0.  0.
         12    1    1    2    0    0 -0.12940989066E+02 -0.29575680252E+02 -0.29007469026E+02  0.43400729483E+02  0.00000000000E+00 0. -1.
         11    1    3    3    0    0  0.12479417527E+02  0.10672843524E+02  0.14721527940E+02  0.22053771465E+02  0.51100000000E-03 0. -1.
        -11    1    3    3    0    0  0.25987026039E+01  0.16630008039E+02  0.14985663270E+02  0.22536204794E+02  0.51100000000E-03 0.  1.
        -12    1    3    3    0    0 -0.21371310646E+01  0.22728286890E+01 -0.69972218414E+00  0.31972942580E+01  0.00000000000E+00 0.  1.
</event>
<event>
 7    1  0.1418970E-010  0.4778727E+02  0.7816164E-02  0.1312668E+00
        -11   -1    0    0    0    0  0.00000000000E+00  0.00000000000E+00  0.45593999997E+02  0.45594000000E+02  0.51100000000E-03 0.  1.
         11   -1    0    0    0    0 -0.00000000000E+00 -0.00000000000E+00 -0.45593999997E+02  0.45594000000E+02  0.51100000000E-03 0. -1.
    9900012    2    1    2    0    0 -0.12783358047E+01 -0.12911599080E+02  0.41415934050E+02  0.47787272742E+02  0.20000007741E+02 0.  0.
         12    1    1    2    0    0  0.12783358047E+01  0.12911599080E+02 -0.41415934050E+02  0.43400727258E+02  0.00000000000E+00 0. -1.
         11    1    3    3    0    0 -0.24893695253E+01 -0.54838986863E+01  0.23443744345E+02  0.24204942772E+02  0.51100000000E-03 0. -1.
        -11    1    3    3    0    0  0.55602242143E+00 -0.11227445785E+02  0.11741478818E+02  0.16255061516E+02  0.51100000000E-03 0.  1.
         12    1    3    3    0    0  0.65501129908E+00  0.37997453910E+01  0.62307108876E+01  0.73272684545E+01  0.00000000000E+00 0. -1.
</event>
<event>
 7    1  0.1418970E-010  0.4778727E+02  0.7816164E-02  0.1312668E+00
        -11   -1    0    0    0    0  0.00000000000E+00  0.00000000000E+00  0.45593999997E+02  0.45594000000E+02  0.51100000000E-03 0.  1.
         11   -1    0    0    0    0 -0.00000000000E+00 -0.00000000000E+00 -0.45593999997E+02  0.45594000000E+02  0.51100000000E-03 0. -1.
    9900012    2    1    2    0    0  0.13305335277E+02  0.36703750106E+02  0.18958541670E+02  0.47787268198E+02  0.19999987023E+02 0.  0.
         12    1    1    2    0    0 -0.13305335277E+02 -0.36703750106E+02 -0.18958541670E+02  0.43400731802E+02  0.00000000000E+00 0. -1.
         11    1    3    3    0    0 -0.18435888081E+01  0.12861025524E+01  0.35950076087E+01  0.42399244612E+01  0.51100000000E-03 0. -1.
        -11    1    3    3    0    0  0.11533477576E+02  0.11460984868E+02  0.37825072340E+01  0.16693790474E+02  0.51100000000E-03 0.  1.
        -12    1    3    3    0    0  0.36154465086E+01  0.23956662686E+02  0.11581026827E+02  0.26853553263E+02  0.00000000000E+00 0.  1.
</event>
<event>
 7    1  0.1418970E-010  0.4778727E+02  0.7816164E-02  0.1312668E+00
        -11   -1    0    0    0    0  0.00000000000E+00  0.00000000000E+00  0.45593999997E+02  0.45594000000E+02  0.51100000000E-03 0.  1.
         11   -1    0    0    0    0 -0.00000000000E+00 -0.00000000000E+00 -0.45593999997E+02  0.45594000000E+02  0.51100000000E-03 0. -1.
    9900012    2    1    2    0    0 -0.19467808379E+02  0.29127820557E+02  0.25616357674E+02  0.47787271043E+02  0.19999999995E+02 0.  0.
         12    1    1    2    0    0  0.19467808379E+02 -0.29127820557E+02 -0.25616357674E+02  0.43400728957E+02  0.00000000000E+00 0. -1.
         11    1    3    3    0    0 -0.11042446103E+02  0.23409009494E+02  0.18856824309E+02  0.32023384654E+02  0.51100000000E-03 0. -1.
        -11    1    3    3    0    0 -0.39340579990E+01  0.13440428863E+01  0.83217347985E+01  0.93023939896E+01  0.51100000000E-03 0.  1.
         12    1    3    3    0    0 -0.44913042766E+01  0.43747681773E+01 -0.15622014339E+01  0.64614923996E+01  0.00000000000E+00 0. -1.
</event>
<event>
 7    1  0.1418970E-010  0.4778727E+02  0.7816164E-02  0.1312668E+00
        -11   -1    0    0    0    0  0.00000000000E+00  0.00000000000E+00  0.45593999997E+02  0.45594000000E+02  0.51100000000E-03 0. -1.
         11   -1    0    0    0    0 -0.00000000000E+00 -0.00000000000E+00 -0.45593999997E+02  0.45594000000E+02  0.51100000000E-03 0.  1.
    9900012    2    1    2    0    0  0.76504928345E+01  0.32229991230E+02 -0.28041415166E+02  0.47787270285E+02  0.19999996536E+02 0.  0.
         12    1    1    2    0    0 -0.76504928345E+01 -0.32229991230E+02  0.28041415166E+02  0.43400729715E+02  0.00000000000E+00 0. -1.
         11    1    3    3    0    0  0.79467335338E+01  0.12557574594E+02 -0.22434970573E+02  0.26910428433E+02  0.51100000000E-03 0.  1.
        -11    1    3    3    0    0  0.49728084439E+00  0.13835757421E+02 -0.57339347069E+01  0.14985108580E+02  0.51100000000E-03 0. -1.
        -12    1    3    3    0    0 -0.79352154368E+00  0.58366592141E+01  0.12749011373E+00  0.58917332722E+01  0.00000000000E+00 0.  1.
</event>
<event>
 7    1  0.1418970E-010  0.4778725E+02  0.7816164E-02  0.1312668E+00
        -11   -1    0    0    0    0  0.00000000000E+00  0.00000000000E+00  0.45593999997E+02  0.45594000000E+02  0.51100000000E-03 0.  1.
         11   -1    0    0    0    0 -0.00000000000E+00 -0.00000000000E+00 -0.45593999997E+02  0.45594000000E+02  0.51100000000E-03 0. -1.
    9900012    2    1    2    0    0 -0.19643478954E+02 -0.79545549417E+01  0.37874576379E+02  0.47787254089E+02  0.19999922695E+02 0.  0.
         12    1    1    2    0    0  0.19643478954E+02  0.79545549417E+01 -0.37874576379E+02  0.43400745911E+02  0.00000000000E+00 0. -1.
         11    1    3    3    0    0  0.26347811201E+00 -0.29368702501E+01  0.58472450779E+01  0.65486565679E+01  0.51100000000E-03 0. -1.
        -11    1    3    3    0    0 -0.12841994514E+02 -0.10605654782E+02  0.23731592557E+02  0.28992847773E+02  0.51100000000E-03 0.  1.
         12    1    3    3    0    0 -0.70649625517E+01  0.55879700903E+01  0.82957387439E+01  0.12245749748E+02  0.00000000000E+00 0. -1.
</event>
<event>
 7    1  0.1418970E-010  0.4778727E+02  0.7816164E-02  0.1312668E+00
        -11   -1    0    0    0    0  0.00000000000E+00  0.00000000000E+00  0.45593999997E+02  0.45594000000E+02  0.51100000000E-03 0.  1.
         11   -1    0    0    0    0 -0.00000000000E+00 -0.00000000000E+00 -0.45593999997E+02  0.45594000000E+02  0.51100000000E-03 0. -1.
    9900012    2    1    2    0    0  0.35860366787E+02 -0.61018305300E+01  0.23673306236E+02  0.47787266480E+02  0.19999979189E+02 0.  0.
         12    1    1    2    0    0 -0.35860366787E+02  0.61018305300E+01 -0.23673306236E+02  0.43400733520E+02  0.00000000000E+00 0. -1.
         11    1    3    3    0    0  0.67728204759E+01 -0.60110802277E+01  0.59573001158E+01  0.10839446833E+02  0.51100000000E-03 0. -1.
        -11    1    3    3    0    0  0.70845160057E+01 -0.14769920603E+01 -0.18515631413E+01  0.74699503953E+01  0.51100000000E-03 0.  1.
        -12    1    3    3    0    0  0.22003030305E+02  0.13862417580E+01  0.19567569262E+02  0.29477869252E+02  0.00000000000E+00 0.  1.
</event>
<event>
 7    1  0.1418970E-010  0.4778727E+02  0.7816164E-02  0.1312668E+00
        -11   -1    0    0    0    0  0.00000000000E+00  0.00000000000E+00  0.45593999997E+02  0.45594000000E+02  0.51100000000E-03 0.  1.
         11   -1    0    0    0    0 -0.00000000000E+00 -0.00000000000E+00 -0.45593999997E+02  0.45594000000E+02  0.51100000000E-03 0. -1.
    9900012    2    1    2    0    0 -0.37265228108E+02  0.21523108475E+02  0.56286948018E+01  0.47787266947E+02  0.19999981317E+02 0.  0.
         12    1    1    2    0    0  0.37265228108E+02 -0.21523108475E+02 -0.56286948018E+01  0.43400733053E+02  0.00000000000E+00 0. -1.
         11    1    3    3    0    0 -0.85818060480E+01 -0.58812381205E+00  0.22739418081E+01  0.88974207652E+01  0.51100000000E-03 0. -1.
        -11    1    3    3    0    0 -0.13576148373E+02  0.36753492679E+01  0.51718463566E+01  0.14985592810E+02  0.51100000000E-03 0.  1.
         12    1    3    3    0    0 -0.15107273688E+02  0.18435883019E+02 -0.18170933629E+01  0.23904253371E+02  0.00000000000E+00 0. -1.
</event>
<event>
 7    1  0.1418970E-010  0.4778728E+02  0.7816164E-02  0.1312668E+00
        -11   -1    0    0    0    0  0.00000000000E+00  0.00000000000E+00  0.45593999997E+02  0.45594000000E+02  0.51100000000E-03 0.  1.
         11   -1    0    0    0    0 -0.00000000000E+00 -0.00000000000E+00 -0.45593999997E+02  0.45594000000E+02  0.51100000000E-03 0. -1.
    9900012    2    1    2    0    0 -0.25554177101E+02 -0.10625278891E+02  0.33432171929E+02  0.47787278361E+02  0.20000033361E+02 0.  0.
         12    1    1    2    0    0  0.25554177101E+02  0.10625278891E+02 -0.33432171929E+02  0.43400721639E+02  0.00000000000E+00 0. -1.
         11    1    3    3    0    0 -0.17908702456E+02 -0.51303436050E+01  0.14816156986E+02  0.23802532581E+02  0.51100000000E-03 0. -1.
        -11    1    3    3    0    0 -0.54701352590E+01  0.23852385476E+01  0.12240387163E+02  0.13617592329E+02  0.51100000000E-03 0.  1.
         12    1    3    3    0    0 -0.21753393867E+01 -0.78801738338E+01  0.63756277800E+01  0.10367153452E+02  0.00000000000E+00 0. -1.
</event>
<event>
 7    1  0.1418970E-010  0.4778728E+02  0.7816164E-02  0.1312668E+00
        -11   -1    0    0    0    0  0.00000000000E+00  0.00000000000E+00  0.45593999997E+02  0.45594000000E+02  0.51100000000E-03 0.  1.
         11   -1    0    0    0    0 -0.00000000000E+00 -0.00000000000E+00 -0.45593999997E+02  0.45594000000E+02  0.51100000000E-03 0. -1.
    9900012    2    1    2    0    0 -0.57183138023E+01  0.43015606160E+02 -0.76200725413E+00  0.47787284095E+02  0.20000059501E+02 0.  0.
         12    1    1    2    0    0  0.57183138023E+01 -0.43015606160E+02  0.76200725413E+00  0.43400715905E+02  0.00000000000E+00 0. -1.
         11    1    3    3    0    0 -0.61591789913E+01  0.12156875856E+02  0.53258163160E+01  0.14631795382E+02  0.51100000000E-03 0.  1.
        -11    1    3    3    0    0  0.44355263642E+00  0.13446332335E+01 -0.32014609236E+01  0.35005899189E+01  0.51100000000E-03 0. -1.
        -12    1    3    3    0    0 -0.26874474662E-02  0.29514097071E+02 -0.28863626466E+01  0.29654898793E+02  0.00000000000E+00 0.  1.
</event>
<event>
 7    1  0.1418970E-010  0.4778727E+02  0.7816164E-02  0.1312668E+00
        -11   -1    0    0    0    0  0.00000000000E+00  0.00000000000E+00  0.45593999997E+02  0.45594000000E+02  0.51100000000E-03 0.  1.
         11   -1    0    0    0    0 -0.00000000000E+00 -0.00000000000E+00 -0.45593999997E+02  0.45594000000E+02  0.51100000000E-03 0. -1.
    9900012    2    1    2    0    0  0.35329593314E+02  0.17078310853E+02  0.18541166262E+02  0.47787266001E+02  0.19999977005E+02 0.  0.
         12    1    1    2    0    0 -0.35329593314E+02 -0.17078310853E+02 -0.18541166262E+02  0.43400733999E+02  0.00000000000E+00 0. -1.
         11    1    3    3    0    0  0.79064917405E+01  0.40770075870E+01 -0.34970563957E+01  0.95584520820E+01  0.51100000000E-03 0. -1.
        -11    1    3    3    0    0  0.19114666621E+02  0.72951687384E+01  0.10807837220E+02  0.23138697297E+02  0.51100000000E-03 0.  1.
        -12    1    3    3    0    0  0.83084349519E+01  0.57061345275E+01  0.11230385437E+02  0.15090116622E+02  0.00000000000E+00 0.  1.
</event>
<event>
 7    1  0.1418970E-010  0.4778726E+02  0.7816164E-02  0.1312668E+00
        -11   -1    0    0    0    0  0.00000000000E+00  0.00000000000E+00  0.45593999997E+02  0.45594000000E+02  0.51100000000E-03 0.  1.
         11   -1    0    0    0    0 -0.00000000000E+00 -0.00000000000E+00 -0.45593999997E+02  0.45594000000E+02  0.51100000000E-03 0. -1.
    9900012    2    1    2    0    0  0.42051581344E+02  0.37153057251E+01  0.10073972422E+02  0.47787263710E+02  0.19999966560E+02 0.  0.
         12    1    1    2    0    0 -0.42051581344E+02 -0.37153057251E+01 -0.10073972422E+02  0.43400736290E+02  0.00000000000E+00 0. -1.
         11    1    3    3    0    0  0.91541680307E+01  0.69520672925E+01 -0.27324367388E+01  0.11815085390E+02  0.51100000000E-03 0. -1.
        -11    1    3    3    0    0  0.79072429528E+01 -0.66470626218E+00  0.59885701693E+01  0.99412925952E+01  0.51100000000E-03 0.  1.
         12    1    3    3    0    0  0.24990170360E+02 -0.25720553052E+01  0.68178389916E+01  0.26030885725E+02  0.00000000000E+00 0. -1.
</event>
<event>
 7    1  0.1418970E-010  0.4778727E+02  0.7816164E-02  0.1312668E+00
        -11   -1    0    0    0    0  0.00000000000E+00  0.00000000000E+00  0.45593999997E+02  0.45594000000E+02  0.51100000000E-03 0.  1.
         11   -1    0    0    0    0 -0.00000000000E+00 -0.00000000000E+00 -0.45593999997E+02  0.45594000000E+02  0.51100000000E-03 0. -1.
    9900012    2    1    2    0    0 -0.40220182992E+02  0.12501294291E+02 -0.10472730578E+02  0.47787267695E+02  0.19999984727E+02 0.  0.
         12    1    1    2    0    0  0.40220182992E+02 -0.12501294291E+02  0.10472730578E+02  0.43400732305E+02  0.00000000000E+00 0. -1.
         11    1    3    3    0    0 -0.36405977749E+02  0.11815255275E+02 -0.13935620992E+02  0.40733242024E+02  0.51100000000E-03 0. -1.
        -11    1    3    3    0    0 -0.35705569442E+01 -0.12630570347E+01  0.10256875207E+01  0.39238023798E+01  0.51100000000E-03 0.  1.
         12    1    3    3    0    0 -0.24364829892E+00  0.19490960510E+01  0.24372028931E+01  0.31302232911E+01  0.00000000000E+00 0. -1.
</event>
<event>
 7    1  0.1418970E-010  0.4778727E+02  0.7816164E-02  0.1312668E+00
        -11   -1    0    0    0    0  0.00000000000E+00  0.00000000000E+00  0.45593999997E+02  0.45594000000E+02  0.51100000000E-03 0. -1.
         11   -1    0    0    0    0 -0.00000000000E+00 -0.00000000000E+00 -0.45593999997E+02  0.45594000000E+02  0.51100000000E-03 0.  1.
    9900012    2    1    2    0    0 -0.53081158510E+01 -0.96453815163E+01 -0.41981112087E+02  0.47787271313E+02  0.20000001224E+02 0.  0.
         12    1    1    2    0    0  0.53081158510E+01  0.96453815163E+01  0.41981112087E+02  0.43400728687E+02  0.00000000000E+00 0. -1.
         11    1    3    3    0    0  0.39293659018E+01  0.15388336742E+01 -0.21433515256E+02  0.21844988028E+02  0.51100000000E-03 0. -1.
        -11    1    3    3    0    0 -0.49052154528E+01 -0.85428018397E+01 -0.17329848377E+02  0.19933997265E+02  0.51100000000E-03 0.  1.
        -12    1    3    3    0    0 -0.43322662999E+01 -0.26414133508E+01 -0.32177484542E+01  0.60082860200E+01  0.00000000000E+00 0.  1.
</event>
<event>
 7    1  0.1418970E-010  0.4778727E+02  0.7816164E-02  0.1312668E+00
        -11   -1    0    0    0    0  0.00000000000E+00  0.00000000000E+00  0.45593999997E+02  0.45594000000E+02  0.51100000000E-03 0.  1.
         11   -1    0    0    0    0 -0.00000000000E+00 -0.00000000000E+00 -0.45593999997E+02  0.45594000000E+02  0.51100000000E-03 0. -1.
    9900012    2    1    2    0    0  0.10799163022E+02 -0.14952405906E+02  0.39286474503E+02  0.47787269094E+02  0.19999991106E+02 0.  0.
         12    1    1    2    0    0 -0.10799163022E+02  0.14952405906E+02 -0.39286474503E+02  0.43400730906E+02  0.00000000000E+00 0. -1.
         11    1    3    3    0    0  0.30110580733E+01  0.22037042925E+01  0.17271463231E+02  0.17669924327E+02  0.51100000000E-03 0. -1.
        -11    1    3    3    0    0  0.89260119626E+01 -0.11627570220E+02  0.17877888645E+02  0.23119104253E+02  0.51100000000E-03 0.  1.
        -12    1    3    3    0    0 -0.11379070135E+01 -0.55285399781E+01  0.41371226263E+01  0.69982405135E+01  0.00000000000E+00 0.  1.
</event>
<event>
 7    1  0.1418970E-010  0.4778727E+02  0.7816164E-02  0.1312668E+00
        -11   -1    0    0    0    0  0.00000000000E+00  0.00000000000E+00  0.45593999997E+02  0.45594000000E+02  0.51100000000E-03 0.  1.
         11   -1    0    0    0    0 -0.00000000000E+00 -0.00000000000E+00 -0.45593999997E+02  0.45594000000E+02  0.51100000000E-03 0. -1.
    9900012    2    1    2    0    0 -0.30573475518E+02 -0.22504318119E+02  0.21034293089E+02  0.47787271608E+02  0.20000002570E+02 0.  0.
         12    1    1    2    0    0  0.30573475518E+02  0.22504318119E+02 -0.21034293089E+02  0.43400728392E+02  0.00000000000E+00 0. -1.
         11    1    3    3    0    0 -0.10653919948E+02  0.96355900836E+00  0.66004560024E+01  0.12569824021E+02  0.51100000000E-03 0. -1.
        -11    1    3    3    0    0 -0.79468785261E+00 -0.51395659808E+01  0.33923817866E+00  0.52116935882E+01  0.51100000000E-03 0.  1.
        -12    1    3    3    0    0 -0.19124867717E+02 -0.18328311146E+02  0.14094598908E+02  0.30005753999E+02  0.00000000000E+00 0.  1.
</event>
<event>
 7    1  0.1418970E-010  0.4778727E+02  0.7816164E-02  0.1312668E+00
        -11   -1    0    0    0    0  0.00000000000E+00  0.00000000000E+00  0.45593999997E+02  0.45594000000E+02  0.51100000000E-03 0. -1.
         11   -1    0    0    0    0 -0.00000000000E+00 -0.00000000000E+00 -0.45593999997E+02  0.45594000000E+02  0.51100000000E-03 0.  1.
    9900012    2    1    2    0    0  0.35379521323E+02 -0.22546540716E+02 -0.11116044366E+02  0.47787268789E+02  0.19999989716E+02 0.  0.
         12    1    1    2    0    0 -0.35379521323E+02  0.22546540716E+02  0.11116044366E+02  0.43400731211E+02  0.00000000000E+00 0. -1.
         11    1    3    3    0    0  0.52730960816E+01 -0.15321977183E+01  0.18794986151E+01  0.58039372360E+01  0.51100000000E-03 0. -1.
        -11    1    3    3    0    0  0.17703113801E+02 -0.17156507140E+02 -0.14974404595E+02  0.28844042171E+02  0.51100000000E-03 0.  1.
         12    1    3    3    0    0  0.12403311440E+02 -0.38578358576E+01  0.19788616133E+01  0.13139289382E+02  0.00000000000E+00 0. -1.
</event>
<event>
 7    1  0.1418970E-010  0.4778726E+02  0.7816164E-02  0.1312668E+00
        -11   -1    0    0    0    0  0.00000000000E+00  0.00000000000E+00  0.45593999997E+02  0.45594000000E+02  0.51100000000E-03 0.  1.
         11   -1    0    0    0    0 -0.00000000000E+00 -0.00000000000E+00 -0.45593999997E+02  0.45594000000E+02  0.51100000000E-03 0. -1.
    9900012    2    1    2    0    0 -0.36746457173E+02 -0.13158102039E+02 -0.18978571948E+02  0.47787263172E+02  0.19999964105E+02 0.  0.
         12    1    1    2    0    0  0.36746457173E+02  0.13158102039E+02  0.18978571948E+02  0.43400736828E+02  0.00000000000E+00 0. -1.
         11    1    3    3    0    0 -0.11407118098E+02  0.74638443037E-01 -0.21180651410E+01  0.11602332283E+02  0.51100000000E-03 0. -1.
        -11    1    3    3    0    0 -0.17835788316E+02 -0.81820486109E+01 -0.33208957088E+01  0.19902000223E+02  0.51100000000E-03 0.  1.
         12    1    3    3    0    0 -0.75035507597E+01 -0.50506918714E+01 -0.13539611098E+02  0.16282930666E+02  0.00000000000E+00 0. -1.
</event>
<event>
 7    1  0.1418970E-010  0.4778726E+02  0.7816164E-02  0.1312668E+00
        -11   -1    0    0    0    0  0.00000000000E+00  0.00000000000E+00  0.45593999997E+02  0.45594000000E+02  0.51100000000E-03 0.  1.
         11   -1    0    0    0    0 -0.00000000000E+00 -0.00000000000E+00 -0.45593999997E+02  0.45594000000E+02  0.51100000000E-03 0. -1.
    9900012    2    1    2    0    0 -0.31595620910E+02 -0.26674115721E+02  0.13184568163E+02  0.47787256368E+02  0.19999933085E+02 0.  0.
         12    1    1    2    0    0  0.31595620910E+02  0.26674115721E+02 -0.13184568163E+02  0.43400743632E+02  0.00000000000E+00 0. -1.
         11    1    3    3    0    0  0.50021831684E+00 -0.37001074127E+01  0.31181163077E+00  0.37467639349E+01  0.51100000000E-03 0. -1.
        -11    1    3    3    0    0 -0.27702146061E+02 -0.24835018482E+02  0.10227910437E+02  0.38584934775E+02  0.51100000000E-03 0.  1.
        -12    1    3    3    0    0 -0.43936931652E+01  0.18610101739E+01  0.26448460953E+01  0.54555576585E+01  0.00000000000E+00 0.  1.
</event>
<event>
 7    1  0.1418970E-010  0.4778728E+02  0.7816164E-02  0.1312668E+00
        -11   -1    0    0    0    0  0.00000000000E+00  0.00000000000E+00  0.45593999997E+02  0.45594000000E+02  0.51100000000E-03 0.  1.
         11   -1    0    0    0    0 -0.00000000000E+00 -0.00000000000E+00 -0.45593999997E+02  0.45594000000E+02  0.51100000000E-03 0. -1.
    9900012    2    1    2    0    0  0.84255208544E+01 -0.16561452309E+02  0.39221824959E+02  0.47787278147E+02  0.20000032383E+02 0.  0.
         12    1    1    2    0    0 -0.84255208544E+01  0.16561452309E+02 -0.39221824959E+02  0.43400721853E+02  0.00000000000E+00 0. -1.
         11    1    3    3    0    0  0.43238048801E+01  0.13518592230E+01  0.15727078658E+02  0.16366545615E+02  0.51100000000E-03 0. -1.
        -11    1    3    3    0    0 -0.23689297041E+01 -0.13874519385E+01  0.54969961955E+01  0.61444135814E+01  0.51100000000E-03 0.  1.
        -12    1    3    3    0    0  0.64706456785E+01 -0.16525859594E+02  0.17997750105E+02  0.25276318950E+02  0.00000000000E+00 0.  1.
</event>
<event>
 7    1  0.1418970E-010  0.4778727E+02  0.7816164E-02  0.1312668E+00
        -11   -1    0    0    0    0  0.00000000000E+00  0.00000000000E+00  0.45593999997E+02  0.45594000000E+02  0.51100000000E-03 0.  1.
         11   -1    0    0    0    0 -0.00000000000E+00 -0.00000000000E+00 -0.45593999997E+02  0.45594000000E+02  0.51100000000E-03 0. -1.
    9900012    2    1    2    0    0 -0.18984323188E+02 -0.26028660701E+02  0.29081393516E+02  0.47787272430E+02  0.20000006316E+02 0.  0.
         12    1    1    2    0    0  0.18984323188E+02  0.26028660701E+02 -0.29081393516E+02  0.43400727570E+02  0.00000000000E+00 0. -1.
         11    1    3    3    0    0 -0.94516776413E+01 -0.66571791327E+01  0.14418288436E+02  0.18480781529E+02  0.51100000000E-03 0. -1.
        -11    1    3    3    0    0 -0.66929218432E+01 -0.19888839426E+02  0.15733520575E+02  0.26227939425E+02  0.51100000000E-03 0.  1.
         12    1    3    3    0    0 -0.28397237032E+01  0.51735785812E+00 -0.10704154940E+01  0.30785514766E+01  0.00000000000E+00 0. -1.
</event>
<event>
 7    1  0.1418970E-010  0.4778728E+02  0.7816164E-02  0.1312668E+00
        -11   -1    0    0    0    0  0.00000000000E+00  0.00000000000E+00  0.45593999997E+02  0.45594000000E+02  0.51100000000E-03 0. -1.
         11   -1    0    0    0    0 -0.00000000000E+00 -0.00000000000E+00 -0.45593999997E+02  0.45594000000E+02  0.51100000000E-03 0.  1.
    9900012    2    1    2    0    0  0.40913500778E+02  0.43381707196E+01  0.13816215970E+02  0.47787284627E+02  0.20000061930E+02 0.  0.
         12    1    1    2    0    0 -0.40913500778E+02 -0.43381707196E+01 -0.13816215970E+02  0.43400715373E+02  0.00000000000E+00 0. -1.
         11    1    3    3    0    0  0.13831849078E+02  0.36130056094E+01  0.96155369805E+01  0.17228824978E+02  0.51100000000E-03 0. -1.
        -11    1    3    3    0    0  0.92909247059E+01  0.57591847232E+01 -0.18870353991E+01  0.11092808185E+02  0.51100000000E-03 0.  1.
        -12    1    3    3    0    0  0.17790726995E+02 -0.50340196130E+01  0.60877143881E+01  0.19465651464E+02  0.00000000000E+00 0.  1.
</event>
<event>
 7    1  0.1418970E-010  0.4778727E+02  0.7816164E-02  0.1312668E+00
        -11   -1    0    0    0    0  0.00000000000E+00  0.00000000000E+00  0.45593999997E+02  0.45594000000E+02  0.51100000000E-03 0. -1.
         11   -1    0    0    0    0 -0.00000000000E+00 -0.00000000000E+00 -0.45593999997E+02  0.45594000000E+02  0.51100000000E-03 0.  1.
    9900012    2    1    2    0    0  0.12883801674E+02  0.94377425252E+01 -0.40355420493E+02  0.47787270827E+02  0.19999999010E+02 0.  0.
         12    1    1    2    0    0 -0.12883801674E+02 -0.94377425252E+01  0.40355420493E+02  0.43400729173E+02  0.00000000000E+00 0. -1.
         11    1    3    3    0    0  0.11654680784E+02  0.74301551082E+01 -0.21088616420E+02  0.25214450855E+02  0.51100000000E-03 0. -1.
        -11    1    3    3    0    0 -0.45545372434E+00  0.59234923845E+01 -0.52709742677E+01  0.79421892521E+01  0.51100000000E-03 0.  1.
         12    1    3    3    0    0  0.16845746141E+01 -0.39159049676E+01 -0.13995829805E+02  0.14630630720E+02  0.00000000000E+00 0. -1.
</event>
<event>
 7    1  0.1418970E-010  0.4778727E+02  0.7816164E-02  0.1312668E+00
        -11   -1    0    0    0    0  0.00000000000E+00  0.00000000000E+00  0.45593999997E+02  0.45594000000E+02  0.51100000000E-03 0.  1.
         11   -1    0    0    0    0 -0.00000000000E+00 -0.00000000000E+00 -0.45593999997E+02  0.45594000000E+02  0.51100000000E-03 0. -1.
    9900012    2    1    2    0    0  0.40454536344E+02  0.13970176758E+02  0.72033135522E+01  0.47787273328E+02  0.20000010414E+02 0.  0.
         12    1    1    2    0    0 -0.40454536344E+02 -0.13970176758E+02 -0.72033135522E+01  0.43400726672E+02  0.00000000000E+00 0. -1.
         11    1    3    3    0    0  0.11152307411E+02  0.82541634291E+01  0.33329228491E+01  0.14269321970E+02  0.51100000000E-03 0. -1.
        -11    1    3    3    0    0  0.56742992561E+01 -0.35839889892E+01  0.45639545950E+01  0.81161771129E+01  0.51100000000E-03 0.  1.
        -12    1    3    3    0    0  0.23627929677E+02  0.93000023178E+01 -0.69356389183E+00  0.25401774246E+02  0.00000000000E+00 0.  1.
</event>
<event>
 7    1  0.1418970E-010  0.4778727E+02  0.7816164E-02  0.1312668E+00
        -11   -1    0    0    0    0  0.00000000000E+00  0.00000000000E+00  0.45593999997E+02  0.45594000000E+02  0.51100000000E-03 0.  1.
         11   -1    0    0    0    0 -0.00000000000E+00 -0.00000000000E+00 -0.45593999997E+02  0.45594000000E+02  0.51100000000E-03 0. -1.
    9900012    2    1    2    0    0  0.11387920924E+02 -0.18135341324E+02  0.37749808367E+02  0.47787269826E+02  0.19999994443E+02 0.  0.
         12    1    1    2    0    0 -0.11387920924E+02  0.18135341324E+02 -0.37749808367E+02  0.43400730174E+02  0.00000000000E+00 0. -1.
         11    1    3    3    0    0 -0.28551084283E+01 -0.43933890319E+01  0.10930370279E+02  0.12121324434E+02  0.51100000000E-03 0. -1.
        -11    1    3    3    0    0  0.12905034948E+02 -0.14527414839E+02  0.27734823445E+02  0.33864526287E+02  0.51100000000E-03 0.  1.
         12    1    3    3    0    0  0.13379944043E+01  0.78546254661E+00 -0.91538535677E+00  0.18014191044E+01  0.00000000000E+00 0. -1.
</event>
<event>
 7    1  0.1418970E-010  0.4778726E+02  0.7816164E-02  0.1312668E+00
        -11   -1    0    0    0    0  0.00000000000E+00  0.00000000000E+00  0.45593999997E+02  0.45594000000E+02  0.51100000000E-03 0.  1.
         11   -1    0    0    0    0 -0.00000000000E+00 -0.00000000000E+00 -0.45593999997E+02  0.45594000000E+02  0.51100000000E-03 0. -1.
    9900012    2    1    2    0    0  0.34363491011E+02 -0.19538148373E+02  0.17917468864E+02  0.47787257532E+02  0.19999938389E+02 0.  0.
         12    1    1    2    0    0 -0.34363491011E+02  0.19538148373E+02 -0.17917468864E+02  0.43400742468E+02  0.00000000000E+00 0. -1.
         11    1    3    3    0    0  0.10027794656E+02 -0.11620046887E+01  0.10554503800E+02  0.14604946809E+02  0.51100000000E-03 0. -1.
        -11    1    3    3    0    0  0.22004054617E+02 -0.11131275224E+02  0.45952555030E+01  0.25083860969E+02  0.51100000000E-03 0.  1.
        -12    1    3    3    0    0  0.23316417378E+01 -0.72448684610E+01  0.27677095611E+01  0.80984497544E+01  0.00000000000E+00 0.  1.
</event>
<event>
 7    1  0.1418970E-010  0.4778727E+02  0.7816164E-02  0.1312668E+00
        -11   -1    0    0    0    0  0.00000000000E+00  0.00000000000E+00  0.45593999997E+02  0.45594000000E+02  0.51100000000E-03 0.  1.
         11   -1    0    0    0    0 -0.00000000000E+00 -0.00000000000E+00 -0.45593999997E+02  0.45594000000E+02  0.51100000000E-03 0. -1.
    9900012    2    1    2    0    0 -0.37613244687E+02 -0.17810343341E+02  0.12314973037E+02  0.47787273431E+02  0.20000010883E+02 0.  0.
         12    1    1    2    0    0  0.37613244687E+02  0.17810343341E+02 -0.12314973037E+02  0.43400726569E+02  0.00000000000E+00 0. -1.
         11    1    3    3    0    0 -0.58945573619E+01  0.15346052736E+01 -0.37073191634E+00  0.61023161385E+01  0.51100000000E-03 0. -1.
        -11    1    3    3    0    0 -0.28467272741E+02 -0.20246596358E+02  0.78760617690E+01  0.35809811933E+02  0.51100000000E-03 0.  1.
         12    1    3    3    0    0 -0.32514145835E+01  0.90164774341E+00  0.48096431839E+01  0.58751453602E+01  0.00000000000E+00 0. -1.
</event>
<event>
 7    1  0.1418970E-010  0.4778731E+02  0.7816164E-02  0.1312668E+00
        -11   -1    0    0    0    0  0.00000000000E+00  0.00000000000E+00  0.45593999997E+02  0.45594000000E+02  0.51100000000E-03 0. -1.
         11   -1    0    0    0    0 -0.00000000000E+00 -0.00000000000E+00 -0.45593999997E+02  0.45594000000E+02  0.51100000000E-03 0.  1.
    9900012    2    1    2    0    0 -0.15711591780E+02  0.40453785911E+02  0.50650675331E+00  0.47787314984E+02  0.20000200337E+02 0.  0.
         12    1    1    2    0    0  0.15711591780E+02 -0.40453785911E+02 -0.50650675331E+00  0.43400685016E+02  0.00000000000E+00 0. -1.
         11    1    3    3    0    0  0.28316536463E-01 -0.46930677123E+00 -0.14219313833E+01  0.14976447481E+01  0.51100000000E-03 0.  1.
        -11    1    3    3    0    0 -0.17007889708E+02  0.24859829852E+02  0.69119459147E+00  0.30129009324E+02  0.51100000000E-03 0. -1.
         12    1    3    3    0    0  0.12679813908E+01  0.16063262829E+02  0.12372435451E+01  0.16160660912E+02  0.00000000000E+00 0. -1.
</event>
<event>
 7    1  0.1418970E-010  0.4778728E+02  0.7816164E-02  0.1312668E+00
        -11   -1    0    0    0    0  0.00000000000E+00  0.00000000000E+00  0.45593999997E+02  0.45594000000E+02  0.51100000000E-03 0. -1.
         11   -1    0    0    0    0 -0.00000000000E+00 -0.00000000000E+00 -0.45593999997E+02  0.45594000000E+02  0.51100000000E-03 0.  1.
    9900012    2    1    2    0    0  0.14493834132E+02  0.39138306531E+02 -0.11905654615E+02  0.47787275608E+02  0.20000020805E+02 0.  0.
         12    1    1    2    0    0 -0.14493834132E+02 -0.39138306531E+02  0.11905654615E+02  0.43400724392E+02  0.00000000000E+00 0. -1.
         11    1    3    3    0    0  0.32629753156E+01 -0.43305519646E+00 -0.41466885435E+01  0.52942960676E+01  0.51100000000E-03 0.  1.
        -11    1    3    3    0    0 -0.47415429074E+00  0.22023376056E+01 -0.17984770819E+01  0.28826434562E+01  0.51100000000E-03 0. -1.
        -12    1    3    3    0    0  0.11705013107E+02  0.37369024122E+02 -0.59604889897E+01  0.39610336084E+02  0.00000000000E+00 0.  1.
</event>
<event>
 7    1  0.1418970E-010  0.4778727E+02  0.7816164E-02  0.1312668E+00
        -11   -1    0    0    0    0  0.00000000000E+00  0.00000000000E+00  0.45593999997E+02  0.45594000000E+02  0.51100000000E-03 0.  1.
         11   -1    0    0    0    0 -0.00000000000E+00 -0.00000000000E+00 -0.45593999997E+02  0.45594000000E+02  0.51100000000E-03 0. -1.
    9900012    2    1    2    0    0 -0.17924180714E+02 -0.19181476582E+01  0.39479966771E+02  0.47787270502E+02  0.19999997526E+02 0.  0.
         12    1    1    2    0    0  0.17924180714E+02  0.19181476582E+01 -0.39479966771E+02  0.43400729498E+02  0.00000000000E+00 0. -1.
         11    1    3    3    0    0 -0.11180475432E+02 -0.71336398479E+00  0.78676918290E+01  0.13689868299E+02  0.51100000000E-03 0. -1.
        -11    1    3    3    0    0 -0.63931713062E+01 -0.54836323938E+01  0.22486813648E+02  0.24012489497E+02  0.51100000000E-03 0.  1.
         12    1    3    3    0    0 -0.35053397595E+00  0.42788487204E+01  0.91254612948E+01  0.10084912706E+02  0.00000000000E+00 0. -1.
</event>
<event>
 7    1  0.1418970E-010  0.4778727E+02  0.7816164E-02  0.1312668E+00
        -11   -1    0    0    0    0  0.00000000000E+00  0.00000000000E+00  0.45593999997E+02  0.45594000000E+02  0.51100000000E-03 0.  1.
         11   -1    0    0    0    0 -0.00000000000E+00 -0.00000000000E+00 -0.45593999997E+02  0.45594000000E+02  0.51100000000E-03 0. -1.
    9900012    2    1    2    0    0  0.11737468481E+02 -0.10303737819E+02  0.40493064848E+02  0.47787268668E+02  0.19999989166E+02 0.  0.
         12    1    1    2    0    0 -0.11737468481E+02  0.10303737819E+02 -0.40493064848E+02  0.43400731332E+02  0.00000000000E+00 0. -1.
         11    1    3    3    0    0 -0.57247639124E+00 -0.52074406369E+01  0.90316020994E+01  0.10441025043E+02  0.51100000000E-03 0.  1.
        -11    1    3    3    0    0 -0.22996926488E+01 -0.49250103542E+01  0.10032833227E+02  0.11410611556E+02  0.51100000000E-03 0. -1.
        -12    1    3    3    0    0  0.14609637521E+02 -0.17128682832E+00  0.21428629521E+02  0.25935632069E+02  0.00000000000E+00 0.  1.
</event>
<event>
 7    1  0.1418970E-010  0.4778727E+02  0.7816164E-02  0.1312668E+00
        -11   -1    0    0    0    0  0.00000000000E+00  0.00000000000E+00  0.45593999997E+02  0.45594000000E+02  0.51100000000E-03 0.  1.
         11   -1    0    0    0    0 -0.00000000000E+00 -0.00000000000E+00 -0.45593999997E+02  0.45594000000E+02  0.51100000000E-03 0. -1.
    9900012    2    1    2    0    0  0.17598565222E+02  0.41828459142E+01  0.39451458661E+02  0.47787270878E+02  0.19999999241E+02 0.  0.
         12    1    1    2    0    0 -0.17598565222E+02 -0.41828459142E+01 -0.39451458661E+02  0.43400729122E+02  0.00000000000E+00 0. -1.
         11    1    3    3    0    0 -0.15046802014E+01  0.25839252321E+01  0.55765606016E+01  0.63276188664E+01  0.51100000000E-03 0. -1.
        -11    1    3    3    0    0  0.93174869406E+01  0.58603829723E+01  0.25881414155E+02  0.28124851118E+02  0.51100000000E-03 0.  1.
         12    1    3    3    0    0  0.97857584832E+01 -0.42614622902E+01  0.79934839041E+01  0.13334800893E+02  0.00000000000E+00 0. -1.
</event>
<event>
 7    1  0.1418970E-010  0.4778727E+02  0.7816164E-02  0.1312668E+00
        -11   -1    0    0    0    0  0.00000000000E+00  0.00000000000E+00  0.45593999997E+02  0.45594000000E+02  0.51100000000E-03 0. -1.
         11   -1    0    0    0    0 -0.00000000000E+00 -0.00000000000E+00 -0.45593999997E+02  0.45594000000E+02  0.51100000000E-03 0.  1.
    9900012    2    1    2    0    0  0.27823850521E+02 -0.30458304050E+02 -0.13481405898E+02  0.47787271337E+02  0.20000001336E+02 0.  0.
         12    1    1    2    0    0 -0.27823850521E+02  0.30458304050E+02  0.13481405898E+02  0.43400728663E+02  0.00000000000E+00 0. -1.
         11    1    3    3    0    0  0.10888030618E+02 -0.15803034362E+02 -0.70306791130E+01  0.20438090783E+02  0.51100000000E-03 0.  1.
        -11    1    3    3    0    0 -0.15711357202E+01  0.11345370965E+01 -0.16660696800E+01  0.25556663151E+01  0.51100000000E-03 0. -1.
         12    1    3    3    0    0  0.18506955623E+02 -0.15789806785E+02 -0.47846571053E+01  0.24793514240E+02  0.00000000000E+00 0. -1.
</event>
<event>
 7    1  0.1418970E-010  0.4778727E+02  0.7816164E-02  0.1312668E+00
        -11   -1    0    0    0    0  0.00000000000E+00  0.00000000000E+00  0.45593999997E+02  0.45594000000E+02  0.51100000000E-03 0. -1.
         11   -1    0    0    0    0 -0.00000000000E+00 -0.00000000000E+00 -0.45593999997E+02  0.45594000000E+02  0.51100000000E-03 0.  1.
    9900012    2    1    2    0    0  0.42952858720E+02 -0.27688408719E+01 -0.55685875552E+01  0.47787265912E+02  0.19999976600E+02 0.  0.
         12    1    1    2    0    0 -0.42952858720E+02  0.27688408719E+01  0.55685875552E+01  0.43400734088E+02  0.00000000000E+00 0. -1.
         11    1    3    3    0    0  0.11987859917E+02 -0.50765227016E+01 -0.23957538067E+00  0.13020647631E+02  0.51100000000E-03 0. -1.
        -11    1    3    3    0    0  0.31980844995E+02  0.28214971599E+01 -0.68885727428E+01  0.32835769026E+02  0.51100000000E-03 0.  1.
         12    1    3    3    0    0 -0.10158461916E+01 -0.51381533023E+00  0.15595605682E+01  0.19308492548E+01  0.00000000000E+00 0. -1.
</event>
<event>
 7    1  0.1418970E-010  0.4778727E+02  0.7816164E-02  0.1312668E+00
        -11   -1    0    0    0    0  0.00000000000E+00  0.00000000000E+00  0.45593999997E+02  0.45594000000E+02  0.51100000000E-03 0. -1.
         11   -1    0    0    0    0 -0.00000000000E+00 -0.00000000000E+00 -0.45593999997E+02  0.45594000000E+02  0.51100000000E-03 0.  1.
    9900012    2    1    2    0    0  0.17362712657E+02  0.23054856355E+02 -0.32413473973E+02  0.47787268585E+02  0.19999988784E+02 0.  0.
         12    1    1    2    0    0 -0.17362712657E+02 -0.23054856355E+02  0.32413473973E+02  0.43400731415E+02  0.00000000000E+00 0. -1.
         11    1    3    3    0    0  0.45566607717E+01 -0.10487702651E+01 -0.70289310852E+01  0.84420938706E+01  0.51100000000E-03 0. -1.
        -11    1    3    3    0    0  0.15121073381E+02  0.21250567094E+02 -0.20191384676E+02  0.32983715337E+02  0.51100000000E-03 0.  1.
         12    1    3    3    0    0 -0.23150214965E+01  0.28530595269E+01 -0.51931582123E+01  0.63614593774E+01  0.00000000000E+00 0. -1.
</event>
<event>
 7    1  0.1418970E-010  0.4778727E+02  0.7816164E-02  0.1312668E+00
        -11   -1    0    0    0    0  0.00000000000E+00  0.00000000000E+00  0.45593999997E+02  0.45594000000E+02  0.51100000000E-03 0. -1.
         11   -1    0    0    0    0 -0.00000000000E+00 -0.00000000000E+00 -0.45593999997E+02  0.45594000000E+02  0.51100000000E-03 0.  1.
    9900012    2    1    2    0    0  0.30174134957E+02 -0.59178994784E+01 -0.30628798906E+02  0.47787271008E+02  0.19999999834E+02 0.  0.
         12    1    1    2    0    0 -0.30174134957E+02  0.59178994784E+01  0.30628798906E+02  0.43400728992E+02  0.00000000000E+00 0. -1.
         11    1    3    3    0    0  0.12092460738E+01  0.27294208610E+01 -0.38577003992E+01  0.48778957486E+01  0.51100000000E-03 0. -1.
        -11    1    3    3    0    0  0.23366627936E+02 -0.37517210932E+01 -0.26412277491E+02  0.35463828259E+02  0.51100000000E-03 0.  1.
         12    1    3    3    0    0  0.55982609470E+01 -0.48955992462E+01 -0.35882101540E+00  0.74455470001E+01  0.00000000000E+00 0. -1.
</event>
<event>
 7    1  0.1418970E-010  0.4778727E+02  0.7816164E-02  0.1312668E+00
        -11   -1    0    0    0    0  0.00000000000E+00  0.00000000000E+00  0.45593999997E+02  0.45594000000E+02  0.51100000000E-03 0. -1.
         11   -1    0    0    0    0 -0.00000000000E+00 -0.00000000000E+00 -0.45593999997E+02  0.45594000000E+02  0.51100000000E-03 0.  1.
    9900012    2    1    2    0    0  0.40123086711E+02  0.15992031295E+02 -0.42445556630E+01  0.47787269534E+02  0.19999993114E+02 0.  0.
         12    1    1    2    0    0 -0.40123086711E+02 -0.15992031295E+02  0.42445556630E+01  0.43400730466E+02  0.00000000000E+00 0. -1.
         11    1    3    3    0    0  0.13619605859E+02  0.10182755171E+02 -0.44752429901E+01  0.17584367112E+02  0.51100000000E-03 0. -1.
        -11    1    3    3    0    0  0.18011743099E+02 -0.14569669597E+01 -0.35276442120E+01  0.18411678797E+02  0.51100000000E-03 0.  1.
         12    1    3    3    0    0  0.84917377528E+01  0.72662430839E+01  0.37583315390E+01  0.11791223625E+02  0.00000000000E+00 0. -1.
</event>
<event>
 7    1  0.1418970E-010  0.4778727E+02  0.7816164E-02  0.1312668E+00
        -11   -1    0    0    0    0  0.00000000000E+00  0.00000000000E+00  0.45593999997E+02  0.45594000000E+02  0.51100000000E-03 0.  1.
         11   -1    0    0    0    0 -0.00000000000E+00 -0.00000000000E+00 -0.45593999997E+02  0.45594000000E+02  0.51100000000E-03 0. -1.
    9900012    2    1    2    0    0  0.37807486027E+02 -0.59442233575E+01  0.20466646018E+02  0.47787269705E+02  0.19999993891E+02 0.  0.
         12    1    1    2    0    0 -0.37807486027E+02  0.59442233575E+01 -0.20466646018E+02  0.43400730295E+02  0.00000000000E+00 0. -1.
         11    1    3    3    0    0  0.54278666442E+01  0.13561845352E+01 -0.31961528020E+01  0.64433194703E+01  0.51100000000E-03 0. -1.
        -11    1    3    3    0    0  0.21708070925E+02 -0.50804932196E+01  0.11766588891E+02  0.25209211988E+02  0.51100000000E-03 0.  1.
        -12    1    3    3    0    0  0.10671548457E+02 -0.22199146732E+01  0.11896209928E+02  0.16134738247E+02  0.00000000000E+00 0.  1.
</event>
<event>
 7    1  0.1418970E-010  0.4778727E+02  0.7816164E-02  0.1312668E+00
        -11   -1    0    0    0    0  0.00000000000E+00  0.00000000000E+00  0.45593999997E+02  0.45594000000E+02  0.51100000000E-03 0. -1.
         11   -1    0    0    0    0 -0.00000000000E+00 -0.00000000000E+00 -0.45593999997E+02  0.45594000000E+02  0.51100000000E-03 0.  1.
    9900012    2    1    2    0    0 -0.17487514814E+02  0.38256016823E+02 -0.10690509671E+02  0.47787274262E+02  0.20000014672E+02 0.  0.
         12    1    1    2    0    0  0.17487514814E+02 -0.38256016823E+02  0.10690509671E+02  0.43400725738E+02  0.00000000000E+00 0. -1.
         11    1    3    3    0    0  0.74067992764E+00  0.19994766094E+01  0.20033175470E+01  0.29257127203E+01  0.51100000000E-03 0. -1.
        -11    1    3    3    0    0  0.60151494708E+00  0.12336659082E+02 -0.15695829012E+01  0.12450645296E+02  0.51100000000E-03 0.  1.
        -12    1    3    3    0    0 -0.18829709688E+02  0.23919881132E+02 -0.11124244317E+02  0.32410916246E+02  0.00000000000E+00 0.  1.
</event>
<event>
 7    1  0.1418970E-010  0.4778727E+02  0.7816164E-02  0.1312668E+00
        -11   -1    0    0    0    0  0.00000000000E+00  0.00000000000E+00  0.45593999997E+02  0.45594000000E+02  0.51100000000E-03 0.  1.
         11   -1    0    0    0    0 -0.00000000000E+00 -0.00000000000E+00 -0.45593999997E+02  0.45594000000E+02  0.51100000000E-03 0. -1.
    9900012    2    1    2    0    0 -0.59470866540E+01 -0.11523106010E+02  0.41418275390E+02  0.47787270189E+02  0.19999996101E+02 0.  0.
         12    1    1    2    0    0  0.59470866540E+01  0.11523106010E+02 -0.41418275390E+02  0.43400729811E+02  0.00000000000E+00 0. -1.
         11    1    3    3    0    0  0.82483785110E-01  0.23972544497E+01  0.14650450550E+02  0.14845515620E+02  0.51100000000E-03 0. -1.
        -11    1    3    3    0    0 -0.85513217894E+01 -0.95123324437E+01  0.23905164621E+02  0.27112109263E+02  0.51100000000E-03 0.  1.
         12    1    3    3    0    0  0.25217513503E+01 -0.44080280157E+01  0.28626602199E+01  0.58296453061E+01  0.00000000000E+00 0. -1.
</event>
<event>
 7    1  0.1418970E-010  0.4778727E+02  0.7816164E-02  0.1312668E+00
        -11   -1    0    0    0    0  0.00000000000E+00  0.00000000000E+00  0.45593999997E+02  0.45594000000E+02  0.51100000000E-03 0. -1.
         11   -1    0    0    0    0 -0.00000000000E+00 -0.00000000000E+00 -0.45593999997E+02  0.45594000000E+02  0.51100000000E-03 0.  1.
    9900012    2    1    2    0    0  0.31103986380E+01  0.37202107894E+02 -0.22134867224E+02  0.47787265462E+02  0.19999974547E+02 0.  0.
         12    1    1    2    0    0 -0.31103986380E+01 -0.37202107894E+02  0.22134867224E+02  0.43400734538E+02  0.00000000000E+00 0. -1.
         11    1    3    3    0    0 -0.46392023497E+01  0.25414396062E+02 -0.17520062446E+02  0.31214841246E+02  0.51100000000E-03 0. -1.
        -11    1    3    3    0    0  0.19851643378E+01  0.87667816192E+01 -0.78934506862E+00  0.90233255126E+01  0.51100000000E-03 0.  1.
         12    1    3    3    0    0  0.57644366500E+01  0.30209302122E+01 -0.38254597093E+01  0.75490987029E+01  0.00000000000E+00 0. -1.
</event>
<event>
 7    1  0.1418970E-010  0.4778727E+02  0.7816164E-02  0.1312668E+00
        -11   -1    0    0    0    0  0.00000000000E+00  0.00000000000E+00  0.45593999997E+02  0.45594000000E+02  0.51100000000E-03 0.  1.
         11   -1    0    0    0    0 -0.00000000000E+00 -0.00000000000E+00 -0.45593999997E+02  0.45594000000E+02  0.51100000000E-03 0. -1.
    9900012    2    1    2    0    0  0.21737766951E+02  0.27330453935E+02  0.25770890091E+02  0.47787274195E+02  0.20000014367E+02 0.  0.
         12    1    1    2    0    0 -0.21737766951E+02 -0.27330453935E+02 -0.25770890091E+02  0.43400725805E+02  0.00000000000E+00 0. -1.
         11    1    3    3    0    0 -0.91708921479E+00  0.34320722004E+01  0.36829662100E+00  0.35715283674E+01  0.51100000000E-03 0. -1.
        -11    1    3    3    0    0  0.17406687993E+02  0.23109215878E+02  0.25970914062E+02  0.38878233278E+02  0.51100000000E-03 0.  1.
        -12    1    3    3    0    0  0.52481681733E+01  0.78916585581E+00 -0.56832059211E+00  0.53375125497E+01  0.00000000000E+00 0.  1.
</event>
<event>
 7    1  0.1418970E-010  0.4778727E+02  0.7816164E-02  0.1312668E+00
        -11   -1    0    0    0    0  0.00000000000E+00  0.00000000000E+00  0.45593999997E+02  0.45594000000E+02  0.51100000000E-03 0.  1.
         11   -1    0    0    0    0 -0.00000000000E+00 -0.00000000000E+00 -0.45593999997E+02  0.45594000000E+02  0.51100000000E-03 0. -1.
    9900012    2    1    2    0    0  0.94726557697E+01 -0.26705703664E+02  0.32873969003E+02  0.47787266671E+02  0.19999980059E+02 0.  0.
         12    1    1    2    0    0 -0.94726557697E+01  0.26705703664E+02 -0.32873969003E+02  0.43400733329E+02  0.00000000000E+00 0. -1.
         11    1    3    3    0    0  0.88449501659E+01 -0.15511342002E+02  0.16291233676E+02  0.24171039884E+02  0.51100000000E-03 0. -1.
        -11    1    3    3    0    0  0.34061167576E+01 -0.93596582583E+01  0.42274375341E+01  0.10820169243E+02  0.51100000000E-03 0.  1.
        -12    1    3    3    0    0 -0.27784111538E+01 -0.18347034039E+01  0.12355297793E+02  0.12796057544E+02  0.00000000000E+00 0.  1.
</event>
<event>
 7    1  0.1418970E-010  0.4778727E+02  0.7816164E-02  0.1312668E+00
        -11   -1    0    0    0    0  0.00000000000E+00  0.00000000000E+00  0.45593999997E+02  0.45594000000E+02  0.51100000000E-03 0.  1.
         11   -1    0    0    0    0 -0.00000000000E+00 -0.00000000000E+00 -0.45593999997E+02  0.45594000000E+02  0.51100000000E-03 0. -1.
    9900012    2    1    2    0    0 -0.74257919523E+01  0.22142352106E+02  0.36581381428E+02  0.47787267171E+02  0.19999982341E+02 0.  0.
         12    1    1    2    0    0  0.74257919523E+01 -0.22142352106E+02 -0.36581381428E+02  0.43400732829E+02  0.00000000000E+00 0. -1.
         11    1    3    3    0    0 -0.59951145380E+01  0.11074332792E+02  0.25236415662E+02  0.28203881308E+02  0.51100000000E-03 0. -1.
        -11    1    3    3    0    0 -0.10733006260E+01  0.72392801627E+01  0.13366624396E+02  0.15238956641E+02  0.51100000000E-03 0.  1.
         12    1    3    3    0    0 -0.35737678828E+00  0.38287391504E+01 -0.20216586297E+01  0.43444292220E+01  0.00000000000E+00 0. -1.
</event>
<event>
 7    1  0.1418970E-010  0.4778727E+02  0.7816164E-02  0.1312668E+00
        -11   -1    0    0    0    0  0.00000000000E+00  0.00000000000E+00  0.45593999997E+02  0.45594000000E+02  0.51100000000E-03 0. -1.
         11   -1    0    0    0    0 -0.00000000000E+00 -0.00000000000E+00 -0.45593999997E+02  0.45594000000E+02  0.51100000000E-03 0.  1.
    9900012    2    1    2    0    0 -0.35006678775E+02 -0.24355592543E+02 -0.80598432293E+01  0.47787268211E+02  0.19999987080E+02 0.  0.
         12    1    1    2    0    0  0.35006678775E+02  0.24355592543E+02  0.80598432293E+01  0.43400731789E+02  0.00000000000E+00 0. -1.
         11    1    3    3    0    0 -0.47652701186E+00 -0.34494857989E+01  0.17789796978E+01  0.39103451633E+01  0.51100000000E-03 0. -1.
        -11    1    3    3    0    0 -0.27578344224E+02 -0.18642700807E+02 -0.22883710849E+01  0.33366929826E+02  0.51100000000E-03 0.  1.
         12    1    3    3    0    0 -0.69518075391E+01 -0.22634059370E+01 -0.75504518422E+01  0.10509993222E+02  0.00000000000E+00 0. -1.
</event>
<event>
 7    1  0.1418970E-010  0.4778724E+02  0.7816164E-02  0.1312668E+00
        -11   -1    0    0    0    0  0.00000000000E+00  0.00000000000E+00  0.45593999997E+02  0.45594000000E+02  0.51100000000E-03 0. -1.
         11   -1    0    0    0    0 -0.00000000000E+00 -0.00000000000E+00 -0.45593999997E+02  0.45594000000E+02  0.51100000000E-03 0.  1.
    9900012    2    1    2    0    0 -0.23028462017E+02 -0.11089140606E+02 -0.35076306705E+02  0.47787235096E+02  0.19999836094E+02 0.  0.
         12    1    1    2    0    0  0.23028462017E+02  0.11089140606E+02  0.35076306705E+02  0.43400764904E+02  0.00000000000E+00 0. -1.
         11    1    3    3    0    0 -0.13855064376E+01 -0.33531917011E+01  0.27432447023E+00  0.36385129997E+01  0.51100000000E-03 0. -1.
        -11    1    3    3    0    0 -0.17681181020E+02 -0.13912576906E+01 -0.18074818150E+02  0.25323088509E+02  0.51100000000E-03 0.  1.
        -12    1    3    3    0    0 -0.39617745588E+01 -0.63446912140E+01 -0.17275813025E+02  0.18825633587E+02  0.00000000000E+00 0.  1.
</event>
<event>
 7    1  0.1418970E-010  0.4778727E+02  0.7816164E-02  0.1312668E+00
        -11   -1    0    0    0    0  0.00000000000E+00  0.00000000000E+00  0.45593999997E+02  0.45594000000E+02  0.51100000000E-03 0.  1.
         11   -1    0    0    0    0 -0.00000000000E+00 -0.00000000000E+00 -0.45593999997E+02  0.45594000000E+02  0.51100000000E-03 0. -1.
    9900012    2    1    2    0    0 -0.12664572903E+02  0.12154609810E+02  0.39692539288E+02  0.47787267039E+02  0.19999981736E+02 0.  0.
         12    1    1    2    0    0  0.12664572903E+02 -0.12154609810E+02 -0.39692539288E+02  0.43400732961E+02  0.00000000000E+00 0. -1.
         11    1    3    3    0    0  0.32423120839E+01  0.17018550012E+01  0.11691811388E+02  0.12251830552E+02  0.51100000000E-03 0. -1.
        -11    1    3    3    0    0 -0.96124677492E+01  0.83104010204E+01  0.25390161255E+02  0.28392298078E+02  0.51100000000E-03 0.  1.
         12    1    3    3    0    0 -0.62944172373E+01  0.21423537884E+01  0.26105666459E+01  0.71431384086E+01  0.00000000000E+00 0. -1.
</event>
<event>
 7    1  0.1418970E-010  0.4778727E+02  0.7816164E-02  0.1312668E+00
        -11   -1    0    0    0    0  0.00000000000E+00  0.00000000000E+00  0.45593999997E+02  0.45594000000E+02  0.51100000000E-03 0. -1.
         11   -1    0    0    0    0 -0.00000000000E+00 -0.00000000000E+00 -0.45593999997E+02  0.45594000000E+02  0.51100000000E-03 0.  1.
    9900012    2    1    2    0    0 -0.34917513715E+02 -0.24392375786E+02 -0.83308439148E+01  0.47787265895E+02  0.19999976523E+02 0.  0.
         12    1    1    2    0    0  0.34917513715E+02  0.24392375786E+02  0.83308439148E+01  0.43400734105E+02  0.00000000000E+00 0. -1.
         11    1    3    3    0    0 -0.72046678494E+01 -0.43603497199E+01 -0.75859258730E+01  0.11334291337E+02  0.51100000000E-03 0. -1.
        -11    1    3    3    0    0 -0.21520732321E+02 -0.96009684163E+01  0.30050409383E+01  0.23756068393E+02  0.51100000000E-03 0.  1.
         12    1    3    3    0    0 -0.61921135442E+01 -0.10431057649E+02 -0.37499589801E+01  0.12696906166E+02  0.00000000000E+00 0. -1.
</event>
<event>
 7    1  0.1418970E-010  0.4778727E+02  0.7816164E-02  0.1312668E+00
        -11   -1    0    0    0    0  0.00000000000E+00  0.00000000000E+00  0.45593999997E+02  0.45594000000E+02  0.51100000000E-03 0.  1.
         11   -1    0    0    0    0 -0.00000000000E+00 -0.00000000000E+00 -0.45593999997E+02  0.45594000000E+02  0.51100000000E-03 0. -1.
    9900012    2    1    2    0    0 -0.24854297277E+02  0.35878666904E+01  0.35397943510E+02  0.47787270913E+02  0.19999999401E+02 0.  0.
         12    1    1    2    0    0  0.24854297277E+02 -0.35878666904E+01 -0.35397943510E+02  0.43400729087E+02  0.00000000000E+00 0. -1.
         11    1    3    3    0    0  0.21858603541E+00  0.24391560363E+01  0.24255330523E+01  0.34468061844E+01  0.51100000000E-03 0. -1.
        -11    1    3    3    0    0 -0.58371844252E+01 -0.28277570336E+01  0.65113901690E+00  0.65186589216E+01  0.51100000000E-03 0.  1.
         12    1    3    3    0    0 -0.19235698887E+02  0.39764676878E+01  0.32321271441E+02  0.37821805807E+02  0.00000000000E+00 0. -1.
</event>
<event>
 7    1  0.1418970E-010  0.4778727E+02  0.7816164E-02  0.1312668E+00
        -11   -1    0    0    0    0  0.00000000000E+00  0.00000000000E+00  0.45593999997E+02  0.45594000000E+02  0.51100000000E-03 0.  1.
         11   -1    0    0    0    0 -0.00000000000E+00 -0.00000000000E+00 -0.45593999997E+02  0.45594000000E+02  0.51100000000E-03 0. -1.
    9900012    2    1    2    0    0  0.16997428204E+02 -0.26385025602E+02  0.29975676275E+02  0.47787270632E+02  0.19999998118E+02 0.  0.
         12    1    1    2    0    0 -0.16997428204E+02  0.26385025602E+02 -0.29975676275E+02  0.43400729368E+02  0.00000000000E+00 0. -1.
         11    1    3    3    0    0  0.72963939741E+01 -0.51966437300E+01  0.28356737969E+01  0.93959308866E+01  0.51100000000E-03 0. -1.
        -11    1    3    3    0    0  0.12851841849E+02 -0.18653805779E+02  0.25268010083E+02  0.33935330303E+02  0.51100000000E-03 0.  1.
         12    1    3    3    0    0 -0.31508076191E+01 -0.25345760923E+01  0.18719923952E+01  0.44560094421E+01  0.00000000000E+00 0. -1.
</event>
<event>
 7    1  0.1418970E-010  0.4778727E+02  0.7816164E-02  0.1312668E+00
        -11   -1    0    0    0    0  0.00000000000E+00  0.00000000000E+00  0.45593999997E+02  0.45594000000E+02  0.51100000000E-03 0. -1.
         11   -1    0    0    0    0 -0.00000000000E+00 -0.00000000000E+00 -0.45593999997E+02  0.45594000000E+02  0.51100000000E-03 0.  1.
    9900012    2    1    2    0    0 -0.39749357242E+02  0.17075044151E+02  0.34719541566E+01  0.47787274205E+02  0.20000014409E+02 0.  0.
         12    1    1    2    0    0  0.39749357242E+02 -0.17075044151E+02 -0.34719541566E+01  0.43400725795E+02  0.00000000000E+00 0. -1.
         11    1    3    3    0    0 -0.54971340693E+01  0.61262425236E+01 -0.11330512010E+01  0.83086181594E+01  0.51100000000E-03 0. -1.
        -11    1    3    3    0    0 -0.26362376451E+02  0.15002904795E+02  0.32699554872E+01  0.30508271888E+02  0.51100000000E-03 0.  1.
        -12    1    3    3    0    0 -0.78898467212E+01 -0.40541031672E+01  0.13350498703E+01  0.89703841574E+01  0.00000000000E+00 0.  1.
</event>
<event>
 7    1  0.1418970E-010  0.4778727E+02  0.7816164E-02  0.1312668E+00
        -11   -1    0    0    0    0  0.00000000000E+00  0.00000000000E+00  0.45593999997E+02  0.45594000000E+02  0.51100000000E-03 0.  1.
         11   -1    0    0    0    0 -0.00000000000E+00 -0.00000000000E+00 -0.45593999997E+02  0.45594000000E+02  0.51100000000E-03 0. -1.
    9900012    2    1    2    0    0 -0.16669116372E+02  0.10994517392E+01  0.40056898450E+02  0.47787270188E+02  0.19999996096E+02 0.  0.
         12    1    1    2    0    0  0.16669116372E+02 -0.10994517392E+01 -0.40056898450E+02  0.43400729812E+02  0.00000000000E+00 0. -1.
         11    1    3    3    0    0 -0.43750126330E+01 -0.24878717707E+01  0.25674793038E+02  0.26163433247E+02  0.51100000000E-03 0. -1.
        -11    1    3    3    0    0 -0.10883952693E+02  0.18086537579E+00  0.14253555401E+02  0.17934798028E+02  0.51100000000E-03 0.  1.
         12    1    3    3    0    0 -0.14101510464E+01  0.34064581340E+01  0.12855001151E+00  0.36890389125E+01  0.00000000000E+00 0. -1.
</event>
<event>
 7    1  0.1418970E-010  0.4778727E+02  0.7816164E-02  0.1312668E+00
        -11   -1    0    0    0    0  0.00000000000E+00  0.00000000000E+00  0.45593999997E+02  0.45594000000E+02  0.51100000000E-03 0. -1.
         11   -1    0    0    0    0 -0.00000000000E+00 -0.00000000000E+00 -0.45593999997E+02  0.45594000000E+02  0.51100000000E-03 0.  1.
    9900012    2    1    2    0    0  0.28729934020E+02 -0.85413394598E+00 -0.32518985624E+02  0.47787273283E+02  0.20000010206E+02 0.  0.
         12    1    1    2    0    0 -0.28729934020E+02  0.85413394598E+00  0.32518985624E+02  0.43400726717E+02  0.00000000000E+00 0. -1.
         11    1    3    3    0    0  0.72831643603E+01 -0.38987140493E+01 -0.15651772135E+02  0.17698091015E+02  0.51100000000E-03 0. -1.
        -11    1    3    3    0    0  0.10266553951E+02 -0.36109395834E+01 -0.34925463827E+01  0.11429737320E+02  0.51100000000E-03 0.  1.
        -12    1    3    3    0    0  0.11180215709E+02  0.66555196868E+01 -0.13374667106E+02  0.18659444949E+02  0.00000000000E+00 0.  1.
</event>
<event>
 7    1  0.1418970E-010  0.4778727E+02  0.7816164E-02  0.1312668E+00
        -11   -1    0    0    0    0  0.00000000000E+00  0.00000000000E+00  0.45593999997E+02  0.45594000000E+02  0.51100000000E-03 0.  1.
         11   -1    0    0    0    0 -0.00000000000E+00 -0.00000000000E+00 -0.45593999997E+02  0.45594000000E+02  0.51100000000E-03 0. -1.
    9900012    2    1    2    0    0  0.21911117038E+01  0.31107269719E+02  0.30185430237E+02  0.47787269609E+02  0.19999993456E+02 0.  0.
         12    1    1    2    0    0 -0.21911117038E+01 -0.31107269719E+02 -0.30185430237E+02  0.43400730391E+02  0.00000000000E+00 0. -1.
         11    1    3    3    0    0  0.18987217592E+01  0.25985418027E+01  0.99302069844E+01  0.10438705611E+02  0.51100000000E-03 0. -1.
        -11    1    3    3    0    0 -0.27211947457E+01  0.23142140327E+02  0.20712927624E+02  0.31176737013E+02  0.51100000000E-03 0.  1.
         12    1    3    3    0    0  0.30135846904E+01  0.53665875894E+01 -0.45770437172E+00  0.61718269850E+01  0.00000000000E+00 0. -1.
</event>
<event>
 7    1  0.1418970E-010  0.4778727E+02  0.7816164E-02  0.1312668E+00
        -11   -1    0    0    0    0  0.00000000000E+00  0.00000000000E+00  0.45593999997E+02  0.45594000000E+02  0.51100000000E-03 0. -1.
         11   -1    0    0    0    0 -0.00000000000E+00 -0.00000000000E+00 -0.45593999997E+02  0.45594000000E+02  0.51100000000E-03 0.  1.
    9900012    2    1    2    0    0  0.10237501807E+02 -0.32052263882E+02  0.27412939269E+02  0.47787270713E+02  0.19999998490E+02 0.  0.
         12    1    1    2    0    0 -0.10237501807E+02  0.32052263882E+02 -0.27412939269E+02  0.43400729287E+02  0.00000000000E+00 0. -1.
         11    1    3    3    0    0  0.54963270262E+01 -0.79481901425E+01  0.31510153241E+01  0.10164262647E+02  0.51100000000E-03 0.  1.
        -11    1    3    3    0    0  0.10776355687E+01 -0.24672829585E+02  0.22881012663E+02  0.33666757475E+02  0.51100000000E-03 0. -1.
         12    1    3    3    0    0  0.36635392125E+01  0.56875584479E+00  0.13809112821E+01  0.39562505913E+01  0.00000000000E+00 0. -1.
</event>
<event>
 7    1  0.1418970E-010  0.4778727E+02  0.7816164E-02  0.1312668E+00
        -11   -1    0    0    0    0  0.00000000000E+00  0.00000000000E+00  0.45593999997E+02  0.45594000000E+02  0.51100000000E-03 0. -1.
         11   -1    0    0    0    0 -0.00000000000E+00 -0.00000000000E+00 -0.45593999997E+02  0.45594000000E+02  0.51100000000E-03 0.  1.
    9900012    2    1    2    0    0  0.39872914477E+02 -0.14120468920E+02 -0.97152631197E+01  0.47787270871E+02  0.19999999210E+02 0.  0.
         12    1    1    2    0    0 -0.39872914477E+02  0.14120468920E+02  0.97152631197E+01  0.43400729129E+02  0.00000000000E+00 0. -1.
         11    1    3    3    0    0  0.21728041560E+02 -0.12837555108E+02 -0.72622315514E+01  0.26261199869E+02  0.51100000000E-03 0.  1.
        -11    1    3    3    0    0  0.19728299574E+02 -0.14083327514E+01 -0.20305767439E+01  0.19882465828E+02  0.51100000000E-03 0. -1.
         12    1    3    3    0    0 -0.15834266571E+01  0.12541894027E+00 -0.42245482433E+00  0.16436051739E+01  0.00000000000E+00 0. -1.
</event>
<event>
 7    1  0.1418970E-010  0.4778727E+02  0.7816164E-02  0.1312668E+00
        -11   -1    0    0    0    0  0.00000000000E+00  0.00000000000E+00  0.45593999997E+02  0.45594000000E+02  0.51100000000E-03 0.  1.
         11   -1    0    0    0    0 -0.00000000000E+00 -0.00000000000E+00 -0.45593999997E+02  0.45594000000E+02  0.51100000000E-03 0. -1.
    9900012    2    1    2    0    0 -0.37904754265E+02 -0.20220185154E+02  0.61641815855E+01  0.47787269382E+02  0.19999992423E+02 0.  0.
         12    1    1    2    0    0  0.37904754265E+02  0.20220185154E+02 -0.61641815855E+01  0.43400730618E+02  0.00000000000E+00 0. -1.
         11    1    3    3    0    0 -0.73542202741E+01 -0.57621344421E+01 -0.28926425410E+01  0.97802929557E+01  0.51100000000E-03 0. -1.
        -11    1    3    3    0    0 -0.25436794189E+02 -0.15946701336E+02  0.11497442923E+02  0.32148389947E+02  0.51100000000E-03 0.  1.
         12    1    3    3    0    0 -0.51137398012E+01  0.14886506246E+01 -0.24406187962E+01  0.58585864801E+01  0.00000000000E+00 0. -1.
</event>
<event>
 7    1  0.1418970E-010  0.4778727E+02  0.7816164E-02  0.1312668E+00
        -11   -1    0    0    0    0  0.00000000000E+00  0.00000000000E+00  0.45593999997E+02  0.45594000000E+02  0.51100000000E-03 0.  1.
         11   -1    0    0    0    0 -0.00000000000E+00 -0.00000000000E+00 -0.45593999997E+02  0.45594000000E+02  0.51100000000E-03 0. -1.
    9900012    2    1    2    0    0 -0.89619801405E+01 -0.35929401278E+02  0.22635901775E+02  0.47787274046E+02  0.20000013683E+02 0.  0.
         12    1    1    2    0    0  0.89619801405E+01  0.35929401278E+02 -0.22635901775E+02  0.43400725954E+02  0.00000000000E+00 0. -1.
         11    1    3    3    0    0 -0.36930793662E+01 -0.13879638655E+02  0.46696939127E+01  0.15102623808E+02  0.51100000000E-03 0. -1.
        -11    1    3    3    0    0 -0.10208747197E+02 -0.18332238212E+02  0.12446933628E+02  0.24397041505E+02  0.51100000000E-03 0.  1.
         12    1    3    3    0    0  0.49398464231E+01 -0.37175244112E+01  0.55192742338E+01  0.82876087323E+01  0.00000000000E+00 0. -1.
</event>
<event>
 7    1  0.1418970E-010  0.4778728E+02  0.7816164E-02  0.1312668E+00
        -11   -1    0    0    0    0  0.00000000000E+00  0.00000000000E+00  0.45593999997E+02  0.45594000000E+02  0.51100000000E-03 0.  1.
         11   -1    0    0    0    0 -0.00000000000E+00 -0.00000000000E+00 -0.45593999997E+02  0.45594000000E+02  0.51100000000E-03 0. -1.
    9900012    2    1    2    0    0  0.42986547875E+01 -0.28979117041E+02  0.32021158465E+02  0.47787282876E+02  0.20000053946E+02 0.  0.
         12    1    1    2    0    0 -0.42986547875E+01  0.28979117041E+02 -0.32021158465E+02  0.43400717124E+02  0.00000000000E+00 0. -1.
         11    1    3    3    0    0 -0.13171104163E+01 -0.13901189793E+02  0.22524532209E+02  0.26501554841E+02  0.51100000000E-03 0. -1.
        -11    1    3    3    0    0  0.69807246489E+01 -0.10413204240E+02  0.10464383939E+02  0.16329992977E+02  0.51100000000E-03 0.  1.
         12    1    3    3    0    0 -0.13649594451E+01 -0.46647230083E+01 -0.96775768293E+00  0.49557350579E+01  0.00000000000E+00 0. -1.
</event>
<event>
 7    1  0.1418970E-010  0.4778727E+02  0.7816164E-02  0.1312668E+00
        -11   -1    0    0    0    0  0.00000000000E+00  0.00000000000E+00  0.45593999997E+02  0.45594000000E+02  0.51100000000E-03 0. -1.
         11   -1    0    0    0    0 -0.00000000000E+00 -0.00000000000E+00 -0.45593999997E+02  0.45594000000E+02  0.51100000000E-03 0.  1.
    9900012    2    1    2    0    0  0.38451797734E+02  0.36274510755E+01 -0.19797074231E+02  0.47787270762E+02  0.19999998714E+02 0.  0.
         12    1    1    2    0    0 -0.38451797734E+02 -0.36274510755E+01  0.19797074231E+02  0.43400729238E+02  0.00000000000E+00 0. -1.
         11    1    3    3    0    0  0.18969281798E+02 -0.33046480784E+01 -0.45068997636E+01  0.19775401300E+02  0.51100000000E-03 0.  1.
        -11    1    3    3    0    0  0.13534274706E+02  0.84898742051E+01 -0.64187393721E+01  0.17217861982E+02  0.51100000000E-03 0. -1.
         12    1    3    3    0    0  0.59482412305E+01 -0.15577750512E+01 -0.88714350949E+01  0.10794007480E+02  0.00000000000E+00 0. -1.
</event>
<event>
 7    1  0.1418970E-010  0.4778727E+02  0.7816164E-02  0.1312668E+00
        -11   -1    0    0    0    0  0.00000000000E+00  0.00000000000E+00  0.45593999997E+02  0.45594000000E+02  0.51100000000E-03 0.  1.
         11   -1    0    0    0    0 -0.00000000000E+00 -0.00000000000E+00 -0.45593999997E+02  0.45594000000E+02  0.51100000000E-03 0. -1.
    9900012    2    1    2    0    0 -0.35845199937E+02 -0.59207491872E+01  0.23742149426E+02  0.47787270872E+02  0.19999999212E+02 0.  0.
         12    1    1    2    0    0  0.35845199937E+02  0.59207491872E+01 -0.23742149426E+02  0.43400729128E+02  0.00000000000E+00 0. -1.
         11    1    3    3    0    0  0.50998037770E+00  0.28312806460E+00  0.13263673123E+01  0.14489623856E+01  0.51100000000E-03 0. -1.
        -11    1    3    3    0    0 -0.35288530763E+02 -0.92663638671E+01  0.17538763749E+02  0.40481528341E+02  0.51100000000E-03 0.  1.
        -12    1    3    3    0    0 -0.10666495525E+01  0.30624866153E+01  0.48770183650E+01  0.58567801452E+01  0.00000000000E+00 0.  1.
</event>
<event>
 7    1  0.1418970E-010  0.4778726E+02  0.7816164E-02  0.1312668E+00
        -11   -1    0    0    0    0  0.00000000000E+00  0.00000000000E+00  0.45593999997E+02  0.45594000000E+02  0.51100000000E-03 0.  1.
         11   -1    0    0    0    0 -0.00000000000E+00 -0.00000000000E+00 -0.45593999997E+02  0.45594000000E+02  0.51100000000E-03 0. -1.
    9900012    2    1    2    0    0  0.22931447709E+02 -0.66877031675E+01  0.36236000680E+02  0.47787257921E+02  0.19999940165E+02 0.  0.
         12    1    1    2    0    0 -0.22931447709E+02  0.66877031675E+01 -0.36236000680E+02  0.43400742079E+02  0.00000000000E+00 0. -1.
         11    1    3    3    0    0  0.92652828159E+01  0.30020310557E+01  0.21105854078E+02  0.23244671061E+02  0.51100000000E-03 0.  1.
        -11    1    3    3    0    0  0.31296867596E+01 -0.60457572642E+00 -0.90475913943E+00  0.33134635027E+01  0.51100000000E-03 0. -1.
        -12    1    3    3    0    0  0.10536478134E+02 -0.90851584968E+01  0.16034905742E+02  0.21229123358E+02  0.00000000000E+00 0.  1.
</event>
<event>
 7    1  0.1418970E-010  0.4778727E+02  0.7816164E-02  0.1312668E+00
        -11   -1    0    0    0    0  0.00000000000E+00  0.00000000000E+00  0.45593999997E+02  0.45594000000E+02  0.51100000000E-03 0. -1.
         11   -1    0    0    0    0 -0.00000000000E+00 -0.00000000000E+00 -0.45593999997E+02  0.45594000000E+02  0.51100000000E-03 0.  1.
    9900012    2    1    2    0    0 -0.91108094469E+00 -0.41401219867E+02 -0.12989690248E+02  0.47787272728E+02  0.20000007678E+02 0.  0.
         12    1    1    2    0    0  0.91108094469E+00  0.41401219867E+02  0.12989690248E+02  0.43400727272E+02  0.00000000000E+00 0. -1.
         11    1    3    3    0    0 -0.33899018116E+01 -0.15134173492E+02  0.30424354655E+01  0.15804779511E+02  0.51100000000E-03 0. -1.
        -11    1    3    3    0    0  0.36344189628E+01 -0.16810437910E+02 -0.61746669886E+01  0.18273651431E+02  0.51100000000E-03 0.  1.
        -12    1    3    3    0    0 -0.11555980959E+01 -0.94566084648E+01 -0.98574587248E+01  0.13708841786E+02  0.00000000000E+00 0.  1.
</event>
<event>
 7    1  0.1418970E-010  0.4778727E+02  0.7816164E-02  0.1312668E+00
        -11   -1    0    0    0    0  0.00000000000E+00  0.00000000000E+00  0.45593999997E+02  0.45594000000E+02  0.51100000000E-03 0.  1.
         11   -1    0    0    0    0 -0.00000000000E+00 -0.00000000000E+00 -0.45593999997E+02  0.45594000000E+02  0.51100000000E-03 0. -1.
    9900012    2    1    2    0    0  0.19848629477E+02  0.17587183341E+02  0.34356169046E+02  0.47787268883E+02  0.19999990145E+02 0.  0.
         12    1    1    2    0    0 -0.19848629477E+02 -0.17587183341E+02 -0.34356169046E+02  0.43400731117E+02  0.00000000000E+00 0. -1.
         11    1    3    3    0    0 -0.10332633364E+01  0.68837732795E+01  0.12582460746E+02  0.14379578797E+02  0.51100000000E-03 0. -1.
        -11    1    3    3    0    0  0.11291599943E+02  0.57910807697E+01  0.17932259987E+02  0.21968222374E+02  0.51100000000E-03 0.  1.
         12    1    3    3    0    0  0.95902928700E+01  0.49123292915E+01  0.38414483131E+01  0.11439467712E+02  0.00000000000E+00 0. -1.
</event>
<event>
 7    1  0.1418970E-010  0.4778727E+02  0.7816164E-02  0.1312668E+00
        -11   -1    0    0    0    0  0.00000000000E+00  0.00000000000E+00  0.45593999997E+02  0.45594000000E+02  0.51100000000E-03 0. -1.
         11   -1    0    0    0    0 -0.00000000000E+00 -0.00000000000E+00 -0.45593999997E+02  0.45594000000E+02  0.51100000000E-03 0.  1.
    9900012    2    1    2    0    0  0.88676875601E+01 -0.29159485504E+02 -0.30898412293E+02  0.47787270055E+02  0.19999995488E+02 0.  0.
         12    1    1    2    0    0 -0.88676875601E+01  0.29159485504E+02  0.30898412293E+02  0.43400729945E+02  0.00000000000E+00 0. -1.
         11    1    3    3    0    0 -0.28225172927E+00  0.26497684030E+01 -0.15709614825E+01  0.30933572165E+01  0.51100000000E-03 0. -1.
        -11    1    3    3    0    0  0.16650543614E+00 -0.11702308370E+02 -0.10144978930E+02  0.15488458381E+02  0.51100000000E-03 0.  1.
         12    1    3    3    0    0  0.89834338533E+01 -0.20106945537E+02 -0.19182471881E+02  0.29205454458E+02  0.00000000000E+00 0. -1.
</event>
<event>
 7    1  0.1418970E-010  0.4778727E+02  0.7816164E-02  0.1312668E+00
        -11   -1    0    0    0    0  0.00000000000E+00  0.00000000000E+00  0.45593999997E+02  0.45594000000E+02  0.51100000000E-03 0. -1.
         11   -1    0    0    0    0 -0.00000000000E+00 -0.00000000000E+00 -0.45593999997E+02  0.45594000000E+02  0.51100000000E-03 0.  1.
    9900012    2    1    2    0    0 -0.28978454174E+02  0.21268105798E+02 -0.24321593331E+02  0.47787273823E+02  0.20000012668E+02 0.  0.
         12    1    1    2    0    0  0.28978454174E+02 -0.21268105798E+02  0.24321593331E+02  0.43400726177E+02  0.00000000000E+00 0. -1.
         11    1    3    3    0    0 -0.22144356610E+02  0.50687640894E+01 -0.99900629359E+01  0.24816652812E+02  0.51100000000E-03 0. -1.
        -11    1    3    3    0    0 -0.50833393482E+01  0.88378156774E+01 -0.65587827661E+01  0.12122910398E+02  0.51100000000E-03 0.  1.
         12    1    3    3    0    0 -0.17507582151E+01  0.73615260310E+01 -0.77727476295E+01  0.10847710613E+02  0.00000000000E+00 0. -1.
</event>
<event>
 7    1  0.1418970E-010  0.4778727E+02  0.7816164E-02  0.1312668E+00
        -11   -1    0    0    0    0  0.00000000000E+00  0.00000000000E+00  0.45593999997E+02  0.45594000000E+02  0.51100000000E-03 0. -1.
         11   -1    0    0    0    0 -0.00000000000E+00 -0.00000000000E+00 -0.45593999997E+02  0.45594000000E+02  0.51100000000E-03 0.  1.
    9900012    2    1    2    0    0  0.31219090095E+02 -0.13649552346E+02 -0.26882734711E+02  0.47787270846E+02  0.19999999093E+02 0.  0.
         12    1    1    2    0    0 -0.31219090095E+02  0.13649552346E+02  0.26882734711E+02  0.43400729154E+02  0.00000000000E+00 0. -1.
         11    1    3    3    0    0  0.50697852035E+00  0.23159462204E+01 -0.38668255449E+01  0.45357440594E+01  0.51100000000E-03 0. -1.
        -11    1    3    3    0    0  0.10024058645E+02 -0.88614689590E+01 -0.32461524851E+01  0.13767530281E+02  0.51100000000E-03 0.  1.
         12    1    3    3    0    0  0.20688052930E+02 -0.71040296074E+01 -0.19769756681E+02  0.29483996505E+02  0.00000000000E+00 0. -1.
</event>
<event>
 7    1  0.1418970E-010  0.4778726E+02  0.7816164E-02  0.1312668E+00
        -11   -1    0    0    0    0  0.00000000000E+00  0.00000000000E+00  0.45593999997E+02  0.45594000000E+02  0.51100000000E-03 0.  1.
         11   -1    0    0    0    0 -0.00000000000E+00 -0.00000000000E+00 -0.45593999997E+02  0.45594000000E+02  0.51100000000E-03 0. -1.
    9900012    2    1    2    0    0 -0.27671273113E+02 -0.32000537286E+02  0.96897044301E+01  0.47787261363E+02  0.19999955859E+02 0.  0.
         12    1    1    2    0    0  0.27671273113E+02  0.32000537286E+02 -0.96897044301E+01  0.43400738637E+02  0.00000000000E+00 0. -1.
         11    1    3    3    0    0  0.51456658006E+00  0.39963272577E+00 -0.25190955407E+00  0.69852971688E+00  0.51100000000E-03 0. -1.
        -11    1    3    3    0    0 -0.25386497656E+02 -0.33572675781E+02  0.66516889051E+01  0.42612718616E+02  0.51100000000E-03 0.  1.
        -12    1    3    3    0    0 -0.27993420369E+01  0.11725057690E+01  0.32899250791E+01  0.44760130299E+01  0.00000000000E+00 0.  1.
</event>
<event>
 7    1  0.1418970E-010  0.4778726E+02  0.7816164E-02  0.1312668E+00
        -11   -1    0    0    0    0  0.00000000000E+00  0.00000000000E+00  0.45593999997E+02  0.45594000000E+02  0.51100000000E-03 0.  1.
         11   -1    0    0    0    0 -0.00000000000E+00 -0.00000000000E+00 -0.45593999997E+02  0.45594000000E+02  0.51100000000E-03 0. -1.
    9900012    2    1    2    0    0 -0.32824976136E+02 -0.15294307920E+01  0.28351475172E+02  0.47787258516E+02  0.19999942879E+02 0.  0.
         12    1    1    2    0    0  0.32824976136E+02  0.15294307920E+01 -0.28351475172E+02  0.43400741484E+02  0.00000000000E+00 0. -1.
         11    1    3    3    0    0 -0.50683917192E+01  0.73442090279E+00 -0.15840797519E+01  0.53607161465E+01  0.51100000000E-03 0. -1.
        -11    1    3    3    0    0 -0.11010506861E+02  0.23687446215E+01  0.57459303542E+01  0.12643493517E+02  0.51100000000E-03 0.  1.
        -12    1    3    3    0    0 -0.16746077556E+02 -0.46325963163E+01  0.24189624570E+02  0.29783048853E+02  0.00000000000E+00 0.  1.
</event>
<event>
 7    1  0.1418970E-010  0.4778727E+02  0.7816164E-02  0.1312668E+00
        -11   -1    0    0    0    0  0.00000000000E+00  0.00000000000E+00  0.45593999997E+02  0.45594000000E+02  0.51100000000E-03 0.  1.
         11   -1    0    0    0    0 -0.00000000000E+00 -0.00000000000E+00 -0.45593999997E+02  0.45594000000E+02  0.51100000000E-03 0. -1.
    9900012    2    1    2    0    0  0.24766371318E+02  0.41758252752E+01  0.35395095903E+02  0.47787268681E+02  0.19999989226E+02 0.  0.
         12    1    1    2    0    0 -0.24766371318E+02 -0.41758252752E+01 -0.35395095903E+02  0.43400731319E+02  0.00000000000E+00 0. -1.
         11    1    3    3    0    0  0.16280894285E+01 -0.32963822708E+01  0.94760031764E+01  0.10164223911E+02  0.51100000000E-03 0. -1.
        -11    1    3    3    0    0  0.14268356920E+02 -0.13292693170E+01  0.10440469999E+02  0.17730098144E+02  0.51100000000E-03 0.  1.
         12    1    3    3    0    0  0.88699249693E+01  0.88014768629E+01  0.15478622728E+02  0.19892946626E+02  0.00000000000E+00 0. -1.
</event>
<event>
 7    1  0.1418970E-010  0.4778727E+02  0.7816164E-02  0.1312668E+00
        -11   -1    0    0    0    0  0.00000000000E+00  0.00000000000E+00  0.45593999997E+02  0.45594000000E+02  0.51100000000E-03 0.  1.
         11   -1    0    0    0    0 -0.00000000000E+00 -0.00000000000E+00 -0.45593999997E+02  0.45594000000E+02  0.51100000000E-03 0. -1.
    9900012    2    1    2    0    0  0.25881890590E+02  0.87038986024E+01  0.33734149587E+02  0.47787274663E+02  0.20000016498E+02 0.  0.
         12    1    1    2    0    0 -0.25881890590E+02 -0.87038986024E+01 -0.33734149587E+02  0.43400725337E+02  0.00000000000E+00 0. -1.
         11    1    3    3    0    0  0.45252991755E+01 -0.19797578950E+00  0.17317799131E+02  0.17900382511E+02  0.51100000000E-03 0. -1.
        -11    1    3    3    0    0  0.42460075212E+01  0.63438637227E+01  0.42550486300E+01  0.87394865929E+01  0.51100000000E-03 0.  1.
        -12    1    3    3    0    0  0.17110583894E+02  0.25580106692E+01  0.12161301827E+02  0.21147405559E+02  0.00000000000E+00 0.  1.
</event>
<event>
 7    1  0.1418970E-010  0.4778727E+02  0.7816164E-02  0.1312668E+00
        -11   -1    0    0    0    0  0.00000000000E+00  0.00000000000E+00  0.45593999997E+02  0.45594000000E+02  0.51100000000E-03 0.  1.
         11   -1    0    0    0    0 -0.00000000000E+00 -0.00000000000E+00 -0.45593999997E+02  0.45594000000E+02  0.51100000000E-03 0. -1.
    9900012    2    1    2    0    0 -0.24123964614E+02  0.63447722494E+01  0.35516217013E+02  0.47787268734E+02  0.19999989464E+02 0.  0.
         12    1    1    2    0    0  0.24123964614E+02 -0.63447722494E+01 -0.35516217013E+02  0.43400731266E+02  0.00000000000E+00 0. -1.
         11    1    3    3    0    0 -0.83947806788E+01  0.80633812169E+01  0.15694369989E+02  0.19539798078E+02  0.51100000000E-03 0. -1.
        -11    1    3    3    0    0 -0.15378246472E+02 -0.36996966318E+01  0.20700822798E+02  0.26051915179E+02  0.51100000000E-03 0.  1.
         12    1    3    3    0    0 -0.35093746267E+00  0.19810876643E+01 -0.87897577516E+00  0.21955554763E+01  0.00000000000E+00 0. -1.
</event>
<event>
 7    1  0.1418970E-010  0.4778726E+02  0.7816164E-02  0.1312668E+00
        -11   -1    0    0    0    0  0.00000000000E+00  0.00000000000E+00  0.45593999997E+02  0.45594000000E+02  0.51100000000E-03 0.  1.
         11   -1    0    0    0    0 -0.00000000000E+00 -0.00000000000E+00 -0.45593999997E+02  0.45594000000E+02  0.51100000000E-03 0. -1.
    9900012    2    1    2    0    0  0.24440138848E+02 -0.35036241110E+02 -0.76658558692E+01  0.47787263552E+02  0.19999965840E+02 0.  0.
         12    1    1    2    0    0 -0.24440138848E+02  0.35036241110E+02  0.76658558692E+01  0.43400736448E+02  0.00000000000E+00 0. -1.
         11    1    3    3    0    0  0.65291129321E+01 -0.25065398698E+00  0.11381003339E+01  0.66323009380E+01  0.51100000000E-03 0. -1.
        -11    1    3    3    0    0  0.11326606723E+02 -0.19513966280E+02 -0.50480709527E+00  0.22568600540E+02  0.51100000000E-03 0.  1.
        -12    1    3    3    0    0  0.65844191924E+01 -0.15271620842E+02 -0.82991491078E+01  0.18586362075E+02  0.00000000000E+00 0.  1.
</event>
<event>
 7    1  0.1418970E-010  0.4778728E+02  0.7816164E-02  0.1312668E+00
        -11   -1    0    0    0    0  0.00000000000E+00  0.00000000000E+00  0.45593999997E+02  0.45594000000E+02  0.51100000000E-03 0.  1.
         11   -1    0    0    0    0 -0.00000000000E+00 -0.00000000000E+00 -0.45593999997E+02  0.45594000000E+02  0.51100000000E-03 0. -1.
    9900012    2    1    2    0    0 -0.16717515287E+02 -0.33870345828E+02  0.21376322308E+02  0.47787276512E+02  0.20000024929E+02 0.  0.
         12    1    1    2    0    0  0.16717515287E+02  0.33870345828E+02 -0.21376322308E+02  0.43400723488E+02  0.00000000000E+00 0. -1.
         11    1    3    3    0    0  0.30303593488E+01 -0.13835988393E+02  0.44427416321E+01  0.14844379612E+02  0.51100000000E-03 0. -1.
        -11    1    3    3    0    0 -0.11997788356E+02 -0.12418071326E+02  0.88732995753E+01  0.19413677305E+02  0.51100000000E-03 0.  1.
         12    1    3    3    0    0 -0.77500862800E+01 -0.76162861092E+01  0.80602811007E+01  0.13529219596E+02  0.00000000000E+00 0. -1.
</event>
<event>
 7    1  0.1418970E-010  0.4778727E+02  0.7816164E-02  0.1312668E+00
        -11   -1    0    0    0    0  0.00000000000E+00  0.00000000000E+00  0.45593999997E+02  0.45594000000E+02  0.51100000000E-03 0.  1.
         11   -1    0    0    0    0 -0.00000000000E+00 -0.00000000000E+00 -0.45593999997E+02  0.45594000000E+02  0.51100000000E-03 0. -1.
    9900012    2    1    2    0    0  0.96966673861E+01 -0.47469074010E+01  0.42036466279E+02  0.47787274367E+02  0.20000015148E+02 0.  0.
         12    1    1    2    0    0 -0.96966673861E+01  0.47469074010E+01 -0.42036466279E+02  0.43400725633E+02  0.00000000000E+00 0. -1.
         11    1    3    3    0    0  0.76504075329E+01 -0.49726552988E+01  0.15906934417E+02  0.18338118741E+02  0.51100000000E-03 0. -1.
        -11    1    3    3    0    0  0.64725249416E+01 -0.32691610275E+01  0.99283623420E+01  0.12294444762E+02  0.51100000000E-03 0.  1.
         12    1    3    3    0    0 -0.44262650885E+01  0.34949089252E+01  0.16201169520E+02  0.17154710864E+02  0.00000000000E+00 0. -1.
</event>
<event>
 7    1  0.1418970E-010  0.4778727E+02  0.7816164E-02  0.1312668E+00
        -11   -1    0    0    0    0  0.00000000000E+00  0.00000000000E+00  0.45593999997E+02  0.45594000000E+02  0.51100000000E-03 0.  1.
         11   -1    0    0    0    0 -0.00000000000E+00 -0.00000000000E+00 -0.45593999997E+02  0.45594000000E+02  0.51100000000E-03 0. -1.
    9900012    2    1    2    0    0  0.24823126236E+02  0.24239892964E+02  0.26074186398E+02  0.47787271857E+02  0.20000003703E+02 0.  0.
         12    1    1    2    0    0 -0.24823126236E+02 -0.24239892964E+02 -0.26074186398E+02  0.43400728143E+02  0.00000000000E+00 0. -1.
         11    1    3    3    0    0  0.84784363001E+01  0.17286544165E+02  0.93490258071E+01  0.21403569213E+02  0.51100000000E-03 0. -1.
        -11    1    3    3    0    0  0.31005344335E+01 -0.22281500629E+01  0.11891799706E+01  0.39990143460E+01  0.51100000000E-03 0.  1.
        -12    1    3    3    0    0  0.13244155503E+02  0.91814988616E+01  0.15535980620E+02  0.22384688297E+02  0.00000000000E+00 0.  1.
</event>
<event>
 7    1  0.1418970E-010  0.4778727E+02  0.7816164E-02  0.1312668E+00
        -11   -1    0    0    0    0  0.00000000000E+00  0.00000000000E+00  0.45593999997E+02  0.45594000000E+02  0.51100000000E-03 0.  1.
         11   -1    0    0    0    0 -0.00000000000E+00 -0.00000000000E+00 -0.45593999997E+02  0.45594000000E+02  0.51100000000E-03 0. -1.
    9900012    2    1    2    0    0  0.32070389719E+02 -0.29142243143E+02 -0.24172276800E+01  0.47787271644E+02  0.20000002736E+02 0.  0.
         12    1    1    2    0    0 -0.32070389719E+02  0.29142243143E+02  0.24172276800E+01  0.43400728356E+02  0.00000000000E+00 0. -1.
         11    1    3    3    0    0  0.11546039359E+02 -0.12812040960E+02 -0.37293164692E+01  0.17645600585E+02  0.51100000000E-03 0. -1.
        -11    1    3    3    0    0  0.16585102673E+02 -0.40524513014E+01  0.22138714469E+01  0.17215958273E+02  0.51100000000E-03 0.  1.
        -12    1    3    3    0    0  0.39392476871E+01 -0.12277750883E+02 -0.90178265765E+00  0.12925712786E+02  0.00000000000E+00 0.  1.
</event>
<event>
 7    1  0.1418970E-010  0.4778727E+02  0.7816164E-02  0.1312668E+00
        -11   -1    0    0    0    0  0.00000000000E+00  0.00000000000E+00  0.45593999997E+02  0.45594000000E+02  0.51100000000E-03 0.  1.
         11   -1    0    0    0    0 -0.00000000000E+00 -0.00000000000E+00 -0.45593999997E+02  0.45594000000E+02  0.51100000000E-03 0. -1.
    9900012    2    1    2    0    0  0.27799134139E+02 -0.26674570618E+02  0.19982462981E+02  0.47787269554E+02  0.19999993203E+02 0.  0.
         12    1    1    2    0    0 -0.27799134139E+02  0.26674570618E+02 -0.19982462981E+02  0.43400730446E+02  0.00000000000E+00 0. -1.
         11    1    3    3    0    0  0.23112306904E+01 -0.63463640770E+00  0.36034127198E+01  0.43277169691E+01  0.51100000000E-03 0. -1.
        -11    1    3    3    0    0  0.13359824269E+02 -0.22688193511E+01  0.61252750591E+01  0.14871161372E+02  0.51100000000E-03 0.  1.
         12    1    3    3    0    0  0.12128079179E+02 -0.23771114859E+02  0.10253775202E+02  0.28588391212E+02  0.00000000000E+00 0. -1.
</event>
<event>
 7    1  0.1418970E-010  0.4778727E+02  0.7816164E-02  0.1312668E+00
        -11   -1    0    0    0    0  0.00000000000E+00  0.00000000000E+00  0.45593999997E+02  0.45594000000E+02  0.51100000000E-03 0.  1.
         11   -1    0    0    0    0 -0.00000000000E+00 -0.00000000000E+00 -0.45593999997E+02  0.45594000000E+02  0.51100000000E-03 0. -1.
    9900012    2    1    2    0    0  0.37812590441E+02  0.90433277751E+01  0.19288581182E+02  0.47787272619E+02  0.20000007181E+02 0.  0.
         12    1    1    2    0    0 -0.37812590441E+02 -0.90433277751E+01 -0.19288581182E+02  0.43400727381E+02  0.00000000000E+00 0. -1.
         11    1    3    3    0    0  0.18593504960E+02  0.61225875402E+01  0.16904116783E+02  0.25864138674E+02  0.51100000000E-03 0.  1.
        -11    1    3    3    0    0  0.13573809372E+02 -0.19165027553E+01  0.40706630540E+01  0.14300055302E+02  0.51100000000E-03 0. -1.
         12    1    3    3    0    0  0.56452761091E+01  0.48372429903E+01 -0.16861986548E+01  0.76230786430E+01  0.00000000000E+00 0. -1.
</event>
<event>
 7    1  0.1418970E-010  0.4778727E+02  0.7816164E-02  0.1312668E+00
        -11   -1    0    0    0    0  0.00000000000E+00  0.00000000000E+00  0.45593999997E+02  0.45594000000E+02  0.51100000000E-03 0. -1.
         11   -1    0    0    0    0 -0.00000000000E+00 -0.00000000000E+00 -0.45593999997E+02  0.45594000000E+02  0.51100000000E-03 0.  1.
    9900012    2    1    2    0    0  0.53016730898E+01  0.25291649613E+02 -0.34869013296E+02  0.47787269984E+02  0.19999995165E+02 0.  0.
         12    1    1    2    0    0 -0.53016730898E+01 -0.25291649613E+02  0.34869013296E+02  0.43400730016E+02  0.00000000000E+00 0. -1.
         11    1    3    3    0    0  0.75219842639E+01  0.15701188959E+02 -0.21206457949E+02  0.27437591750E+02  0.51100000000E-03 0. -1.
        -11    1    3    3    0    0  0.16034358410E+01  0.61953499799E+01 -0.13824256538E+02  0.15233628489E+02  0.51100000000E-03 0.  1.
         12    1    3    3    0    0 -0.38237470151E+01  0.33951106733E+01  0.16170119063E+00  0.51160497451E+01  0.00000000000E+00 0. -1.
</event>
<event>
 7    1  0.1418970E-010  0.4778728E+02  0.7816164E-02  0.1312668E+00
        -11   -1    0    0    0    0  0.00000000000E+00  0.00000000000E+00  0.45593999997E+02  0.45594000000E+02  0.51100000000E-03 0.  1.
         11   -1    0    0    0    0 -0.00000000000E+00 -0.00000000000E+00 -0.45593999997E+02  0.45594000000E+02  0.51100000000E-03 0. -1.
    9900012    2    1    2    0    0  0.39514582522E+02 -0.60256103371E+01  0.16908950396E+02  0.47787276327E+02  0.20000024087E+02 0.  0.
         12    1    1    2    0    0 -0.39514582522E+02  0.60256103371E+01 -0.16908950396E+02  0.43400723673E+02  0.00000000000E+00 0. -1.
         11    1    3    3    0    0  0.11442478633E+02 -0.47024635859E+01  0.13744843341E+02  0.18492274056E+02  0.51100000000E-03 0. -1.
        -11    1    3    3    0    0  0.36197341106E+01 -0.24305871527E+01  0.19809574976E+01  0.47889896437E+01  0.51100000000E-03 0.  1.
        -12    1    3    3    0    0  0.24452369778E+02  0.11074404016E+01  0.11831495578E+01  0.24506012628E+02  0.00000000000E+00 0.  1.
</event>
<event>
 7    1  0.1418970E-010  0.4778727E+02  0.7816164E-02  0.1312668E+00
        -11   -1    0    0    0    0  0.00000000000E+00  0.00000000000E+00  0.45593999997E+02  0.45594000000E+02  0.51100000000E-03 0.  1.
         11   -1    0    0    0    0 -0.00000000000E+00 -0.00000000000E+00 -0.45593999997E+02  0.45594000000E+02  0.51100000000E-03 0. -1.
    9900012    2    1    2    0    0  0.93246037601E+00 -0.43335208779E+02  0.21939524984E+01  0.47787271552E+02  0.20000002315E+02 0.  0.
         12    1    1    2    0    0 -0.93246037601E+00  0.43335208779E+02 -0.21939524984E+01  0.43400728448E+02  0.00000000000E+00 0. -1.
         11    1    3    3    0    0 -0.52238319993E+00 -0.22528777613E+00 -0.23104076986E+01  0.23794164798E+01  0.51100000000E-03 0. -1.
        -11    1    3    3    0    0 -0.57462864053E+01 -0.19918563244E+02  0.40336921538E+01  0.21119650608E+02  0.51100000000E-03 0.  1.
        -12    1    3    3    0    0  0.72011299812E+01 -0.23191357758E+02  0.47066804316E+00  0.24288204464E+02  0.00000000000E+00 0.  1.
</event>
<event>
 7    1  0.1418970E-010  0.4778727E+02  0.7816164E-02  0.1312668E+00
        -11   -1    0    0    0    0  0.00000000000E+00  0.00000000000E+00  0.45593999997E+02  0.45594000000E+02  0.51100000000E-03 0. -1.
         11   -1    0    0    0    0 -0.00000000000E+00 -0.00000000000E+00 -0.45593999997E+02  0.45594000000E+02  0.51100000000E-03 0.  1.
    9900012    2    1    2    0    0  0.29900878334E+02  0.16615279066E+02 -0.26711290019E+02  0.47787273761E+02  0.20000012386E+02 0.  0.
         12    1    1    2    0    0 -0.29900878334E+02 -0.16615279066E+02  0.26711290019E+02  0.43400726239E+02  0.00000000000E+00 0. -1.
         11    1    3    3    0    0  0.28352402727E+02  0.92713380341E+01 -0.23688325529E+02  0.38091379812E+02  0.51100000000E-03 0.  1.
        -11    1    3    3    0    0  0.95824983302E+00 -0.64830624153E+00 -0.69901435780E+00  0.13517266953E+01  0.51100000000E-03 0. -1.
         12    1    3    3    0    0  0.59022577377E+00  0.79922472731E+01 -0.23239501329E+01  0.83441672538E+01  0.00000000000E+00 0. -1.
</event>
<event>
 7    1  0.1418970E-010  0.4778727E+02  0.7816164E-02  0.1312668E+00
        -11   -1    0    0    0    0  0.00000000000E+00  0.00000000000E+00  0.45593999997E+02  0.45594000000E+02  0.51100000000E-03 0.  1.
         11   -1    0    0    0    0 -0.00000000000E+00 -0.00000000000E+00 -0.45593999997E+02  0.45594000000E+02  0.51100000000E-03 0. -1.
    9900012    2    1    2    0    0  0.24254090265E+01  0.43292574354E+02 -0.18692205577E+01  0.47787267419E+02  0.19999983468E+02 0.  0.
         12    1    1    2    0    0 -0.24254090265E+01 -0.43292574354E+02  0.18692205577E+01  0.43400732581E+02  0.00000000000E+00 0. -1.
         11    1    3    3    0    0  0.83450191937E+01  0.95332084495E+01 -0.84451398325E+00  0.12697819215E+02  0.51100000000E-03 0. -1.
        -11    1    3    3    0    0 -0.16263806318E+01  0.13756950919E+02 -0.39942075519E+01  0.14417090788E+02  0.51100000000E-03 0.  1.
        -12    1    3    3    0    0 -0.42932295354E+01  0.20002414985E+02  0.29695009775E+01  0.20672357416E+02  0.00000000000E+00 0.  1.
</event>
<event>
 7    1  0.1418970E-010  0.4778727E+02  0.7816164E-02  0.1312668E+00
        -11   -1    0    0    0    0  0.00000000000E+00  0.00000000000E+00  0.45593999997E+02  0.45594000000E+02  0.51100000000E-03 0.  1.
         11   -1    0    0    0    0 -0.00000000000E+00 -0.00000000000E+00 -0.45593999997E+02  0.45594000000E+02  0.51100000000E-03 0. -1.
    9900012    2    1    2    0    0 -0.90243014696E+01  0.40033338103E+02  0.14125047825E+02  0.47787272440E+02  0.20000006363E+02 0.  0.
         12    1    1    2    0    0  0.90243014696E+01 -0.40033338103E+02 -0.14125047825E+02  0.43400727560E+02  0.00000000000E+00 0. -1.
         11    1    3    3    0    0 -0.81061735398E+00  0.16521078212E+02  0.43770059609E+01  0.17110269058E+02  0.51100000000E-03 0. -1.
        -11    1    3    3    0    0 -0.67947900685E+01  0.28789714633E+01 -0.86641152403E+00  0.74302300066E+01  0.51100000000E-03 0.  1.
        -12    1    3    3    0    0 -0.14188940471E+01  0.20633288428E+02  0.10614453388E+02  0.23246773376E+02  0.00000000000E+00 0.  1.
</event>
<event>
 7    1  0.1418970E-010  0.4778727E+02  0.7816164E-02  0.1312668E+00
        -11   -1    0    0    0    0  0.00000000000E+00  0.00000000000E+00  0.45593999997E+02  0.45594000000E+02  0.51100000000E-03 0.  1.
         11   -1    0    0    0    0 -0.00000000000E+00 -0.00000000000E+00 -0.45593999997E+02  0.45594000000E+02  0.51100000000E-03 0. -1.
    9900012    2    1    2    0    0  0.22069772619E+02 -0.10216280507E+02  0.35946847293E+02  0.47787273265E+02  0.20000010124E+02 0.  0.
         12    1    1    2    0    0 -0.22069772619E+02  0.10216280507E+02 -0.35946847293E+02  0.43400726735E+02  0.00000000000E+00 0. -1.
         11    1    3    3    0    0  0.53331944348E+01 -0.14001044599E+01  0.47358046796E+01  0.72685006433E+01  0.51100000000E-03 0. -1.
        -11    1    3    3    0    0  0.15344481310E+02 -0.63272387017E+01  0.10561280574E+02  0.19673019694E+02  0.51100000000E-03 0.  1.
         12    1    3    3    0    0  0.13920968737E+01 -0.24889373454E+01  0.20649762040E+02  0.20845752927E+02  0.00000000000E+00 0. -1.
</event>
<event>
 7    1  0.1418970E-010  0.4778727E+02  0.7816164E-02  0.1312668E+00
        -11   -1    0    0    0    0  0.00000000000E+00  0.00000000000E+00  0.45593999997E+02  0.45594000000E+02  0.51100000000E-03 0. -1.
         11   -1    0    0    0    0 -0.00000000000E+00 -0.00000000000E+00 -0.45593999997E+02  0.45594000000E+02  0.51100000000E-03 0.  1.
    9900012    2    1    2    0    0  0.27322692540E+01 -0.26991698837E+02 -0.33876336546E+02  0.47787270984E+02  0.19999999723E+02 0.  0.
         12    1    1    2    0    0 -0.27322692540E+01  0.26991698837E+02  0.33876336546E+02  0.43400729016E+02  0.00000000000E+00 0. -1.
         11    1    3    3    0    0 -0.19002115925E+01 -0.96222165630E+01 -0.17780921505E+02  0.20306625163E+02  0.51100000000E-03 0.  1.
        -11    1    3    3    0    0  0.15610588703E+01 -0.11171028258E+02 -0.15650854896E+01  0.11387636717E+02  0.51100000000E-03 0. -1.
         12    1    3    3    0    0  0.30714219761E+01 -0.61984540155E+01 -0.14530329552E+02  0.16093009104E+02  0.00000000000E+00 0. -1.
</event>
<event>
 7    1  0.1418970E-010  0.4778727E+02  0.7816164E-02  0.1312668E+00
        -11   -1    0    0    0    0  0.00000000000E+00  0.00000000000E+00  0.45593999997E+02  0.45594000000E+02  0.51100000000E-03 0.  1.
         11   -1    0    0    0    0 -0.00000000000E+00 -0.00000000000E+00 -0.45593999997E+02  0.45594000000E+02  0.51100000000E-03 0. -1.
    9900012    2    1    2    0    0  0.13816718092E+02 -0.85155623242E+01  0.40251792995E+02  0.47787270284E+02  0.19999996533E+02 0.  0.
         12    1    1    2    0    0 -0.13816718092E+02  0.85155623242E+01 -0.40251792995E+02  0.43400729716E+02  0.00000000000E+00 0. -1.
         11    1    3    3    0    0  0.72108456176E+01 -0.10366737886E+02  0.22306248682E+02  0.25632679911E+02  0.51100000000E-03 0. -1.
        -11    1    3    3    0    0  0.78897096488E+01 -0.14930805088E+01  0.16385868689E+02  0.18247561500E+02  0.51100000000E-03 0.  1.
        -12    1    3    3    0    0 -0.12838371742E+01  0.33442560707E+01  0.15596756241E+01  0.39070288722E+01  0.00000000000E+00 0.  1.
</event>
<event>
 7    1  0.1418970E-010  0.4778726E+02  0.7816164E-02  0.1312668E+00
        -11   -1    0    0    0    0  0.00000000000E+00  0.00000000000E+00  0.45593999997E+02  0.45594000000E+02  0.51100000000E-03 0.  1.
         11   -1    0    0    0    0 -0.00000000000E+00 -0.00000000000E+00 -0.45593999997E+02  0.45594000000E+02  0.51100000000E-03 0. -1.
    9900012    2    1    2    0    0 -0.34518372350E+01 -0.72263147402E+01  0.42655470556E+02  0.47787262986E+02  0.19999963257E+02 0.  0.
         12    1    1    2    0    0  0.34518372350E+01  0.72263147402E+01 -0.42655470556E+02  0.43400737014E+02  0.00000000000E+00 0. -1.
         11    1    3    3    0    0  0.24513709857E+01  0.16009023840E+01  0.42021258425E+01  0.51215202831E+01  0.51100000000E-03 0. -1.
        -11    1    3    3    0    0  0.50196104968E+01 -0.43213074891E+01  0.15284897123E+02  0.16658279271E+02  0.51100000000E-03 0.  1.
        -12    1    3    3    0    0 -0.10922818717E+02 -0.45059096351E+01  0.23168447591E+02  0.26007463431E+02  0.00000000000E+00 0.  1.
</event>
<event>
 7    1  0.1687242E-010  0.4778727E+02  0.7816164E-02  0.1312668E+00
        -11   -1    0    0    0    0  0.00000000000E+00  0.00000000000E+00  0.45593999997E+02  0.45594000000E+02  0.51100000000E-03 0.  1.
         11   -1    0    0    0    0 -0.00000000000E+00 -0.00000000000E+00 -0.45593999997E+02  0.45594000000E+02  0.51100000000E-03 0. -1.
    9900012    2    1    2    0    0  0.33267725619E+02 -0.27795859552E+02 -0.20669523595E+01  0.47787266502E+02  0.19999979289E+02 0.  0.
         12    1    1    2    0    0 -0.33267725619E+02  0.27795859552E+02  0.20669523595E+01  0.43400733498E+02  0.00000000000E+00 0. -1.
         11    1    3    3    0    0  0.14476053196E+02 -0.31501074065E+01 -0.23263067549E+01  0.14996366099E+02  0.51100000000E-03 0. -1.
        -11    1    3    3    0    0 -0.86325697194E+00 -0.46662302128E+01  0.41733477718E+00  0.47637260181E+01  0.51100000000E-03 0.  1.
        -12    1    3    3    0    0  0.19654929395E+02 -0.19979521932E+02 -0.15798038173E+00  0.28027174385E+02  0.00000000000E+00 0.  1.
</event>
<event>
 7    1  0.1418970E-010  0.4778727E+02  0.7816164E-02  0.1312668E+00
        -11   -1    0    0    0    0  0.00000000000E+00  0.00000000000E+00  0.45593999997E+02  0.45594000000E+02  0.51100000000E-03 0.  1.
         11   -1    0    0    0    0 -0.00000000000E+00 -0.00000000000E+00 -0.45593999997E+02  0.45594000000E+02  0.51100000000E-03 0. -1.
    9900012    2    1    2    0    0  0.18751234578E+02 -0.34418236081E+02 -0.18638647361E+02  0.47787274792E+02  0.20000017088E+02 0.  0.
         12    1    1    2    0    0 -0.18751234578E+02  0.34418236081E+02  0.18638647361E+02  0.43400725208E+02  0.00000000000E+00 0. -1.
         11    1    3    3    0    0  0.14245442009E+01 -0.14443388654E+02 -0.91975743446E+01  0.17182438013E+02  0.51100000000E-03 0. -1.
        -11    1    3    3    0    0  0.12540119772E+02 -0.20399754708E+02 -0.59756037747E+01  0.24680203338E+02  0.51100000000E-03 0.  1.
         12    1    3    3    0    0  0.47865706048E+01  0.42490728130E+00 -0.34654692422E+01  0.59246334419E+01  0.00000000000E+00 0. -1.
</event>
<event>
 7    1  0.1418970E-010  0.4778727E+02  0.7816164E-02  0.1312668E+00
        -11   -1    0    0    0    0  0.00000000000E+00  0.00000000000E+00  0.45593999997E+02  0.45594000000E+02  0.51100000000E-03 0.  1.
         11   -1    0    0    0    0 -0.00000000000E+00 -0.00000000000E+00 -0.45593999997E+02  0.45594000000E+02  0.51100000000E-03 0. -1.
    9900012    2    1    2    0    0  0.19715910138E+01  0.42009465738E+02  0.10721043666E+02  0.47787272356E+02  0.20000005980E+02 0.  0.
         12    1    1    2    0    0 -0.19715910138E+01 -0.42009465738E+02 -0.10721043666E+02  0.43400727644E+02  0.00000000000E+00 0. -1.
         11    1    3    3    0    0  0.39239203917E+01  0.11145010341E+02  0.13244616933E+01  0.11889600741E+02  0.51100000000E-03 0. -1.
        -11    1    3    3    0    0 -0.22671228831E+01  0.87237833628E+01  0.10361997416E+02  0.13733726116E+02  0.51100000000E-03 0.  1.
         12    1    3    3    0    0  0.31479350521E+00  0.22140672034E+02 -0.96541544369E+00  0.22163945498E+02  0.00000000000E+00 0. -1.
</event>
<event>
 7    1  0.1418970E-010  0.4778727E+02  0.7816164E-02  0.1312668E+00
        -11   -1    0    0    0    0  0.00000000000E+00  0.00000000000E+00  0.45593999997E+02  0.45594000000E+02  0.51100000000E-03 0. -1.
         11   -1    0    0    0    0 -0.00000000000E+00 -0.00000000000E+00 -0.45593999997E+02  0.45594000000E+02  0.51100000000E-03 0.  1.
    9900012    2    1    2    0    0 -0.11592960377E+01  0.42961460295E+02 -0.60491273596E+01  0.47787274432E+02  0.20000015447E+02 0.  0.
         12    1    1    2    0    0  0.11592960377E+01 -0.42961460295E+02  0.60491273596E+01  0.43400725568E+02  0.00000000000E+00 0. -1.
         11    1    3    3    0    0 -0.11536582399E+01  0.83137202418E+01  0.31687140766E+01  0.89716007911E+01  0.51100000000E-03 0. -1.
        -11    1    3    3    0    0 -0.20100354281E+01  0.33748982133E+02 -0.11439217382E+02  0.35691591896E+02  0.51100000000E-03 0.  1.
         12    1    3    3    0    0  0.20043976303E+01  0.89875791984E+00  0.22213759463E+01  0.31240817457E+01  0.00000000000E+00 0. -1.
</event>
<event>
 7    1  0.1418970E-010  0.4778727E+02  0.7816164E-02  0.1312668E+00
        -11   -1    0    0    0    0  0.00000000000E+00  0.00000000000E+00  0.45593999997E+02  0.45594000000E+02  0.51100000000E-03 0.  1.
         11   -1    0    0    0    0 -0.00000000000E+00 -0.00000000000E+00 -0.45593999997E+02  0.45594000000E+02  0.51100000000E-03 0. -1.
    9900012    2    1    2    0    0  0.25817657525E+02 -0.14334593415E+02  0.31805519888E+02  0.47787273004E+02  0.20000008935E+02 0.  0.
         12    1    1    2    0    0 -0.25817657525E+02  0.14334593415E+02 -0.31805519888E+02  0.43400726996E+02  0.00000000000E+00 0. -1.
         11    1    3    3    0    0  0.12409048280E+01 -0.25898101821E+01  0.11635970567E+02  0.11985106293E+02  0.51100000000E-03 0. -1.
        -11    1    3    3    0    0  0.11905687936E+02 -0.11877749493E+02  0.12882524317E+02  0.21184564458E+02  0.51100000000E-03 0.  1.
         12    1    3    3    0    0  0.12671064761E+02  0.13296626072E+00  0.72870250047E+01  0.14617602253E+02  0.00000000000E+00 0. -1.
</event>
<event>
 7    1  0.1418970E-010  0.4778727E+02  0.7816164E-02  0.1312668E+00
        -11   -1    0    0    0    0  0.00000000000E+00  0.00000000000E+00  0.45593999997E+02  0.45594000000E+02  0.51100000000E-03 0.  1.
         11   -1    0    0    0    0 -0.00000000000E+00 -0.00000000000E+00 -0.45593999997E+02  0.45594000000E+02  0.51100000000E-03 0. -1.
    9900012    2    1    2    0    0  0.24233557561E+02  0.34774579655E+02  0.93320350487E+01  0.47787267513E+02  0.19999983901E+02 0.  0.
         12    1    1    2    0    0 -0.24233557561E+02 -0.34774579655E+02 -0.93320350487E+01  0.43400732487E+02  0.00000000000E+00 0. -1.
         11    1    3    3    0    0  0.13761329463E+01 -0.12891134329E+01 -0.11628838929E+01  0.22153678110E+01  0.51100000000E-03 0. -1.
        -11    1    3    3    0    0  0.68528491509E+01  0.14020141233E+02  0.95890113221E+01  0.18315977726E+02  0.51100000000E-03 0.  1.
         12    1    3    3    0    0  0.16004575464E+02  0.22043551854E+02  0.90590761942E+00  0.27255921976E+02  0.00000000000E+00 0. -1.
</event>
<event>
 7    1  0.1418970E-010  0.4778727E+02  0.7816164E-02  0.1312668E+00
        -11   -1    0    0    0    0  0.00000000000E+00  0.00000000000E+00  0.45593999997E+02  0.45594000000E+02  0.51100000000E-03 0.  1.
         11   -1    0    0    0    0 -0.00000000000E+00 -0.00000000000E+00 -0.45593999997E+02  0.45594000000E+02  0.51100000000E-03 0. -1.
    9900012    2    1    2    0    0  0.26277449371E+01 -0.42920060957E+02  0.58810159009E+01  0.47787273922E+02  0.20000013122E+02 0.  0.
         12    1    1    2    0    0 -0.26277449371E+01  0.42920060957E+02 -0.58810159009E+01  0.43400726078E+02  0.00000000000E+00 0. -1.
         11    1    3    3    0    0 -0.19976540439E+01 -0.13733302600E+02 -0.84691770664E+00  0.13903650307E+02  0.51100000000E-03 0. -1.
        -11    1    3    3    0    0 -0.55097826647E+01 -0.81098104340E+01  0.14889017976E+01  0.99168321107E+01  0.51100000000E-03 0.  1.
         12    1    3    3    0    0  0.10135181646E+02 -0.21076947923E+02  0.52390318099E+01  0.23966791505E+02  0.00000000000E+00 0. -1.
</event>
<event>
 7    1  0.1418970E-010  0.4778726E+02  0.7816164E-02  0.1312668E+00
        -11   -1    0    0    0    0  0.00000000000E+00  0.00000000000E+00  0.45593999997E+02  0.45594000000E+02  0.51100000000E-03 0.  1.
         11   -1    0    0    0    0 -0.00000000000E+00 -0.00000000000E+00 -0.45593999997E+02  0.45594000000E+02  0.51100000000E-03 0. -1.
    9900012    2    1    2    0    0 -0.20510198493E+02 -0.19156523947E+02  0.33105636915E+02  0.47787264436E+02  0.19999969868E+02 0.  0.
         12    1    1    2    0    0  0.20510198493E+02  0.19156523947E+02 -0.33105636915E+02  0.43400735564E+02  0.00000000000E+00 0. -1.
         11    1    3    3    0    0 -0.24025536739E+01 -0.11183823664E+02  0.15968970280E+02  0.19643273351E+02  0.51100000000E-03 0. -1.
        -11    1    3    3    0    0 -0.34554030093E+01 -0.16040857216E+01 -0.10350994028E+01  0.39476995825E+01  0.51100000000E-03 0.  1.
        -12    1    3    3    0    0 -0.14652241810E+02 -0.63686145609E+01  0.18171766039E+02  0.24196291502E+02  0.00000000000E+00 0.  1.
</event>
<event>
 7    1  0.1418970E-010  0.4778727E+02  0.7816164E-02  0.1312668E+00
        -11   -1    0    0    0    0  0.00000000000E+00  0.00000000000E+00  0.45593999997E+02  0.45594000000E+02  0.51100000000E-03 0.  1.
         11   -1    0    0    0    0 -0.00000000000E+00 -0.00000000000E+00 -0.45593999997E+02  0.45594000000E+02  0.51100000000E-03 0. -1.
    9900012    2    1    2    0    0 -0.78084343164E+01  0.29531763310E+02 -0.30830605981E+02  0.47787274708E+02  0.20000016706E+02 0.  0.
         12    1    1    2    0    0  0.78084343164E+01 -0.29531763310E+02  0.30830605981E+02  0.43400725292E+02  0.00000000000E+00 0. -1.
         11    1    3    3    0    0 -0.22638495794E+01 -0.12894047479E+01  0.22527129224E+00  0.26150194910E+01  0.51100000000E-03 0. -1.
        -11    1    3    3    0    0 -0.42146489049E+01  0.13797717166E+02 -0.80467619615E+01  0.16519402008E+02  0.51100000000E-03 0.  1.
        -12    1    3    3    0    0 -0.13299358321E+01  0.17023450891E+02 -0.23009115312E+02  0.28652853209E+02  0.00000000000E+00 0.  1.
</event>
<event>
 7    1  0.1418970E-010  0.4778727E+02  0.7816164E-02  0.1312668E+00
        -11   -1    0    0    0    0  0.00000000000E+00  0.00000000000E+00  0.45593999997E+02  0.45594000000E+02  0.51100000000E-03 0.  1.
         11   -1    0    0    0    0 -0.00000000000E+00 -0.00000000000E+00 -0.45593999997E+02  0.45594000000E+02  0.51100000000E-03 0. -1.
    9900012    2    1    2    0    0 -0.64428739630E+01 -0.20727994928E+02  0.37582748156E+02  0.47787270080E+02  0.19999995602E+02 0.  0.
         12    1    1    2    0    0  0.64428739630E+01  0.20727994928E+02 -0.37582748156E+02  0.43400729920E+02  0.00000000000E+00 0. -1.
         11    1    3    3    0    0 -0.59573149094E+01 -0.29625314075E+01  0.37728678579E+01  0.76485766914E+01  0.51100000000E-03 0. -1.
        -11    1    3    3    0    0 -0.51123740199E+01 -0.15799133667E+02  0.26062770803E+02  0.30903349575E+02  0.51100000000E-03 0.  1.
         12    1    3    3    0    0  0.46268149663E+01 -0.19663298532E+01  0.77471094955E+01  0.92353438138E+01  0.00000000000E+00 0. -1.
</event>
<event>
 7    1  0.1418970E-010  0.4778728E+02  0.7816164E-02  0.1312668E+00
        -11   -1    0    0    0    0  0.00000000000E+00  0.00000000000E+00  0.45593999997E+02  0.45594000000E+02  0.51100000000E-03 0.  1.
         11   -1    0    0    0    0 -0.00000000000E+00 -0.00000000000E+00 -0.45593999997E+02  0.45594000000E+02  0.51100000000E-03 0. -1.
    9900012    2    1    2    0    0 -0.19175960753E+02  0.92721454954E+01  0.37814449052E+02  0.47787277540E+02  0.20000029618E+02 0.  0.
         12    1    1    2    0    0  0.19175960753E+02 -0.92721454954E+01 -0.37814449052E+02  0.43400722460E+02  0.00000000000E+00 0. -1.
         11    1    3    3    0    0 -0.87151162467E+00  0.12150738716E-01 -0.46682715456E+00  0.98874061601E+00  0.51100000000E-03 0. -1.
        -11    1    3    3    0    0 -0.18090023798E+02  0.12608225698E+02  0.26119800963E+02  0.34182748849E+02  0.51100000000E-03 0.  1.
        -12    1    3    3    0    0 -0.21442532985E+00 -0.33482309409E+01  0.12161475244E+02  0.12615788076E+02  0.00000000000E+00 0.  1.
</event>
<event>
 7    1  0.1418970E-010  0.4778727E+02  0.7816164E-02  0.1312668E+00
        -11   -1    0    0    0    0  0.00000000000E+00  0.00000000000E+00  0.45593999997E+02  0.45594000000E+02  0.51100000000E-03 0. -1.
         11   -1    0    0    0    0 -0.00000000000E+00 -0.00000000000E+00 -0.45593999997E+02  0.45594000000E+02  0.51100000000E-03 0.  1.
    9900012    2    1    2    0    0 -0.19398695995E+02  0.38090819825E+02 -0.75102394273E+01  0.47787266625E+02  0.19999979848E+02 0.  0.
         12    1    1    2    0    0  0.19398695995E+02 -0.38090819825E+02  0.75102394273E+01  0.43400733375E+02  0.00000000000E+00 0. -1.
         11    1    3    3    0    0 -0.20617999855E+01  0.10248048915E+02 -0.30497183750E+00  0.10457845563E+02  0.51100000000E-03 0. -1.
        -11    1    3    3    0    0 -0.12673565517E+02  0.27204168676E+02 -0.16620226305E+01  0.30057417982E+02  0.51100000000E-03 0.  1.
         12    1    3    3    0    0 -0.46633304934E+01  0.63860223387E+00 -0.55432449593E+01  0.72720030791E+01  0.00000000000E+00 0. -1.
</event>
<event>
 7    1  0.1418970E-010  0.4778727E+02  0.7816164E-02  0.1312668E+00
        -11   -1    0    0    0    0  0.00000000000E+00  0.00000000000E+00  0.45593999997E+02  0.45594000000E+02  0.51100000000E-03 0.  1.
         11   -1    0    0    0    0 -0.00000000000E+00 -0.00000000000E+00 -0.45593999997E+02  0.45594000000E+02  0.51100000000E-03 0. -1.
    9900012    2    1    2    0    0 -0.13564313392E+02  0.99725464429E+01  0.40002262615E+02  0.47787270804E+02  0.19999998906E+02 0.  0.
         12    1    1    2    0    0  0.13564313392E+02 -0.99725464429E+01 -0.40002262615E+02  0.43400729196E+02  0.00000000000E+00 0. -1.
         11    1    3    3    0    0 -0.74930674624E+01 -0.25099748043E+01  0.96989786829E+01  0.12510644319E+02  0.51100000000E-03 0. -1.
        -11    1    3    3    0    0  0.15816141306E+01  0.78383345561E+01  0.83154016630E+01  0.11536329440E+02  0.51100000000E-03 0.  1.
         12    1    3    3    0    0 -0.76528600607E+01  0.46441866911E+01  0.21987882269E+02  0.23740297046E+02  0.00000000000E+00 0. -1.
</event>
<event>
 7    1  0.1418970E-010  0.4778727E+02  0.7816164E-02  0.1312668E+00
        -11   -1    0    0    0    0  0.00000000000E+00  0.00000000000E+00  0.45593999997E+02  0.45594000000E+02  0.51100000000E-03 0.  1.
         11   -1    0    0    0    0 -0.00000000000E+00 -0.00000000000E+00 -0.45593999997E+02  0.45594000000E+02  0.51100000000E-03 0. -1.
    9900012    2    1    2    0    0 -0.11088308149E+02  0.14545454638E+02  0.39358635901E+02  0.47787273644E+02  0.20000011854E+02 0.  0.
         12    1    1    2    0    0  0.11088308149E+02 -0.14545454638E+02 -0.39358635901E+02  0.43400726356E+02  0.00000000000E+00 0. -1.
         11    1    3    3    0    0 -0.58432549490E+01  0.16582684977E+01  0.12870298740E+02  0.14231587147E+02  0.51100000000E-03 0. -1.
        -11    1    3    3    0    0  0.31098804409E-01  0.10466780625E+02  0.55897776381E+01  0.11865920870E+02  0.51100000000E-03 0.  1.
        -12    1    3    3    0    0 -0.52761520045E+01  0.24204055152E+01  0.20898559523E+02  0.21689765628E+02  0.00000000000E+00 0.  1.
</event>
<event>
 7    1  0.1418970E-010  0.4778727E+02  0.7816164E-02  0.1312668E+00
        -11   -1    0    0    0    0  0.00000000000E+00  0.00000000000E+00  0.45593999997E+02  0.45594000000E+02  0.51100000000E-03 0. -1.
         11   -1    0    0    0    0 -0.00000000000E+00 -0.00000000000E+00 -0.45593999997E+02  0.45594000000E+02  0.51100000000E-03 0.  1.
    9900012    2    1    2    0    0 -0.48721937907E+01  0.99270474803E+01 -0.41968307993E+02  0.47787269363E+02  0.19999992333E+02 0.  0.
         12    1    1    2    0    0  0.48721937907E+01 -0.99270474803E+01  0.41968307993E+02  0.43400730637E+02  0.00000000000E+00 0. -1.
         11    1    3    3    0    0 -0.96901086134E+01  0.71684465627E+00 -0.20436812244E+02  0.22629082309E+02  0.51100000000E-03 0. -1.
        -11    1    3    3    0    0  0.25804752403E+01 -0.56073258090E+00 -0.72007742690E+01  0.76697081970E+01  0.51100000000E-03 0.  1.
        -12    1    3    3    0    0  0.22374395824E+01  0.97709354049E+01 -0.14330721480E+02  0.17488478857E+02  0.00000000000E+00 0.  1.
</event>
<event>
 7    1  0.1418970E-010  0.4778727E+02  0.7816164E-02  0.1312668E+00
        -11   -1    0    0    0    0  0.00000000000E+00  0.00000000000E+00  0.45593999997E+02  0.45594000000E+02  0.51100000000E-03 0. -1.
         11   -1    0    0    0    0 -0.00000000000E+00 -0.00000000000E+00 -0.45593999997E+02  0.45594000000E+02  0.51100000000E-03 0.  1.
    9900012    2    1    2    0    0  0.65692302877E+01  0.37989689076E+02  0.19931184519E+02  0.47787269833E+02  0.19999994478E+02 0.  0.
         12    1    1    2    0    0 -0.65692302877E+01 -0.37989689076E+02 -0.19931184519E+02  0.43400730167E+02  0.00000000000E+00 0. -1.
         11    1    3    3    0    0 -0.28366281327E+01  0.90284083938E+01 -0.75562756934E+00  0.94936605465E+01  0.51100000000E-03 0. -1.
        -11    1    3    3    0    0  0.47972426638E+01  0.22515571830E+02  0.10275929801E+02  0.25210300386E+02  0.51100000000E-03 0.  1.
         12    1    3    3    0    0  0.46086157566E+01  0.64457088528E+01  0.10410882287E+02  0.13083308901E+02  0.00000000000E+00 0. -1.
</event>
<event>
 7    1  0.1418970E-010  0.4778727E+02  0.7816164E-02  0.1312668E+00
        -11   -1    0    0    0    0  0.00000000000E+00  0.00000000000E+00  0.45593999997E+02  0.45594000000E+02  0.51100000000E-03 0. -1.
         11   -1    0    0    0    0 -0.00000000000E+00 -0.00000000000E+00 -0.45593999997E+02  0.45594000000E+02  0.51100000000E-03 0.  1.
    9900012    2    1    2    0    0 -0.21419350697E+02 -0.37491387768E+02 -0.43852542543E+01  0.47787271943E+02  0.20000004096E+02 0.  0.
         12    1    1    2    0    0  0.21419350697E+02  0.37491387768E+02  0.43852542543E+01  0.43400728057E+02  0.00000000000E+00 0. -1.
         11    1    3    3    0    0 -0.28878176853E+01 -0.87621305419E+01 -0.50006750734E+01  0.10493863639E+02  0.51100000000E-03 0. -1.
        -11    1    3    3    0    0 -0.16659080730E+02 -0.12828090666E+02  0.24911503196E+01  0.21172876778E+02  0.51100000000E-03 0.  1.
        -12    1    3    3    0    0 -0.18724522816E+01 -0.15901166560E+02 -0.18757295005E+01  0.16120531526E+02  0.00000000000E+00 0.  1.
</event>
<event>
 7    1  0.1418970E-010  0.4778727E+02  0.7816164E-02  0.1312668E+00
        -11   -1    0    0    0    0  0.00000000000E+00  0.00000000000E+00  0.45593999997E+02  0.45594000000E+02  0.51100000000E-03 0.  1.
         11   -1    0    0    0    0 -0.00000000000E+00 -0.00000000000E+00 -0.45593999997E+02  0.45594000000E+02  0.51100000000E-03 0. -1.
    9900012    2    1    2    0    0  0.16264458439E+02 -0.67903289082E+01  0.39660834071E+02  0.47787274958E+02  0.20000017843E+02 0.  0.
         12    1    1    2    0    0 -0.16264458439E+02  0.67903289082E+01 -0.39660834071E+02  0.43400725042E+02  0.00000000000E+00 0. -1.
         11    1    3    3    0    0  0.36411453790E+01 -0.30539459557E+01  0.18781891656E+01  0.51100019935E+01  0.51100000000E-03 0. -1.
        -11    1    3    3    0    0  0.11223797337E+02  0.30989743149E+01  0.30230929637E+02  0.32395777124E+02  0.51100000000E-03 0.  1.
         12    1    3    3    0    0  0.13995157230E+01 -0.68353572674E+01  0.75517152679E+01  0.10281495841E+02  0.00000000000E+00 0. -1.
</event>
<event>
 7    1  0.1418970E-010  0.4778727E+02  0.7816164E-02  0.1312668E+00
        -11   -1    0    0    0    0  0.00000000000E+00  0.00000000000E+00  0.45593999997E+02  0.45594000000E+02  0.51100000000E-03 0.  1.
         11   -1    0    0    0    0 -0.00000000000E+00 -0.00000000000E+00 -0.45593999997E+02  0.45594000000E+02  0.51100000000E-03 0. -1.
    9900012    2    1    2    0    0 -0.34416929266E+02 -0.25398532734E+02 -0.73493414349E+01  0.47787270690E+02  0.19999998383E+02 0.  0.
         12    1    1    2    0    0  0.34416929266E+02  0.25398532734E+02  0.73493414349E+01  0.43400729310E+02  0.00000000000E+00 0. -1.
         11    1    3    3    0    0 -0.77145311250E+01 -0.61668456255E+01 -0.20151593332E+01  0.10079922760E+02  0.51100000000E-03 0. -1.
        -11    1    3    3    0    0 -0.24167632856E+02 -0.19427411522E+02  0.85135746897E+00  0.31019729304E+02  0.51100000000E-03 0.  1.
         12    1    3    3    0    0 -0.25347652853E+01  0.19572441427E+00 -0.61855395707E+01  0.66876186254E+01  0.00000000000E+00 0. -1.
</event>
<event>
 7    1  0.1418970E-010  0.4778727E+02  0.7816164E-02  0.1312668E+00
        -11   -1    0    0    0    0  0.00000000000E+00  0.00000000000E+00  0.45593999997E+02  0.45594000000E+02  0.51100000000E-03 0.  1.
         11   -1    0    0    0    0 -0.00000000000E+00 -0.00000000000E+00 -0.45593999997E+02  0.45594000000E+02  0.51100000000E-03 0. -1.
    9900012    2    1    2    0    0 -0.30688091706E+02  0.21816939560E+02 -0.21584383222E+02  0.47787269322E+02  0.19999992145E+02 0.  0.
         12    1    1    2    0    0  0.30688091706E+02 -0.21816939560E+02  0.21584383222E+02  0.43400730678E+02  0.00000000000E+00 0. -1.
         11    1    3    3    0    0 -0.64217930740E+00  0.67539605842E+01 -0.38463292099E+01  0.77988862338E+01  0.51100000000E-03 0. -1.
        -11    1    3    3    0    0 -0.20666761690E+02  0.14108439525E+02 -0.76173745993E+01  0.26156978049E+02  0.51100000000E-03 0.  1.
         12    1    3    3    0    0 -0.93791507088E+01  0.95453945060E+00 -0.10120679413E+02  0.13831405039E+02  0.00000000000E+00 0. -1.
</event>
<event>
 7    1  0.1418970E-010  0.4778727E+02  0.7816164E-02  0.1312668E+00
        -11   -1    0    0    0    0  0.00000000000E+00  0.00000000000E+00  0.45593999997E+02  0.45594000000E+02  0.51100000000E-03 0. -1.
         11   -1    0    0    0    0 -0.00000000000E+00 -0.00000000000E+00 -0.45593999997E+02  0.45594000000E+02  0.51100000000E-03 0.  1.
    9900012    2    1    2    0    0  0.73097815897E+01  0.12209680391E+02 -0.41001387476E+02  0.47787274463E+02  0.20000015587E+02 0.  0.
         12    1    1    2    0    0 -0.73097815897E+01 -0.12209680391E+02  0.41001387476E+02  0.43400725537E+02  0.00000000000E+00 0. -1.
         11    1    3    3    0    0 -0.24044973971E+01 -0.21286443244E+01 -0.15581518063E+01  0.35693937448E+01  0.51100000000E-03 0. -1.
        -11    1    3    3    0    0  0.18041291876E+01  0.10847764917E+02 -0.26054159847E+02  0.28279818447E+02  0.51100000000E-03 0.  1.
        -12    1    3    3    0    0  0.79101497993E+01  0.34905597983E+01 -0.13389075823E+02  0.15938062271E+02  0.00000000000E+00 0.  1.
</event>
<event>
 7    1  0.1418970E-010  0.4778727E+02  0.7816164E-02  0.1312668E+00
        -11   -1    0    0    0    0  0.00000000000E+00  0.00000000000E+00  0.45593999997E+02  0.45594000000E+02  0.51100000000E-03 0.  1.
         11   -1    0    0    0    0 -0.00000000000E+00 -0.00000000000E+00 -0.45593999997E+02  0.45594000000E+02  0.51100000000E-03 0. -1.
    9900012    2    1    2    0    0  0.23037222330E+02 -0.94977608704E+00  0.36769651911E+02  0.47787274327E+02  0.20000014966E+02 0.  0.
         12    1    1    2    0    0 -0.23037222330E+02  0.94977608704E+00 -0.36769651911E+02  0.43400725673E+02  0.00000000000E+00 0. -1.
         11    1    3    3    0    0  0.21111042426E+01 -0.30642665407E+01  0.14550618644E+01  0.39954594036E+01  0.51100000000E-03 0. -1.
        -11    1    3    3    0    0  0.63643854397E+01  0.58885716549E+01  0.22206090249E+02  0.23838857409E+02  0.51100000000E-03 0.  1.
        -12    1    3    3    0    0  0.14561732648E+02 -0.37740812013E+01  0.13108499797E+02  0.19952957514E+02  0.00000000000E+00 0.  1.
</event>
<event>
 7    1  0.1418970E-010  0.4778728E+02  0.7816164E-02  0.1312668E+00
        -11   -1    0    0    0    0  0.00000000000E+00  0.00000000000E+00  0.45593999997E+02  0.45594000000E+02  0.51100000000E-03 0.  1.
         11   -1    0    0    0    0 -0.00000000000E+00 -0.00000000000E+00 -0.45593999997E+02  0.45594000000E+02  0.51100000000E-03 0. -1.
    9900012    2    1    2    0    0  0.26418785891E+02 -0.31911416944E+02 -0.12935672946E+02  0.47787280952E+02  0.20000045170E+02 0.  0.
         12    1    1    2    0    0 -0.26418785891E+02  0.31911416944E+02  0.12935672946E+02  0.43400719048E+02  0.00000000000E+00 0. -1.
         11    1    3    3    0    0  0.12764536582E+01  0.13797649438E+01 -0.43382451158E+01  0.47279441819E+01  0.51100000000E-03 0. -1.
        -11    1    3    3    0    0  0.68048956238E+01 -0.10923407967E+02  0.53162283813E-01  0.12869742521E+02  0.51100000000E-03 0.  1.
         12    1    3    3    0    0  0.18337436609E+02 -0.22367773920E+02 -0.86505901144E+01  0.30189594248E+02  0.00000000000E+00 0. -1.
</event>
<event>
 7    1  0.1418970E-010  0.4778727E+02  0.7816164E-02  0.1312668E+00
        -11   -1    0    0    0    0  0.00000000000E+00  0.00000000000E+00  0.45593999997E+02  0.45594000000E+02  0.51100000000E-03 0. -1.
         11   -1    0    0    0    0 -0.00000000000E+00 -0.00000000000E+00 -0.45593999997E+02  0.45594000000E+02  0.51100000000E-03 0.  1.
    9900012    2    1    2    0    0  0.13386657965E+02  0.31972149228E+02 -0.26119007270E+02  0.47787268687E+02  0.19999989252E+02 0.  0.
         12    1    1    2    0    0 -0.13386657965E+02 -0.31972149228E+02  0.26119007270E+02  0.43400731313E+02  0.00000000000E+00 0. -1.
         11    1    3    3    0    0  0.97856950778E+01  0.14065458463E+02 -0.54220361176E+01  0.17972073499E+02  0.51100000000E-03 0. -1.
        -11    1    3    3    0    0  0.38083867816E+01  0.23883471485E+01 -0.10006352555E+02  0.10969735808E+02  0.51100000000E-03 0.  1.
        -12    1    3    3    0    0 -0.20742389443E+00  0.15518343616E+02 -0.10690618598E+02  0.18845459381E+02  0.00000000000E+00 0.  1.
</event>
<event>
 7    1  0.1418970E-010  0.4778727E+02  0.7816164E-02  0.1312668E+00
        -11   -1    0    0    0    0  0.00000000000E+00  0.00000000000E+00  0.45593999997E+02  0.45594000000E+02  0.51100000000E-03 0. -1.
         11   -1    0    0    0    0 -0.00000000000E+00 -0.00000000000E+00 -0.45593999997E+02  0.45594000000E+02  0.51100000000E-03 0.  1.
    9900012    2    1    2    0    0 -0.12109546526E+02 -0.32505238602E+02 -0.26084312372E+02  0.47787274136E+02  0.20000014094E+02 0.  0.
         12    1    1    2    0    0  0.12109546526E+02  0.32505238602E+02  0.26084312372E+02  0.43400725864E+02  0.00000000000E+00 0. -1.
         11    1    3    3    0    0 -0.26622953640E+00 -0.71598916731E+01 -0.18927007485E+01  0.74106169326E+01  0.51100000000E-03 0. -1.
        -11    1    3    3    0    0 -0.36589719481E+01 -0.23690645314E+02 -0.18268923549E+02  0.30139481068E+02  0.51100000000E-03 0.  1.
         12    1    3    3    0    0 -0.81843450420E+01 -0.16547016141E+01 -0.59226880748E+01  0.10237176136E+02  0.00000000000E+00 0. -1.
</event>
<event>
 7    1  0.1418970E-010  0.4778728E+02  0.7816164E-02  0.1312668E+00
        -11   -1    0    0    0    0  0.00000000000E+00  0.00000000000E+00  0.45593999997E+02  0.45594000000E+02  0.51100000000E-03 0.  1.
         11   -1    0    0    0    0 -0.00000000000E+00 -0.00000000000E+00 -0.45593999997E+02  0.45594000000E+02  0.51100000000E-03 0. -1.
    9900012    2    1    2    0    0  0.21541576460E+02 -0.37572109972E+02 -0.28142252218E+01  0.47787276184E+02  0.20000023435E+02 0.  0.
         12    1    1    2    0    0 -0.21541576460E+02  0.37572109972E+02  0.28142252218E+01  0.43400723816E+02  0.00000000000E+00 0. -1.
         11    1    3    3    0    0  0.19739397991E+01 -0.13031326793E+00  0.17468654946E+01  0.26391209134E+01  0.51100000000E-03 0. -1.
        -11    1    3    3    0    0  0.19299409618E+02 -0.32484879816E+02 -0.85962263315E+01  0.38750867548E+02  0.51100000000E-03 0.  1.
        -12    1    3    3    0    0  0.26822704212E+00 -0.49569168880E+01  0.40351356151E+01  0.63972877231E+01  0.00000000000E+00 0.  1.
</event>
<event>
 7    1  0.1418970E-010  0.4778727E+02  0.7816164E-02  0.1312668E+00
        -11   -1    0    0    0    0  0.00000000000E+00  0.00000000000E+00  0.45593999997E+02  0.45594000000E+02  0.51100000000E-03 0.  1.
         11   -1    0    0    0    0 -0.00000000000E+00 -0.00000000000E+00 -0.45593999997E+02  0.45594000000E+02  0.51100000000E-03 0. -1.
    9900012    2    1    2    0    0  0.51339093132E+01  0.32816522081E+02  0.27934605536E+02  0.47787270366E+02  0.19999996905E+02 0.  0.
         12    1    1    2    0    0 -0.51339093132E+01 -0.32816522081E+02 -0.27934605536E+02  0.43400729634E+02  0.00000000000E+00 0. -1.
         11    1    3    3    0    0  0.41488946549E-01  0.14807085745E+02  0.21384512099E+01  0.14960764801E+02  0.51100000000E-03 0. -1.
        -11    1    3    3    0    0  0.61385006110E+00  0.14492163314E+02  0.19943793517E+02  0.24660788907E+02  0.51100000000E-03 0.  1.
        -12    1    3    3    0    0  0.44785703056E+01  0.35172730228E+01  0.58523608094E+01  0.81657166583E+01  0.00000000000E+00 0.  1.
</event>
<event>
 7    1  0.1418970E-010  0.4778727E+02  0.7816164E-02  0.1312668E+00
        -11   -1    0    0    0    0  0.00000000000E+00  0.00000000000E+00  0.45593999997E+02  0.45594000000E+02  0.51100000000E-03 0.  1.
         11   -1    0    0    0    0 -0.00000000000E+00 -0.00000000000E+00 -0.45593999997E+02  0.45594000000E+02  0.51100000000E-03 0. -1.
    9900012    2    1    2    0    0  0.66895090257E+01 -0.20048753143E+02  0.37906744226E+02  0.47787270842E+02  0.19999999078E+02 0.  0.
         12    1    1    2    0    0 -0.66895090257E+01  0.20048753143E+02 -0.37906744226E+02  0.43400729158E+02  0.00000000000E+00 0. -1.
         11    1    3    3    0    0 -0.61590625080E+00  0.10988996739E+01 -0.87170018398E+00  0.15319211712E+01  0.51100000000E-03 0. -1.
        -11    1    3    3    0    0  0.67255249468E+01 -0.12981165226E+02  0.14326862100E+02  0.20469546022E+02  0.51100000000E-03 0.  1.
         12    1    3    3    0    0  0.57989032962E+00 -0.81664875905E+01  0.24451582311E+02  0.25785803649E+02  0.00000000000E+00 0. -1.
</event>
<event>
 7    1  0.1418970E-010  0.4778726E+02  0.7816164E-02  0.1312668E+00
        -11   -1    0    0    0    0  0.00000000000E+00  0.00000000000E+00  0.45593999997E+02  0.45594000000E+02  0.51100000000E-03 0. -1.
         11   -1    0    0    0    0 -0.00000000000E+00 -0.00000000000E+00 -0.45593999997E+02  0.45594000000E+02  0.51100000000E-03 0.  1.
    9900012    2    1    2    0    0 -0.11793789937E+02 -0.36705072838E+02 -0.19931600743E+02  0.47787256213E+02  0.19999932376E+02 0.  0.
         12    1    1    2    0    0  0.11793789937E+02  0.36705072838E+02  0.19931600743E+02  0.43400743787E+02  0.00000000000E+00 0. -1.
         11    1    3    3    0    0 -0.36199323929E-02  0.40296789523E+00 -0.22352786294E+01  0.22713139459E+01  0.51100000000E-03 0. -1.
        -11    1    3    3    0    0 -0.60374688983E+01 -0.49162968760E+01 -0.85401190623E+01  0.11556584250E+02  0.51100000000E-03 0.  1.
         12    1    3    3    0    0 -0.57527011062E+01 -0.32191743857E+02 -0.91562030517E+01  0.33959358017E+02  0.00000000000E+00 0. -1.
</event>
<event>
 7    1  0.1418970E-010  0.4778727E+02  0.7816164E-02  0.1312668E+00
        -11   -1    0    0    0    0  0.00000000000E+00  0.00000000000E+00  0.45593999997E+02  0.45594000000E+02  0.51100000000E-03 0. -1.
         11   -1    0    0    0    0 -0.00000000000E+00 -0.00000000000E+00 -0.45593999997E+02  0.45594000000E+02  0.51100000000E-03 0.  1.
    9900012    2    1    2    0    0  0.12385739688E+01  0.12406300028E+02 -0.41571299502E+02  0.47787270879E+02  0.19999999248E+02 0.  0.
         12    1    1    2    0    0 -0.12385739688E+01 -0.12406300028E+02  0.41571299502E+02  0.43400729121E+02  0.00000000000E+00 0. -1.
         11    1    3    3    0    0  0.51580351600E+01  0.87182724925E+00 -0.22035547398E+02  0.22647974718E+02  0.51100000000E-03 0. -1.
        -11    1    3    3    0    0 -0.22016691186E+01  0.92663796543E+01 -0.20096658236E+02  0.22239352763E+02  0.51100000000E-03 0.  1.
        -12    1    3    3    0    0 -0.17177920726E+01  0.22680931248E+01  0.56090613071E+00  0.28999433986E+01  0.00000000000E+00 0.  1.
</event>
<event>
 7    1  0.1418970E-010  0.4778727E+02  0.7816164E-02  0.1312668E+00
        -11   -1    0    0    0    0  0.00000000000E+00  0.00000000000E+00  0.45593999997E+02  0.45594000000E+02  0.51100000000E-03 0.  1.
         11   -1    0    0    0    0 -0.00000000000E+00 -0.00000000000E+00 -0.45593999997E+02  0.45594000000E+02  0.51100000000E-03 0. -1.
    9900012    2    1    2    0    0 -0.15514362663E+02 -0.40493519098E+02  0.17896286113E+01  0.47787270648E+02  0.19999998190E+02 0.  0.
         12    1    1    2    0    0  0.15514362663E+02  0.40493519098E+02 -0.17896286113E+01  0.43400729352E+02  0.00000000000E+00 0. -1.
         11    1    3    3    0    0 -0.10719729733E+02 -0.38975700790E+02 -0.18376818432E+01  0.40464736901E+02  0.51100000000E-03 0. -1.
        -11    1    3    3    0    0 -0.37456831429E+01 -0.22091746057E+01  0.10776517989E+01  0.44801705666E+01  0.51100000000E-03 0.  1.
         12    1    3    3    0    0 -0.10489497872E+01  0.69135629816E+00  0.25496586556E+01  0.28423631801E+01  0.00000000000E+00 0. -1.
</event>
<event>
 7    1  0.1418970E-010  0.4778727E+02  0.7816164E-02  0.1312668E+00
        -11   -1    0    0    0    0  0.00000000000E+00  0.00000000000E+00  0.45593999997E+02  0.45594000000E+02  0.51100000000E-03 0. -1.
         11   -1    0    0    0    0 -0.00000000000E+00 -0.00000000000E+00 -0.45593999997E+02  0.45594000000E+02  0.51100000000E-03 0.  1.
    9900012    2    1    2    0    0  0.25422250531E+02  0.31120464358E+02 -0.16396624557E+02  0.47787269352E+02  0.19999992283E+02 0.  0.
         12    1    1    2    0    0 -0.25422250531E+02 -0.31120464358E+02  0.16396624557E+02  0.43400730648E+02  0.00000000000E+00 0. -1.
         11    1    3    3    0    0  0.15682127552E+01 -0.15396755600E+01  0.10470509958E+01  0.24343804395E+01  0.51100000000E-03 0. -1.
        -11    1    3    3    0    0  0.14427889403E+02  0.20094517721E+02 -0.48246862603E+01  0.25203794016E+02  0.51100000000E-03 0.  1.
        -12    1    3    3    0    0  0.94261483738E+01  0.12565622197E+02 -0.12618989293E+02  0.20149094896E+02  0.00000000000E+00 0.  1.
</event>
<event>
 7    1  0.1418970E-010  0.4778728E+02  0.7816164E-02  0.1312668E+00
        -11   -1    0    0    0    0  0.00000000000E+00  0.00000000000E+00  0.45593999997E+02  0.45594000000E+02  0.51100000000E-03 0.  1.
         11   -1    0    0    0    0 -0.00000000000E+00 -0.00000000000E+00 -0.45593999997E+02  0.45594000000E+02  0.51100000000E-03 0. -1.
    9900012    2    1    2    0    0 -0.20539460676E+01  0.21544254556E+02  0.37619792273E+02  0.47787281464E+02  0.20000047506E+02 0.  0.
         12    1    1    2    0    0  0.20539460676E+01 -0.21544254556E+02 -0.37619792273E+02  0.43400718536E+02  0.00000000000E+00 0. -1.
         11    1    3    3    0    0 -0.33647069867E+00  0.16962083005E+02  0.12555524682E+02  0.21106081415E+02  0.51100000000E-03 0. -1.
        -11    1    3    3    0    0 -0.44193984485E+01  0.36495112664E+01  0.11875737384E+02  0.13186476171E+02  0.51100000000E-03 0.  1.
        -12    1    3    3    0    0  0.27019230796E+01  0.93266028472E+00  0.13188530207E+02  0.13494723878E+02  0.00000000000E+00 0.  1.
</event>
<event>
 7    1  0.1418970E-010  0.4778727E+02  0.7816164E-02  0.1312668E+00
        -11   -1    0    0    0    0  0.00000000000E+00  0.00000000000E+00  0.45593999997E+02  0.45594000000E+02  0.51100000000E-03 0.  1.
         11   -1    0    0    0    0 -0.00000000000E+00 -0.00000000000E+00 -0.45593999997E+02  0.45594000000E+02  0.51100000000E-03 0. -1.
    9900012    2    1    2    0    0 -0.32365744751E+02 -0.42384973750E+01 -0.28602742738E+02  0.47787272063E+02  0.20000004646E+02 0.  0.
         12    1    1    2    0    0  0.32365744751E+02  0.42384973750E+01  0.28602742738E+02  0.43400727937E+02  0.00000000000E+00 0. -1.
         11    1    3    3    0    0 -0.18848214410E+02  0.14466953872E+01 -0.99579295347E+01  0.21366058946E+02  0.51100000000E-03 0.  1.
        -11    1    3    3    0    0 -0.11211078395E+02 -0.79245964827E+00 -0.17645134820E+02  0.20920493640E+02  0.51100000000E-03 0. -1.
        -12    1    3    3    0    0 -0.23064519457E+01 -0.48927331139E+01 -0.99967838359E+00  0.55007194777E+01  0.00000000000E+00 0.  1.
</event>
<event>
 7    1  0.1418970E-010  0.4778728E+02  0.7816164E-02  0.1312668E+00
        -11   -1    0    0    0    0  0.00000000000E+00  0.00000000000E+00  0.45593999997E+02  0.45594000000E+02  0.51100000000E-03 0. -1.
         11   -1    0    0    0    0 -0.00000000000E+00 -0.00000000000E+00 -0.45593999997E+02  0.45594000000E+02  0.51100000000E-03 0.  1.
    9900012    2    1    2    0    0  0.16752150408E+02 -0.32642907787E+02 -0.23182500160E+02  0.47787282428E+02  0.20000051902E+02 0.  0.
         12    1    1    2    0    0 -0.16752150408E+02  0.32642907787E+02  0.23182500160E+02  0.43400717572E+02  0.00000000000E+00 0. -1.
         11    1    3    3    0    0  0.80979783633E+01 -0.15217857146E+02 -0.43721894170E+01  0.17784163467E+02  0.51100000000E-03 0. -1.
        -11    1    3    3    0    0  0.70204452811E+01 -0.33742511898E+01 -0.20170345611E+01  0.80461575748E+01  0.51100000000E-03 0.  1.
         12    1    3    3    0    0  0.16337267640E+01 -0.14050799451E+02 -0.16793276182E+02  0.21956961386E+02  0.00000000000E+00 0. -1.
</event>
<event>
 7    1  0.1418970E-010  0.4778727E+02  0.7816164E-02  0.1312668E+00
        -11   -1    0    0    0    0  0.00000000000E+00  0.00000000000E+00  0.45593999997E+02  0.45594000000E+02  0.51100000000E-03 0.  1.
         11   -1    0    0    0    0 -0.00000000000E+00 -0.00000000000E+00 -0.45593999997E+02  0.45594000000E+02  0.51100000000E-03 0. -1.
    9900012    2    1    2    0    0  0.12677747798E+02  0.37977675491E+02  0.16750948875E+02  0.47787269440E+02  0.19999992685E+02 0.  0.
         12    1    1    2    0    0 -0.12677747798E+02 -0.37977675491E+02 -0.16750948875E+02  0.43400730560E+02  0.00000000000E+00 0. -1.
         11    1    3    3    0    0  0.18507516678E+01  0.13157866636E+01 -0.24670652887E+01  0.33530564683E+01  0.51100000000E-03 0. -1.
        -11    1    3    3    0    0  0.56567276113E+01  0.29407582768E+02  0.98942012630E+01  0.31538860322E+02  0.51100000000E-03 0.  1.
         12    1    3    3    0    0  0.51702685186E+01  0.72543060597E+01  0.93238129002E+01  0.12895352650E+02  0.00000000000E+00 0. -1.
</event>
<event>
 7    1  0.1418970E-010  0.4778727E+02  0.7816164E-02  0.1312668E+00
        -11   -1    0    0    0    0  0.00000000000E+00  0.00000000000E+00  0.45593999997E+02  0.45594000000E+02  0.51100000000E-03 0. -1.
         11   -1    0    0    0    0 -0.00000000000E+00 -0.00000000000E+00 -0.45593999997E+02  0.45594000000E+02  0.51100000000E-03 0.  1.
    9900012    2    1    2    0    0  0.26731261167E+02 -0.12609396931E+02 -0.31781536798E+02  0.47787270792E+02  0.19999998849E+02 0.  0.
         12    1    1    2    0    0 -0.26731261167E+02  0.12609396931E+02  0.31781536798E+02  0.43400729208E+02  0.00000000000E+00 0. -1.
         11    1    3    3    0    0  0.35489253069E+01 -0.21455092487E+01  0.18335797614E+01  0.45343241804E+01  0.51100000000E-03 0. -1.
        -11    1    3    3    0    0  0.13439504387E+02 -0.94150312750E+01 -0.15075866397E+02  0.22283286112E+02  0.51100000000E-03 0.  1.
         12    1    3    3    0    0  0.97428314730E+01 -0.10488564075E+01 -0.18539250163E+02  0.20969660500E+02  0.00000000000E+00 0. -1.
</event>
<event>
 7    1  0.1418970E-010  0.4778727E+02  0.7816164E-02  0.1312668E+00
        -11   -1    0    0    0    0  0.00000000000E+00  0.00000000000E+00  0.45593999997E+02  0.45594000000E+02  0.51100000000E-03 0.  1.
         11   -1    0    0    0    0 -0.00000000000E+00 -0.00000000000E+00 -0.45593999997E+02  0.45594000000E+02  0.51100000000E-03 0. -1.
    9900012    2    1    2    0    0  0.37270160281E+02 -0.21612782905E+02  0.52389350225E+01  0.47787266452E+02  0.19999979064E+02 0.  0.
         12    1    1    2    0    0 -0.37270160281E+02  0.21612782905E+02 -0.52389350225E+01  0.43400733548E+02  0.00000000000E+00 0. -1.
         11    1    3    3    0    0  0.13368949903E+02 -0.90586050092E+01 -0.67698127558E+01  0.17510497173E+02  0.51100000000E-03 0. -1.
        -11    1    3    3    0    0  0.28422263986E+01 -0.29583833550E+01  0.41529814710E+01  0.58375969658E+01  0.51100000000E-03 0.  1.
        -12    1    3    3    0    0  0.21058983979E+02 -0.95957945412E+01  0.78557663073E+01  0.24439172314E+02  0.00000000000E+00 0.  1.
</event>
<event>
 7    1  0.1418970E-010  0.4778727E+02  0.7816164E-02  0.1312668E+00
        -11   -1    0    0    0    0  0.00000000000E+00  0.00000000000E+00  0.45593999997E+02  0.45594000000E+02  0.51100000000E-03 0.  1.
         11   -1    0    0    0    0 -0.00000000000E+00 -0.00000000000E+00 -0.45593999997E+02  0.45594000000E+02  0.51100000000E-03 0. -1.
    9900012    2    1    2    0    0 -0.19927537107E+02 -0.17818750197E+02  0.34190767871E+02  0.47787271880E+02  0.20000003811E+02 0.  0.
         12    1    1    2    0    0  0.19927537107E+02  0.17818750197E+02 -0.34190767871E+02  0.43400728120E+02  0.00000000000E+00 0. -1.
         11    1    3    3    0    0 -0.20112009887E+01 -0.32129945476E+01 -0.82230140871E-03  0.37905493424E+01  0.51100000000E-03 0. -1.
        -11    1    3    3    0    0 -0.63283237261E+01 -0.12532213427E+02  0.10466060165E+02  0.17511209844E+02  0.51100000000E-03 0.  1.
        -12    1    3    3    0    0 -0.11588012392E+02 -0.20735422228E+01  0.23725530007E+02  0.26485512694E+02  0.00000000000E+00 0.  1.
</event>
<event>
 7    1  0.1418970E-010  0.4778727E+02  0.7816164E-02  0.1312668E+00
        -11   -1    0    0    0    0  0.00000000000E+00  0.00000000000E+00  0.45593999997E+02  0.45594000000E+02  0.51100000000E-03 0.  1.
         11   -1    0    0    0    0 -0.00000000000E+00 -0.00000000000E+00 -0.45593999997E+02  0.45594000000E+02  0.51100000000E-03 0. -1.
    9900012    2    1    2    0    0 -0.28037233238E+02  0.55987031066E+01  0.32652582165E+02  0.47787273668E+02  0.20000011961E+02 0.  0.
         12    1    1    2    0    0  0.28037233238E+02 -0.55987031066E+01 -0.32652582165E+02  0.43400726332E+02  0.00000000000E+00 0. -1.
         11    1    3    3    0    0 -0.14376193684E+02  0.32140651874E+01  0.14484230550E+02  0.20659092302E+02  0.51100000000E-03 0. -1.
        -11    1    3    3    0    0 -0.20577858033E+01  0.55198566936E+01  0.12543114207E+02  0.13857597721E+02  0.51100000000E-03 0.  1.
        -12    1    3    3    0    0 -0.11603253750E+02 -0.31352187743E+01  0.56252374085E+01  0.13270583644E+02  0.00000000000E+00 0.  1.
</event>
<event>
 7    1  0.1418970E-010  0.4778727E+02  0.7816164E-02  0.1312668E+00
        -11   -1    0    0    0    0  0.00000000000E+00  0.00000000000E+00  0.45593999997E+02  0.45594000000E+02  0.51100000000E-03 0. -1.
         11   -1    0    0    0    0 -0.00000000000E+00 -0.00000000000E+00 -0.45593999997E+02  0.45594000000E+02  0.51100000000E-03 0.  1.
    9900012    2    1    2    0    0 -0.34562483292E+02 -0.13979223389E+02 -0.22217994773E+02  0.47787271554E+02  0.20000002325E+02 0.  0.
         12    1    1    2    0    0  0.34562483292E+02  0.13979223389E+02  0.22217994773E+02  0.43400728446E+02  0.00000000000E+00 0. -1.
         11    1    3    3    0    0 -0.32563371963E+01 -0.27278695566E+01 -0.69083261401E+01  0.81098689615E+01  0.51100000000E-03 0. -1.
        -11    1    3    3    0    0 -0.18111131192E+02 -0.83182398010E+01 -0.16816186898E+02  0.26076624177E+02  0.51100000000E-03 0.  1.
         12    1    3    3    0    0 -0.13195014904E+02 -0.29331140319E+01  0.15065182647E+01  0.13600778416E+02  0.00000000000E+00 0. -1.
</event>
<event>
 7    1  0.1418970E-010  0.4778727E+02  0.7816164E-02  0.1312668E+00
        -11   -1    0    0    0    0  0.00000000000E+00  0.00000000000E+00  0.45593999997E+02  0.45594000000E+02  0.51100000000E-03 0.  1.
         11   -1    0    0    0    0 -0.00000000000E+00 -0.00000000000E+00 -0.45593999997E+02  0.45594000000E+02  0.51100000000E-03 0. -1.
    9900012    2    1    2    0    0 -0.10818580328E+02  0.19743423486E+02  0.37104968814E+02  0.47787272334E+02  0.20000005880E+02 0.  0.
         12    1    1    2    0    0  0.10818580328E+02 -0.19743423486E+02 -0.37104968814E+02  0.43400727666E+02  0.00000000000E+00 0. -1.
         11    1    3    3    0    0 -0.11165250651E+02  0.11124244211E+02  0.34036011536E+02  0.37508155285E+02  0.51100000000E-03 0. -1.
        -11    1    3    3    0    0  0.11336934509E+01  0.56277189179E+01  0.40595626441E+01  0.70311115893E+01  0.51100000000E-03 0.  1.
         12    1    3    3    0    0 -0.78702312753E+00  0.29914603573E+01 -0.99060536653E+00  0.32480054594E+01  0.00000000000E+00 0. -1.
</event>
<event>
 7    1  0.1418970E-010  0.4778727E+02  0.7816164E-02  0.1312668E+00
        -11   -1    0    0    0    0  0.00000000000E+00  0.00000000000E+00  0.45593999997E+02  0.45594000000E+02  0.51100000000E-03 0.  1.
         11   -1    0    0    0    0 -0.00000000000E+00 -0.00000000000E+00 -0.45593999997E+02  0.45594000000E+02  0.51100000000E-03 0. -1.
    9900012    2    1    2    0    0 -0.18262931252E+02  0.26871941622E+02  0.28774768206E+02  0.47787272014E+02  0.20000004420E+02 0.  0.
         12    1    1    2    0    0  0.18262931252E+02 -0.26871941622E+02 -0.28774768206E+02  0.43400727986E+02  0.00000000000E+00 0. -1.
         11    1    3    3    0    0 -0.10080750331E+02  0.64815621557E+01  0.66429688891E+01  0.13702598700E+02  0.51100000000E-03 0. -1.
        -11    1    3    3    0    0 -0.71732102526E+01  0.97939477400E+01  0.35129883230E+01  0.12637936733E+02  0.51100000000E-03 0.  1.
         12    1    3    3    0    0 -0.10089706683E+01  0.10596431726E+02  0.18618810994E+02  0.21446736581E+02  0.00000000000E+00 0. -1.
</event>
<event>
 7    1  0.1418970E-010  0.4778727E+02  0.7816164E-02  0.1312668E+00
        -11   -1    0    0    0    0  0.00000000000E+00  0.00000000000E+00  0.45593999997E+02  0.45594000000E+02  0.51100000000E-03 0.  1.
         11   -1    0    0    0    0 -0.00000000000E+00 -0.00000000000E+00 -0.45593999997E+02  0.45594000000E+02  0.51100000000E-03 0. -1.
    9900012    2    1    2    0    0 -0.35892321120E+02 -0.23683727379E+01  0.24284880042E+02  0.47787270703E+02  0.19999998444E+02 0.  0.
         12    1    1    2    0    0  0.35892321120E+02  0.23683727379E+01 -0.24284880042E+02  0.43400729297E+02  0.00000000000E+00 0. -1.
         11    1    3    3    0    0 -0.20443778097E+02 -0.29421620941E+01  0.57579103166E+01  0.21441966144E+02  0.51100000000E-03 0.  1.
        -11    1    3    3    0    0 -0.15884609991E+02 -0.20848003544E+01  0.15473670891E+02  0.22273340975E+02  0.51100000000E-03 0. -1.
        -12    1    3    3    0    0  0.43606696802E+00  0.26585897106E+01  0.30532988351E+01  0.40719635837E+01  0.00000000000E+00 0.  1.
</event>
<event>
 7    1  0.1418970E-010  0.4778727E+02  0.7816164E-02  0.1312668E+00
        -11   -1    0    0    0    0  0.00000000000E+00  0.00000000000E+00  0.45593999997E+02  0.45594000000E+02  0.51100000000E-03 0.  1.
         11   -1    0    0    0    0 -0.00000000000E+00 -0.00000000000E+00 -0.45593999997E+02  0.45594000000E+02  0.51100000000E-03 0. -1.
    9900012    2    1    2    0    0  0.52089861269E+01 -0.24696863022E+02  0.35306582044E+02  0.47787270568E+02  0.19999997826E+02 0.  0.
         12    1    1    2    0    0 -0.52089861269E+01  0.24696863022E+02 -0.35306582044E+02  0.43400729432E+02  0.00000000000E+00 0. -1.
         11    1    3    3    0    0 -0.40138879445E+01 -0.86648534618E+01  0.18191893776E+02  0.20545948053E+02  0.51100000000E-03 0. -1.
        -11    1    3    3    0    0  0.38705948762E+01  0.33339902927E+00  0.41739040463E+01  0.57021166997E+01  0.51100000000E-03 0.  1.
         12    1    3    3    0    0  0.53522791953E+01 -0.16365408590E+02  0.12940784221E+02  0.21539205815E+02  0.00000000000E+00 0. -1.
</event>
<event>
 7    1  0.1418970E-010  0.4778727E+02  0.7816164E-02  0.1312668E+00
        -11   -1    0    0    0    0  0.00000000000E+00  0.00000000000E+00  0.45593999997E+02  0.45594000000E+02  0.51100000000E-03 0.  1.
         11   -1    0    0    0    0 -0.00000000000E+00 -0.00000000000E+00 -0.45593999997E+02  0.45594000000E+02  0.51100000000E-03 0. -1.
    9900012    2    1    2    0    0 -0.35199378028E+02 -0.22582625489E+02  0.11603960539E+02  0.47787273189E+02  0.20000009777E+02 0.  0.
         12    1    1    2    0    0  0.35199378028E+02  0.22582625489E+02 -0.11603960539E+02  0.43400726811E+02  0.00000000000E+00 0. -1.
         11    1    3    3    0    0 -0.11345350748E+02 -0.76257001371E+00 -0.28160870452E+01  0.11714471525E+02  0.51100000000E-03 0. -1.
        -11    1    3    3    0    0 -0.84940114762E+01 -0.10819151464E+02  0.32829363817E+01  0.14141426410E+02  0.51100000000E-03 0.  1.
         12    1    3    3    0    0 -0.15360015804E+02 -0.11000904012E+02  0.11137111202E+02  0.21931375254E+02  0.00000000000E+00 0. -1.
</event>
<event>
 7    1  0.1418970E-010  0.4778727E+02  0.7816164E-02  0.1312668E+00
        -11   -1    0    0    0    0  0.00000000000E+00  0.00000000000E+00  0.45593999997E+02  0.45594000000E+02  0.51100000000E-03 0.  1.
         11   -1    0    0    0    0 -0.00000000000E+00 -0.00000000000E+00 -0.45593999997E+02  0.45594000000E+02  0.51100000000E-03 0. -1.
    9900012    2    1    2    0    0  0.16186721324E+02  0.23182338505E+02  0.32927078868E+02  0.47787270875E+02  0.19999999230E+02 0.  0.
         12    1    1    2    0    0 -0.16186721324E+02 -0.23182338505E+02 -0.32927078868E+02  0.43400729125E+02  0.00000000000E+00 0. -1.
         11    1    3    3    0    0  0.48273320774E+01  0.14935855137E+02  0.13999637448E+02  0.21032659190E+02  0.51100000000E-03 0. -1.
        -11    1    3    3    0    0  0.49311222252E+01  0.52445940377E+01  0.18261043615E+02  0.19628740337E+02  0.51100000000E-03 0.  1.
         12    1    3    3    0    0  0.64282670209E+01  0.30018893303E+01  0.66639780404E+00  0.71258713486E+01  0.00000000000E+00 0. -1.
</event>
<event>
 7    1  0.1418970E-010  0.4778727E+02  0.7816164E-02  0.1312668E+00
        -11   -1    0    0    0    0  0.00000000000E+00  0.00000000000E+00  0.45593999997E+02  0.45594000000E+02  0.51100000000E-03 0.  1.
         11   -1    0    0    0    0 -0.00000000000E+00 -0.00000000000E+00 -0.45593999997E+02  0.45594000000E+02  0.51100000000E-03 0. -1.
    9900012    2    1    2    0    0 -0.10718194094E+02  0.57039507219E+01  0.41667832796E+02  0.47787273872E+02  0.20000012894E+02 0.  0.
         12    1    1    2    0    0  0.10718194094E+02 -0.57039507219E+01 -0.41667832796E+02  0.43400726128E+02  0.00000000000E+00 0. -1.
         11    1    3    3    0    0 -0.64726031058E+01  0.86120905153E+01  0.17413538821E+02  0.20476670348E+02  0.51100000000E-03 0. -1.
        -11    1    3    3    0    0 -0.54516064999E+01 -0.16820241019E+01  0.24845400849E+02  0.25492021539E+02  0.51100000000E-03 0.  1.
         12    1    3    3    0    0  0.12060155115E+01 -0.12261156916E+01 -0.59110687395E+00  0.18185819859E+01  0.00000000000E+00 0. -1.
</event>
<event>
 7    1  0.1418970E-010  0.4778727E+02  0.7816164E-02  0.1312668E+00
        -11   -1    0    0    0    0  0.00000000000E+00  0.00000000000E+00  0.45593999997E+02  0.45594000000E+02  0.51100000000E-03 0. -1.
         11   -1    0    0    0    0 -0.00000000000E+00 -0.00000000000E+00 -0.45593999997E+02  0.45594000000E+02  0.51100000000E-03 0.  1.
    9900012    2    1    2    0    0  0.17070736192E+02  0.20506841363E+02 -0.34229850067E+02  0.47787271752E+02  0.20000003228E+02 0.  0.
         12    1    1    2    0    0 -0.17070736192E+02 -0.20506841363E+02  0.34229850067E+02  0.43400728248E+02  0.00000000000E+00 0. -1.
         11    1    3    3    0    0  0.22205199837E+01 -0.62549870082E+00  0.65594501812E-01  0.23078692602E+01  0.51100000000E-03 0. -1.
        -11    1    3    3    0    0  0.17467275983E+02  0.18816182341E+02 -0.32861880372E+02  0.41702009904E+02  0.51100000000E-03 0.  1.
        -12    1    3    3    0    0 -0.26170597745E+01  0.23161577234E+01 -0.14335641962E+01  0.37773925884E+01  0.00000000000E+00 0.  1.
</event>
<event>
 7    1  0.1418970E-010  0.4778727E+02  0.7816164E-02  0.1312668E+00
        -11   -1    0    0    0    0  0.00000000000E+00  0.00000000000E+00  0.45593999997E+02  0.45594000000E+02  0.51100000000E-03 0.  1.
         11   -1    0    0    0    0 -0.00000000000E+00 -0.00000000000E+00 -0.45593999997E+02  0.45594000000E+02  0.51100000000E-03 0. -1.
    9900012    2    1    2    0    0  0.63614580597E+01 -0.42007836896E+02 -0.88598468063E+01  0.47787269652E+02  0.19999993652E+02 0.  0.
         12    1    1    2    0    0 -0.63614580597E+01  0.42007836896E+02  0.88598468063E+01  0.43400730348E+02  0.00000000000E+00 0. -1.
         11    1    3    3    0    0  0.40905479201E+01 -0.42242421409E+01 -0.46728260618E+01  0.75107993993E+01  0.51100000000E-03 0. -1.
        -11    1    3    3    0    0  0.25289568404E+01 -0.12743026335E+02  0.45331559765E+01  0.13759718247E+02  0.51100000000E-03 0.  1.
         12    1    3    3    0    0 -0.25804670077E+00 -0.25040568420E+02 -0.87201767211E+01  0.26516752005E+02  0.00000000000E+00 0. -1.
</event>
<event>
 7    1  0.1418970E-010  0.4778727E+02  0.7816164E-02  0.1312668E+00
        -11   -1    0    0    0    0  0.00000000000E+00  0.00000000000E+00  0.45593999997E+02  0.45594000000E+02  0.51100000000E-03 0.  1.
         11   -1    0    0    0    0 -0.00000000000E+00 -0.00000000000E+00 -0.45593999997E+02  0.45594000000E+02  0.51100000000E-03 0. -1.
    9900012    2    1    2    0    0  0.14142678898E+02  0.74492190985E+00  0.41025029317E+02  0.47787270680E+02  0.19999998337E+02 0.  0.
         12    1    1    2    0    0 -0.14142678898E+02 -0.74492190985E+00 -0.41025029317E+02  0.43400729320E+02  0.00000000000E+00 0. -1.
         11    1    3    3    0    0  0.60173969026E+01 -0.61106890995E+01  0.12350666516E+02  0.15036241233E+02  0.51100000000E-03 0. -1.
        -11    1    3    3    0    0  0.13302518857E+01  0.36038265557E+01  0.23003552174E+02  0.23322104297E+02  0.51100000000E-03 0.  1.
         12    1    3    3    0    0  0.67950301098E+01  0.32517844537E+01  0.56708106265E+01  0.94289251502E+01  0.00000000000E+00 0. -1.
</event>
<event>
 7    1  0.1418970E-010  0.4778727E+02  0.7816164E-02  0.1312668E+00
        -11   -1    0    0    0    0  0.00000000000E+00  0.00000000000E+00  0.45593999997E+02  0.45594000000E+02  0.51100000000E-03 0.  1.
         11   -1    0    0    0    0 -0.00000000000E+00 -0.00000000000E+00 -0.45593999997E+02  0.45594000000E+02  0.51100000000E-03 0. -1.
    9900012    2    1    2    0    0  0.74543428375E+00 -0.26120228037E+02  0.34652579062E+02  0.47787271658E+02  0.20000002797E+02 0.  0.
         12    1    1    2    0    0 -0.74543428375E+00  0.26120228037E+02 -0.34652579062E+02  0.43400728342E+02  0.00000000000E+00 0. -1.
         11    1    3    3    0    0 -0.17977771533E+01 -0.43481357649E+01  0.16964203814E+02  0.17604615833E+02  0.51100000000E-03 0. -1.
        -11    1    3    3    0    0 -0.23542272149E+00 -0.16930249600E+02  0.17843031427E+02  0.24598019151E+02  0.51100000000E-03 0.  1.
         12    1    3    3    0    0  0.27786341586E+01 -0.48418426720E+01 -0.15465617899E+00  0.55846366741E+01  0.00000000000E+00 0. -1.
</event>
<event>
 7    1  0.1436788E-010  0.4778727E+02  0.7816164E-02  0.1312668E+00
        -11   -1    0    0    0    0  0.00000000000E+00  0.00000000000E+00  0.45593999997E+02  0.45594000000E+02  0.51100000000E-03 0. -1.
         11   -1    0    0    0    0 -0.00000000000E+00 -0.00000000000E+00 -0.45593999997E+02  0.45594000000E+02  0.51100000000E-03 0.  1.
    9900012    2    1    2    0    0 -0.41777458645E+02 -0.45435456564E+01 -0.10845432356E+02  0.47787271193E+02  0.20000000677E+02 0.  0.
         12    1    1    2    0    0  0.41777458645E+02  0.45435456564E+01  0.10845432356E+02  0.43400728807E+02  0.00000000000E+00 0. -1.
         11    1    3    3    0    0 -0.59382391841E+01 -0.69472283860E+00 -0.67245727770E+01  0.89980666659E+01  0.51100000000E-03 0. -1.
        -11    1    3    3    0    0 -0.34113436527E+02 -0.23184546121E+01 -0.71999609170E+01  0.34941969334E+02  0.51100000000E-03 0.  1.
         12    1    3    3    0    0 -0.17257829347E+01 -0.15303682057E+01  0.30791013382E+01  0.38472351935E+01  0.00000000000E+00 0. -1.
</event>
<event>
 7    1  0.1418970E-010  0.4778727E+02  0.7816164E-02  0.1312668E+00
        -11   -1    0    0    0    0  0.00000000000E+00  0.00000000000E+00  0.45593999997E+02  0.45594000000E+02  0.51100000000E-03 0. -1.
         11   -1    0    0    0    0 -0.00000000000E+00 -0.00000000000E+00 -0.45593999997E+02  0.45594000000E+02  0.51100000000E-03 0.  1.
    9900012    2    1    2    0    0 -0.18296446392E+02  0.37859204071E+02 -0.10749142785E+02  0.47787270120E+02  0.19999995786E+02 0.  0.
         12    1    1    2    0    0  0.18296446392E+02 -0.37859204071E+02  0.10749142785E+02  0.43400729880E+02  0.00000000000E+00 0. -1.
         11    1    3    3    0    0 -0.14072072264E+01  0.15743582055E+02  0.24603762505E+01  0.15996689021E+02  0.51100000000E-03 0. -1.
        -11    1    3    3    0    0 -0.77014117364E+01  0.16312377173E+02 -0.78341976513E+01  0.19666724304E+02  0.51100000000E-03 0.  1.
         12    1    3    3    0    0 -0.91878274296E+01  0.58032448438E+01 -0.53753213839E+01  0.12123856794E+02  0.00000000000E+00 0. -1.
</event>
<event>
 7    1  0.1418970E-010  0.4778727E+02  0.7816164E-02  0.1312668E+00
        -11   -1    0    0    0    0  0.00000000000E+00  0.00000000000E+00  0.45593999997E+02  0.45594000000E+02  0.51100000000E-03 0.  1.
         11   -1    0    0    0    0 -0.00000000000E+00 -0.00000000000E+00 -0.45593999997E+02  0.45594000000E+02  0.51100000000E-03 0. -1.
    9900012    2    1    2    0    0 -0.12103880054E+02 -0.23238418378E+02  0.34599060082E+02  0.47787274665E+02  0.20000016508E+02 0.  0.
         12    1    1    2    0    0  0.12103880054E+02  0.23238418378E+02 -0.34599060082E+02  0.43400725335E+02  0.00000000000E+00 0. -1.
         11    1    3    3    0    0 -0.22738816026E+01  0.14523189733E+01  0.31260610166E+01  0.41294098469E+01  0.51100000000E-03 0. -1.
        -11    1    3    3    0    0  0.25264556954E+01 -0.12970615930E+02  0.13154755559E+02  0.18645842702E+02  0.51100000000E-03 0.  1.
        -12    1    3    3    0    0 -0.12356454147E+02 -0.11720121421E+02  0.18318243506E+02  0.25012022116E+02  0.00000000000E+00 0.  1.
</event>
<event>
 7    1  0.1418970E-010  0.4778727E+02  0.7816164E-02  0.1312668E+00
        -11   -1    0    0    0    0  0.00000000000E+00  0.00000000000E+00  0.45593999997E+02  0.45594000000E+02  0.51100000000E-03 0.  1.
         11   -1    0    0    0    0 -0.00000000000E+00 -0.00000000000E+00 -0.45593999997E+02  0.45594000000E+02  0.51100000000E-03 0. -1.
    9900012    2    1    2    0    0  0.14881534777E+02 -0.40732694980E+02 -0.17351470759E+01  0.47787271285E+02  0.20000001096E+02 0.  0.
         12    1    1    2    0    0 -0.14881534777E+02  0.40732694980E+02  0.17351470759E+01  0.43400728715E+02  0.00000000000E+00 0. -1.
         11    1    3    3    0    0  0.87956149566E+01 -0.19416732235E+02  0.53133172524E+01  0.21968242389E+02  0.51100000000E-03 0. -1.
        -11    1    3    3    0    0  0.66211788660E+01 -0.22495996777E+02 -0.61529767794E+01  0.24243947783E+02  0.51100000000E-03 0.  1.
         12    1    3    3    0    0 -0.53525904540E+00  0.11800340327E+01 -0.89548754898E+00  0.15750811136E+01  0.00000000000E+00 0. -1.
</event>
<event>
 7    1  0.1499398E-010  0.4778727E+02  0.7816164E-02  0.1312668E+00
        -11   -1    0    0    0    0  0.00000000000E+00  0.00000000000E+00  0.45593999997E+02  0.45594000000E+02  0.51100000000E-03 0. -1.
         11   -1    0    0    0    0 -0.00000000000E+00 -0.00000000000E+00 -0.45593999997E+02  0.45594000000E+02  0.51100000000E-03 0.  1.
    9900012    2    1    2    0    0  0.29577077965E+02 -0.29250161658E+02 -0.12379328859E+02  0.47787270963E+02  0.19999999629E+02 0.  0.
         12    1    1    2    0    0 -0.29577077965E+02  0.29250161658E+02  0.12379328859E+02  0.43400729037E+02  0.00000000000E+00 0. -1.
         11    1    3    3    0    0  0.56883992238E+01 -0.75387007615E+01 -0.93285974253E+01  0.13274510352E+02  0.51100000000E-03 0. -1.
        -11    1    3    3    0    0  0.19546709361E+02 -0.12197136129E+02 -0.56783455452E+01  0.23729466597E+02  0.51100000000E-03 0.  1.
         12    1    3    3    0    0  0.43419693806E+01 -0.95143247674E+01  0.26276141119E+01  0.10783294014E+02  0.00000000000E+00 0. -1.
</event>
<event>
 7    1  0.1418970E-010  0.4778727E+02  0.7816164E-02  0.1312668E+00
        -11   -1    0    0    0    0  0.00000000000E+00  0.00000000000E+00  0.45593999997E+02  0.45594000000E+02  0.51100000000E-03 0.  1.
         11   -1    0    0    0    0 -0.00000000000E+00 -0.00000000000E+00 -0.45593999997E+02  0.45594000000E+02  0.51100000000E-03 0. -1.
    9900012    2    1    2    0    0 -0.30308899008E+02  0.31000023390E+02  0.19980969362E+01  0.47787271888E+02  0.20000003846E+02 0.  0.
         12    1    1    2    0    0  0.30308899008E+02 -0.31000023390E+02 -0.19980969362E+01  0.43400728112E+02  0.00000000000E+00 0. -1.
         11    1    3    3    0    0 -0.57969116395E+01  0.52681294834E+00 -0.21677582027E+01  0.62113518919E+01  0.51100000000E-03 0. -1.
        -11    1    3    3    0    0 -0.25244928603E+02  0.25488429507E+02  0.15712338012E+01  0.35908706950E+02  0.51100000000E-03 0.  1.
         12    1    3    3    0    0  0.73294123447E+00  0.49847809345E+01  0.25946213377E+01  0.56672130456E+01  0.00000000000E+00 0. -1.
</event>
<event>
 7    1  0.1418970E-010  0.4778725E+02  0.7816164E-02  0.1312668E+00
        -11   -1    0    0    0    0  0.00000000000E+00  0.00000000000E+00  0.45593999997E+02  0.45594000000E+02  0.51100000000E-03 0. -1.
         11   -1    0    0    0    0 -0.00000000000E+00 -0.00000000000E+00 -0.45593999997E+02  0.45594000000E+02  0.51100000000E-03 0.  1.
    9900012    2    1    2    0    0 -0.42441614087E+01  0.42738673730E+02 -0.62464284893E+01  0.47787251076E+02  0.19999908958E+02 0.  0.
         12    1    1    2    0    0  0.42441614087E+01 -0.42738673730E+02  0.62464284893E+01  0.43400748924E+02  0.00000000000E+00 0. -1.
         11    1    3    3    0    0 -0.98296916976E+00  0.23123055889E+02  0.46251585341E+00  0.23148560716E+02  0.51100000000E-03 0.  1.
        -11    1    3    3    0    0  0.74322767727E-01  0.32063698417E+01 -0.72049240040E+01  0.78865240505E+01  0.51100000000E-03 0. -1.
         12    1    3    3    0    0 -0.33355150067E+01  0.16409247999E+02  0.49597966129E+00  0.16752166310E+02  0.00000000000E+00 0. -1.
</event>
<event>
 7    1  0.1418970E-010  0.4778721E+02  0.7816164E-02  0.1312668E+00
        -11   -1    0    0    0    0  0.00000000000E+00  0.00000000000E+00  0.45593999997E+02  0.45594000000E+02  0.51100000000E-03 0.  1.
         11   -1    0    0    0    0 -0.00000000000E+00 -0.00000000000E+00 -0.45593999997E+02  0.45594000000E+02  0.51100000000E-03 0. -1.
    9900012    2    1    2    0    0  0.39215044569E+02 -0.21111279465E+00  0.18594727655E+02  0.47787214457E+02  0.19999741994E+02 0.  0.
         12    1    1    2    0    0 -0.39215044569E+02  0.21111279465E+00 -0.18594727655E+02  0.43400785543E+02  0.00000000000E+00 0. -1.
         11    1    3    3    0    0  0.61178815808E+01  0.60350437599E+01  0.45013678360E+01  0.97011618313E+01  0.51100000000E-03 0. -1.
        -11    1    3    3    0    0  0.14233093391E+02 -0.36241042598E+01  0.11922669541E+02  0.18917323500E+02  0.51100000000E-03 0.  1.
         12    1    3    3    0    0  0.18864069597E+02 -0.26220522948E+01  0.21706902776E+01  0.19168729126E+02  0.00000000000E+00 0. -1.
</event>
<event>
 7    1  0.1418970E-010  0.4778727E+02  0.7816164E-02  0.1312668E+00
        -11   -1    0    0    0    0  0.00000000000E+00  0.00000000000E+00  0.45593999997E+02  0.45594000000E+02  0.51100000000E-03 0.  1.
         11   -1    0    0    0    0 -0.00000000000E+00 -0.00000000000E+00 -0.45593999997E+02  0.45594000000E+02  0.51100000000E-03 0. -1.
    9900012    2    1    2    0    0 -0.14404455557E+01 -0.12414598865E+02  0.41562314492E+02  0.47787272652E+02  0.20000007329E+02 0.  0.
         12    1    1    2    0    0  0.14404455557E+01  0.12414598865E+02 -0.41562314492E+02  0.43400727348E+02  0.00000000000E+00 0. -1.
         11    1    3    3    0    0  0.34165128473E+01  0.95111282512E+00  0.19818437680E+02  0.20133247328E+02  0.51100000000E-03 0. -1.
        -11    1    3    3    0    0  0.72302319905E-01 -0.10013540830E+02  0.18048703120E+02  0.20640540500E+02  0.51100000000E-03 0.  1.
         12    1    3    3    0    0 -0.49292607229E+01 -0.33521708606E+01  0.36951736934E+01  0.70134848240E+01  0.00000000000E+00 0. -1.
</event>
<event>
 7    1  0.1418970E-010  0.4778722E+02  0.7816164E-02  0.1312668E+00
        -11   -1    0    0    0    0  0.00000000000E+00  0.00000000000E+00  0.45593999997E+02  0.45594000000E+02  0.51100000000E-03 0. -1.
         11   -1    0    0    0    0 -0.00000000000E+00 -0.00000000000E+00 -0.45593999997E+02  0.45594000000E+02  0.51100000000E-03 0.  1.
    9900012    2    1    2    0    0 -0.36804003103E+01  0.41644474030E+02 -0.11654193148E+02  0.47787219113E+02  0.19999763222E+02 0.  0.
         12    1    1    2    0    0  0.36804003103E+01 -0.41644474030E+02  0.11654193148E+02  0.43400780887E+02  0.00000000000E+00 0. -1.
         11    1    3    3    0    0  0.21983921819E+01  0.40744495368E+00 -0.39749181033E+00  0.22708896001E+01  0.51100000000E-03 0. -1.
        -11    1    3    3    0    0 -0.50680874174E+01  0.33591216190E+02 -0.14794099706E+02  0.37052944574E+02  0.51100000000E-03 0.  1.
        -12    1    3    3    0    0 -0.81070507482E+00  0.76458128862E+01  0.35373983687E+01  0.84633849392E+01  0.00000000000E+00 0.  1.
</event>
<event>
 7    1  0.1418970E-010  0.4778728E+02  0.7816164E-02  0.1312668E+00
        -11   -1    0    0    0    0  0.00000000000E+00  0.00000000000E+00  0.45593999997E+02  0.45594000000E+02  0.51100000000E-03 0.  1.
         11   -1    0    0    0    0 -0.00000000000E+00 -0.00000000000E+00 -0.45593999997E+02  0.45594000000E+02  0.51100000000E-03 0. -1.
    9900012    2    1    2    0    0 -0.72928670785E+01 -0.41562279463E+02  0.10149568340E+02  0.47787277404E+02  0.20000028995E+02 0.  0.
         12    1    1    2    0    0  0.72928670785E+01  0.41562279463E+02 -0.10149568340E+02  0.43400722596E+02  0.00000000000E+00 0. -1.
         11    1    3    3    0    0 -0.32330505805E+01  0.29801796084E+00 -0.19228306715E+01  0.37734213671E+01  0.51100000000E-03 0. -1.
        -11    1    3    3    0    0 -0.31792524031E+01 -0.17905050773E+02  0.32664074614E+01  0.18476144267E+02  0.51100000000E-03 0.  1.
        -12    1    3    3    0    0 -0.88056409492E+00 -0.23955246651E+02  0.88059915503E+01  0.25537711769E+02  0.00000000000E+00 0.  1.
</event>
<event>
 7    1  0.1418970E-010  0.4778727E+02  0.7816164E-02  0.1312668E+00
        -11   -1    0    0    0    0  0.00000000000E+00  0.00000000000E+00  0.45593999997E+02  0.45594000000E+02  0.51100000000E-03 0.  1.
         11   -1    0    0    0    0 -0.00000000000E+00 -0.00000000000E+00 -0.45593999997E+02  0.45594000000E+02  0.51100000000E-03 0. -1.
    9900012    2    1    2    0    0 -0.31707358762E+02 -0.28174177050E+02  0.91914495253E+01  0.47787267328E+02  0.19999983056E+02 0.  0.
         12    1    1    2    0    0  0.31707358762E+02  0.28174177050E+02 -0.91914495253E+01  0.43400732672E+02  0.00000000000E+00 0. -1.
         11    1    3    3    0    0 -0.58579460861E+01 -0.24828796602E+01 -0.42003264239E+01  0.76238419503E+01  0.51100000000E-03 0. -1.
        -11    1    3    3    0    0 -0.32010408847E+01 -0.26573931918E+01 -0.17177639614E+01  0.45010126205E+01  0.51100000000E-03 0.  1.
        -12    1    3    3    0    0 -0.22648371791E+02 -0.23033904198E+02  0.15109539911E+02  0.35662412757E+02  0.00000000000E+00 0.  1.
</event>
<event>
 7    1  0.1418970E-010  0.4778727E+02  0.7816164E-02  0.1312668E+00
        -11   -1    0    0    0    0  0.00000000000E+00  0.00000000000E+00  0.45593999997E+02  0.45594000000E+02  0.51100000000E-03 0.  1.
         11   -1    0    0    0    0 -0.00000000000E+00 -0.00000000000E+00 -0.45593999997E+02  0.45594000000E+02  0.51100000000E-03 0. -1.
    9900012    2    1    2    0    0 -0.24943387980E+02 -0.30221798289E+01  0.35388093137E+02  0.47787270620E+02  0.19999998066E+02 0.  0.
         12    1    1    2    0    0  0.24943387980E+02  0.30221798289E+01 -0.35388093137E+02  0.43400729380E+02  0.00000000000E+00 0. -1.
         11    1    3    3    0    0  0.31091908067E+00  0.12481705777E+01  0.91411222035E+00  0.15780373501E+01  0.51100000000E-03 0. -1.
        -11    1    3    3    0    0  0.67388307399E+00 -0.84035338879E+00 -0.14293619504E+01  0.17898011235E+01  0.51100000000E-03 0.  1.
        -12    1    3    3    0    0 -0.25928190134E+02 -0.34299970179E+01  0.35903342867E+02  0.44419432147E+02  0.00000000000E+00 0.  1.
</event>
<event>
 7    1  0.1418970E-010  0.4778728E+02  0.7816164E-02  0.1312668E+00
        -11   -1    0    0    0    0  0.00000000000E+00  0.00000000000E+00  0.45593999997E+02  0.45594000000E+02  0.51100000000E-03 0. -1.
         11   -1    0    0    0    0 -0.00000000000E+00 -0.00000000000E+00 -0.45593999997E+02  0.45594000000E+02  0.51100000000E-03 0.  1.
    9900012    2    1    2    0    0 -0.45043534120E+01 -0.30529823735E+02 -0.30516608131E+02  0.47787277554E+02  0.20000029681E+02 0.  0.
         12    1    1    2    0    0  0.45043534120E+01  0.30529823735E+02  0.30516608131E+02  0.43400722446E+02  0.00000000000E+00 0. -1.
         11    1    3    3    0    0 -0.35142251930E+01 -0.73802293215E+00 -0.30012327289E+01  0.46799417421E+01  0.51100000000E-03 0.  1.
        -11    1    3    3    0    0  0.19078157895E+01 -0.25636907494E+02 -0.15380285767E+02  0.29957369335E+02  0.51100000000E-03 0. -1.
         12    1    3    3    0    0 -0.28979440085E+01 -0.41548933089E+01 -0.12135089635E+02  0.13149966477E+02  0.00000000000E+00 0. -1.
</event>
<event>
 7    1  0.1418970E-010  0.4778727E+02  0.7816164E-02  0.1312668E+00
        -11   -1    0    0    0    0  0.00000000000E+00  0.00000000000E+00  0.45593999997E+02  0.45594000000E+02  0.51100000000E-03 0. -1.
         11   -1    0    0    0    0 -0.00000000000E+00 -0.00000000000E+00 -0.45593999997E+02  0.45594000000E+02  0.51100000000E-03 0.  1.
    9900012    2    1    2    0    0 -0.29907344531E+02  0.28505798422E+02 -0.13288864719E+02  0.47787265835E+02  0.19999976247E+02 0.  0.
         12    1    1    2    0    0  0.29907344531E+02 -0.28505798422E+02  0.13288864719E+02  0.43400734165E+02  0.00000000000E+00 0. -1.
         11    1    3    3    0    0 -0.32665100747E+01  0.10404129002E+02 -0.90147108646E+01  0.14148533514E+02  0.51100000000E-03 0. -1.
        -11    1    3    3    0    0 -0.96805043751E+01  0.11527581991E+02 -0.50004511061E+00  0.15061452682E+02  0.51100000000E-03 0.  1.
         12    1    3    3    0    0 -0.16960330081E+02  0.65740874288E+01 -0.37741087437E+01  0.18577279639E+02  0.00000000000E+00 0. -1.
</event>
<event>
 7    1  0.1418970E-010  0.4778727E+02  0.7816164E-02  0.1312668E+00
        -11   -1    0    0    0    0  0.00000000000E+00  0.00000000000E+00  0.45593999997E+02  0.45594000000E+02  0.51100000000E-03 0.  1.
         11   -1    0    0    0    0 -0.00000000000E+00 -0.00000000000E+00 -0.45593999997E+02  0.45594000000E+02  0.51100000000E-03 0. -1.
    9900012    2    1    2    0    0  0.36555723047E+02 -0.22695300759E+02 -0.56767658820E+01  0.47787271493E+02  0.20000002046E+02 0.  0.
         12    1    1    2    0    0 -0.36555723047E+02  0.22695300759E+02  0.56767658820E+01  0.43400728507E+02  0.00000000000E+00 0. -1.
         11    1    3    3    0    0  0.14014848121E+01  0.17363098269E+01  0.17372252583E+01  0.28278761205E+01  0.51100000000E-03 0. -1.
        -11    1    3    3    0    0  0.28795407874E+02 -0.15240464602E+02 -0.22780542376E+01  0.32659406107E+02  0.51100000000E-03 0.  1.
        -12    1    3    3    0    0  0.63588303612E+01 -0.91911459839E+01 -0.51359369026E+01  0.12299989265E+02  0.00000000000E+00 0.  1.
</event>
<event>
 7    1  0.1418970E-010  0.4778729E+02  0.7816164E-02  0.1312668E+00
        -11   -1    0    0    0    0  0.00000000000E+00  0.00000000000E+00  0.45593999997E+02  0.45594000000E+02  0.51100000000E-03 0.  1.
         11   -1    0    0    0    0 -0.00000000000E+00 -0.00000000000E+00 -0.45593999997E+02  0.45594000000E+02  0.51100000000E-03 0. -1.
    9900012    2    1    2    0    0  0.23376134745E+01  0.26524512883E+02  0.34272548380E+02  0.47787288106E+02  0.20000077790E+02 0.  0.
         12    1    1    2    0    0 -0.23376134745E+01 -0.26524512883E+02 -0.34272548380E+02  0.43400711894E+02  0.00000000000E+00 0. -1.
         11    1    3    3    0    0  0.19647386359E+01  0.16451999980E+02  0.11060960099E+02  0.19921680145E+02  0.51100000000E-03 0. -1.
        -11    1    3    3    0    0 -0.18258311110E+01 -0.73135705104E+00 -0.21071553558E+00  0.19781161948E+01  0.51100000000E-03 0.  1.
        -12    1    3    3    0    0  0.21987059496E+01  0.10803869954E+02  0.23422303817E+02  0.25887491766E+02  0.00000000000E+00 0.  1.
</event>
<event>
 7    1  0.1418970E-010  0.4778727E+02  0.7816164E-02  0.1312668E+00
        -11   -1    0    0    0    0  0.00000000000E+00  0.00000000000E+00  0.45593999997E+02  0.45594000000E+02  0.51100000000E-03 0. -1.
         11   -1    0    0    0    0 -0.00000000000E+00 -0.00000000000E+00 -0.45593999997E+02  0.45594000000E+02  0.51100000000E-03 0.  1.
    9900012    2    1    2    0    0 -0.24263687654E+02 -0.10565665764E+02 -0.34398594860E+02  0.47787272357E+02  0.20000005983E+02 0.  0.
         12    1    1    2    0    0  0.24263687654E+02  0.10565665764E+02  0.34398594860E+02  0.43400727643E+02  0.00000000000E+00 0. -1.
         11    1    3    3    0    0 -0.99680690949E+01 -0.37238679036E+00 -0.89420629019E+01  0.13396326459E+02  0.51100000000E-03 0. -1.
        -11    1    3    3    0    0  0.22577057169E+01  0.40766575524E+00 -0.72262582307E+01  0.75817039476E+01  0.51100000000E-03 0.  1.
        -12    1    3    3    0    0 -0.16553324276E+02 -0.10600944729E+02 -0.18230273728E+02  0.26809241950E+02  0.00000000000E+00 0.  1.
</event>
<event>
 7    1  0.1418970E-010  0.4778726E+02  0.7816164E-02  0.1312668E+00
        -11   -1    0    0    0    0  0.00000000000E+00  0.00000000000E+00  0.45593999997E+02  0.45594000000E+02  0.51100000000E-03 0.  1.
         11   -1    0    0    0    0 -0.00000000000E+00 -0.00000000000E+00 -0.45593999997E+02  0.45594000000E+02  0.51100000000E-03 0. -1.
    9900012    2    1    2    0    0  0.42794194794E+02 -0.58214103729E+01  0.42885774201E+01  0.47787264717E+02  0.19999971150E+02 0.  0.
         12    1    1    2    0    0 -0.42794194794E+02  0.58214103729E+01 -0.42885774201E+01  0.43400735283E+02  0.00000000000E+00 0. -1.
         11    1    3    3    0    0  0.10209641864E+02 -0.49463645140E+01  0.19790921383E+01  0.11516080707E+02  0.51100000000E-03 0. -1.
        -11    1    3    3    0    0  0.87919921599E+01  0.60230463703E+01  0.41358371274E+01  0.11431594934E+02  0.51100000000E-03 0.  1.
        -12    1    3    3    0    0  0.23792560770E+02 -0.68980922292E+01 -0.18263518455E+01  0.24839589076E+02  0.00000000000E+00 0.  1.
</event>
<event>
 7    1  0.1418970E-010  0.4778727E+02  0.7816164E-02  0.1312668E+00
        -11   -1    0    0    0    0  0.00000000000E+00  0.00000000000E+00  0.45593999997E+02  0.45594000000E+02  0.51100000000E-03 0. -1.
         11   -1    0    0    0    0 -0.00000000000E+00 -0.00000000000E+00 -0.45593999997E+02  0.45594000000E+02  0.51100000000E-03 0.  1.
    9900012    2    1    2    0    0  0.43187444228E+02  0.37120285802E+01 -0.21653555491E+01  0.47787271207E+02  0.20000000742E+02 0.  0.
         12    1    1    2    0    0 -0.43187444228E+02 -0.37120285802E+01  0.21653555491E+01  0.43400728793E+02  0.00000000000E+00 0. -1.
         11    1    3    3    0    0  0.69390407914E+01 -0.44227598171E+01 -0.60451837822E+00  0.82508505158E+01  0.51100000000E-03 0. -1.
        -11    1    3    3    0    0  0.21442408110E+02  0.36289616559E+01  0.56400387474E+01  0.22466781380E+02  0.51100000000E-03 0.  1.
        -12    1    3    3    0    0  0.14805995326E+02  0.45058267414E+01 -0.72008759182E+01  0.17069639311E+02  0.00000000000E+00 0.  1.
</event>
<event>
 7    1  0.1418970E-010  0.4778727E+02  0.7816164E-02  0.1312668E+00
        -11   -1    0    0    0    0  0.00000000000E+00  0.00000000000E+00  0.45593999997E+02  0.45594000000E+02  0.51100000000E-03 0. -1.
         11   -1    0    0    0    0 -0.00000000000E+00 -0.00000000000E+00 -0.45593999997E+02  0.45594000000E+02  0.51100000000E-03 0.  1.
    9900012    2    1    2    0    0  0.19358131120E+02  0.28044182113E+02 -0.26877692243E+02  0.47787265776E+02  0.19999975980E+02 0.  0.
         12    1    1    2    0    0 -0.19358131120E+02 -0.28044182113E+02  0.26877692243E+02  0.43400734224E+02  0.00000000000E+00 0. -1.
         11    1    3    3    0    0  0.58427854577E+01  0.10256851803E+02 -0.15102938474E+01  0.11900510014E+02  0.51100000000E-03 0. -1.
        -11    1    3    3    0    0  0.10083797566E+02  0.35739949152E+01 -0.94702820322E+01  0.14287849910E+02  0.51100000000E-03 0.  1.
         12    1    3    3    0    0  0.34315480962E+01  0.14213335395E+02 -0.15897116363E+02  0.21598905853E+02  0.00000000000E+00 0. -1.
</event>
<event>
 7    1  0.1418970E-010  0.4778728E+02  0.7816164E-02  0.1312668E+00
        -11   -1    0    0    0    0  0.00000000000E+00  0.00000000000E+00  0.45593999997E+02  0.45594000000E+02  0.51100000000E-03 0.  1.
         11   -1    0    0    0    0 -0.00000000000E+00 -0.00000000000E+00 -0.45593999997E+02  0.45594000000E+02  0.51100000000E-03 0. -1.
    9900012    2    1    2    0    0  0.18440637087E+02  0.39263644732E+02 -0.13899440205E+01  0.47787276063E+02  0.20000022883E+02 0.  0.
         12    1    1    2    0    0 -0.18440637087E+02 -0.39263644732E+02  0.13899440205E+01  0.43400723937E+02  0.00000000000E+00 0. -1.
         11    1    3    3    0    0 -0.68986035075E+00  0.87560357877E+01 -0.93323000833E+00  0.88326093839E+01  0.51100000000E-03 0.  1.
        -11    1    3    3    0    0  0.14284047899E+02  0.16286021037E+02 -0.67137930609E+01  0.22679142910E+02  0.51100000000E-03 0. -1.
        -12    1    3    3    0    0  0.48464495384E+01  0.14221587907E+02  0.62570790487E+01  0.16275523769E+02  0.00000000000E+00 0.  1.
</event>
<event>
 7    1  0.1418970E-010  0.4778728E+02  0.7816164E-02  0.1312668E+00
        -11   -1    0    0    0    0  0.00000000000E+00  0.00000000000E+00  0.45593999997E+02  0.45594000000E+02  0.51100000000E-03 0.  1.
         11   -1    0    0    0    0 -0.00000000000E+00 -0.00000000000E+00 -0.45593999997E+02  0.45594000000E+02  0.51100000000E-03 0. -1.
    9900012    2    1    2    0    0 -0.20247558684E+02  0.33225606349E+02  0.19228055298E+02  0.47787278112E+02  0.20000032222E+02 0.  0.
         12    1    1    2    0    0  0.20247558684E+02 -0.33225606349E+02 -0.19228055298E+02  0.43400721888E+02  0.00000000000E+00 0. -1.
         11    1    3    3    0    0 -0.15314909946E+02  0.11626996295E+02  0.27218143908E+01  0.19420138602E+02  0.51100000000E-03 0. -1.
        -11    1    3    3    0    0 -0.38079577716E+01  0.13242948062E+02  0.63637870796E+01  0.15178076361E+02  0.51100000000E-03 0.  1.
         12    1    3    3    0    0 -0.11246909663E+01  0.83556619914E+01  0.10142453827E+02  0.13189063148E+02  0.00000000000E+00 0. -1.
</event>
<event>
 7    1  0.1865687E-010  0.4778727E+02  0.7816164E-02  0.1312668E+00
        -11   -1    0    0    0    0  0.00000000000E+00  0.00000000000E+00  0.45593999997E+02  0.45594000000E+02  0.51100000000E-03 0.  1.
         11   -1    0    0    0    0 -0.00000000000E+00 -0.00000000000E+00 -0.45593999997E+02  0.45594000000E+02  0.51100000000E-03 0. -1.
    9900012    2    1    2    0    0  0.11091050462E+02  0.64715559033E+01  0.41457579450E+02  0.47787270397E+02  0.19999997049E+02 0.  0.
         12    1    1    2    0    0 -0.11091050462E+02 -0.64715559033E+01 -0.41457579450E+02  0.43400729603E+02  0.00000000000E+00 0. -1.
         11    1    3    3    0    0  0.60081681671E+01  0.36585267269E+01  0.26041734496E+01  0.75009747468E+01  0.51100000000E-03 0. -1.
        -11    1    3    3    0    0  0.25552440693E+01  0.58216902055E+01  0.18638785403E+02  0.19693289990E+02  0.51100000000E-03 0.  1.
         12    1    3    3    0    0  0.25276382257E+01 -0.30086610290E+01  0.20214620598E+02  0.20593005660E+02  0.00000000000E+00 0. -1.
</event>
<event>
 7    1  0.1418970E-010  0.4778727E+02  0.7816164E-02  0.1312668E+00
        -11   -1    0    0    0    0  0.00000000000E+00  0.00000000000E+00  0.45593999997E+02  0.45594000000E+02  0.51100000000E-03 0.  1.
         11   -1    0    0    0    0 -0.00000000000E+00 -0.00000000000E+00 -0.45593999997E+02  0.45594000000E+02  0.51100000000E-03 0. -1.
    9900012    2    1    2    0    0 -0.19278240331E+02  0.48161242257E+01  0.38584683207E+02  0.47787269810E+02  0.19999994372E+02 0.  0.
         12    1    1    2    0    0  0.19278240331E+02 -0.48161242257E+01 -0.38584683207E+02  0.43400730190E+02  0.00000000000E+00 0. -1.
         11    1    3    3    0    0 -0.14641535850E+02  0.31537564142E+01  0.15237955364E+02  0.21366235876E+02  0.51100000000E-03 0. -1.
        -11    1    3    3    0    0 -0.46304662167E+01  0.61687559907E+01  0.12684235151E+02  0.14845355822E+02  0.51100000000E-03 0.  1.
        -12    1    3    3    0    0 -0.62382639658E-02 -0.45063881792E+01  0.10662492692E+02  0.11575678112E+02  0.00000000000E+00 0.  1.
</event>
<event>
 7    1  0.1418970E-010  0.4778727E+02  0.7816164E-02  0.1312668E+00
        -11   -1    0    0    0    0  0.00000000000E+00  0.00000000000E+00  0.45593999997E+02  0.45594000000E+02  0.51100000000E-03 0. -1.
         11   -1    0    0    0    0 -0.00000000000E+00 -0.00000000000E+00 -0.45593999997E+02  0.45594000000E+02  0.51100000000E-03 0.  1.
    9900012    2    1    2    0    0 -0.29313132434E+02 -0.30375679005E+02 -0.10083753568E+02  0.47787266203E+02  0.19999977924E+02 0.  0.
         12    1    1    2    0    0  0.29313132434E+02  0.30375679005E+02  0.10083753568E+02  0.43400733797E+02  0.00000000000E+00 0. -1.
         11    1    3    3    0    0 -0.51625945975E+01 -0.55545103531E+01 -0.75460648722E+00  0.76206561038E+01  0.51100000000E-03 0. -1.
        -11    1    3    3    0    0 -0.21115877223E+02 -0.18901570247E+02  0.44519151178E+00  0.28343391195E+02  0.51100000000E-03 0.  1.
         12    1    3    3    0    0 -0.30346606135E+01 -0.59195984056E+01 -0.97743385926E+01  0.11823218904E+02  0.00000000000E+00 0. -1.
</event>
<event>
 7    1  0.1418970E-010  0.4778727E+02  0.7816164E-02  0.1312668E+00
        -11   -1    0    0    0    0  0.00000000000E+00  0.00000000000E+00  0.45593999997E+02  0.45594000000E+02  0.51100000000E-03 0.  1.
         11   -1    0    0    0    0 -0.00000000000E+00 -0.00000000000E+00 -0.45593999997E+02  0.45594000000E+02  0.51100000000E-03 0. -1.
    9900012    2    1    2    0    0  0.72784572733E+00  0.34422549724E+02  0.26423121311E+02  0.47787273869E+02  0.20000012877E+02 0.  0.
         12    1    1    2    0    0 -0.72784572733E+00 -0.34422549724E+02 -0.26423121311E+02  0.43400726131E+02  0.00000000000E+00 0. -1.
         11    1    3    3    0    0  0.73979384664E+01  0.14295900892E+02  0.88754601205E+01  0.18381405509E+02  0.51100000000E-03 0. -1.
        -11    1    3    3    0    0  0.14571745641E+01  0.10007553806E+02  0.10732542309E+02  0.14746591320E+02  0.51100000000E-03 0.  1.
        -12    1    3    3    0    0 -0.81272673033E+01  0.10119095025E+02  0.68151188823E+01  0.14659277040E+02  0.00000000000E+00 0.  1.
</event>
<event>
 7    1  0.1418970E-010  0.4778727E+02  0.7816164E-02  0.1312668E+00
        -11   -1    0    0    0    0  0.00000000000E+00  0.00000000000E+00  0.45593999997E+02  0.45594000000E+02  0.51100000000E-03 0.  1.
         11   -1    0    0    0    0 -0.00000000000E+00 -0.00000000000E+00 -0.45593999997E+02  0.45594000000E+02  0.51100000000E-03 0. -1.
    9900012    2    1    2    0    0 -0.25583063979E+02  0.14052680609E+01  0.35030777051E+02  0.47787270954E+02  0.19999999589E+02 0.  0.
         12    1    1    2    0    0  0.25583063979E+02 -0.14052680609E+01 -0.35030777051E+02  0.43400729046E+02  0.00000000000E+00 0. -1.
         11    1    3    3    0    0 -0.73350078984E+01 -0.14907286876E+01 -0.27056389496E+00  0.74898476601E+01  0.51100000000E-03 0. -1.
        -11    1    3    3    0    0 -0.21706540618E+01  0.10245518808E+00  0.11753086581E+01  0.24705438317E+01  0.51100000000E-03 0.  1.
        -12    1    3    3    0    0 -0.16077402019E+02  0.27935415605E+01  0.34126032288E+02  0.37826879462E+02  0.00000000000E+00 0.  1.
</event>
<event>
 7    1  0.1418970E-010  0.4778731E+02  0.7816164E-02  0.1312668E+00
        -11   -1    0    0    0    0  0.00000000000E+00  0.00000000000E+00  0.45593999997E+02  0.45594000000E+02  0.51100000000E-03 0.  1.
         11   -1    0    0    0    0 -0.00000000000E+00 -0.00000000000E+00 -0.45593999997E+02  0.45594000000E+02  0.51100000000E-03 0. -1.
    9900012    2    1    2    0    0 -0.94858092214E+01  0.21218398831E+02  0.36652684332E+02  0.47787305371E+02  0.20000156507E+02 0.  0.
         12    1    1    2    0    0  0.94858092214E+01 -0.21218398831E+02 -0.36652684332E+02  0.43400694629E+02  0.00000000000E+00 0. -1.
         11    1    3    3    0    0  0.55193922110E+01  0.63854206005E+01  0.61167988151E+01  0.10423651694E+02  0.51100000000E-03 0. -1.
        -11    1    3    3    0    0 -0.42719671384E+01  0.45950142211E+01  0.12704997929E+02  0.14169715296E+02  0.51100000000E-03 0.  1.
         12    1    3    3    0    0 -0.10733234294E+02  0.10237964010E+02  0.17830887588E+02  0.23193938382E+02  0.00000000000E+00 0. -1.
</event>
<event>
 7    1  0.1418970E-010  0.4778727E+02  0.7816164E-02  0.1312668E+00
        -11   -1    0    0    0    0  0.00000000000E+00  0.00000000000E+00  0.45593999997E+02  0.45594000000E+02  0.51100000000E-03 0. -1.
         11   -1    0    0    0    0 -0.00000000000E+00 -0.00000000000E+00 -0.45593999997E+02  0.45594000000E+02  0.51100000000E-03 0.  1.
    9900012    2    1    2    0    0  0.20099004473E+02 -0.37769026513E+02  0.72906832148E+01  0.47787269519E+02  0.19999993047E+02 0.  0.
         12    1    1    2    0    0 -0.20099004473E+02  0.37769026513E+02 -0.72906832148E+01  0.43400730481E+02  0.00000000000E+00 0. -1.
         11    1    3    3    0    0  0.22940321360E+02 -0.30714403401E+02  0.83764490226E+01  0.39240257630E+02  0.51100000000E-03 0.  1.
        -11    1    3    3    0    0 -0.77353395537E+00 -0.51466941320E+01 -0.20195198383E+01  0.55825868473E+01  0.51100000000E-03 0. -1.
        -12    1    3    3    0    0 -0.20677829313E+01 -0.19079289797E+01  0.93375403059E+00  0.29644250424E+01  0.00000000000E+00 0.  1.
</event>
<event>
 7    1  0.1418970E-010  0.4778727E+02  0.7816164E-02  0.1312668E+00
        -11   -1    0    0    0    0  0.00000000000E+00  0.00000000000E+00  0.45593999997E+02  0.45594000000E+02  0.51100000000E-03 0. -1.
         11   -1    0    0    0    0 -0.00000000000E+00 -0.00000000000E+00 -0.45593999997E+02  0.45594000000E+02  0.51100000000E-03 0.  1.
    9900012    2    1    2    0    0  0.29898703294E+02  0.13696755927E+02 -0.28321189106E+02  0.47787270352E+02  0.19999996844E+02 0.  0.
         12    1    1    2    0    0 -0.29898703294E+02 -0.13696755927E+02  0.28321189106E+02  0.43400729648E+02  0.00000000000E+00 0. -1.
         11    1    3    3    0    0 -0.21652814955E+01  0.39468855180E+01 -0.36798838371E+01  0.58144556549E+01  0.51100000000E-03 0. -1.
        -11    1    3    3    0    0  0.16060691872E+02  0.76132329495E+01 -0.14147017159E+02  0.22716629022E+02  0.51100000000E-03 0.  1.
         12    1    3    3    0    0  0.16003292918E+02  0.21366374593E+01 -0.10494288109E+02  0.19256185676E+02  0.00000000000E+00 0. -1.
</event>
<event>
 7    1  0.1418970E-010  0.4778727E+02  0.7816164E-02  0.1312668E+00
        -11   -1    0    0    0    0  0.00000000000E+00  0.00000000000E+00  0.45593999997E+02  0.45594000000E+02  0.51100000000E-03 0. -1.
         11   -1    0    0    0    0 -0.00000000000E+00 -0.00000000000E+00 -0.45593999997E+02  0.45594000000E+02  0.51100000000E-03 0.  1.
    9900012    2    1    2    0    0 -0.24852008283E+02  0.18071273066E+02 -0.30650125470E+02  0.47787269393E+02  0.19999992469E+02 0.  0.
         12    1    1    2    0    0  0.24852008283E+02 -0.18071273066E+02  0.30650125470E+02  0.43400730607E+02  0.00000000000E+00 0. -1.
         11    1    3    3    0    0 -0.94877745305E+01  0.91594802593E+01 -0.36160303972E+01  0.13674414805E+02  0.51100000000E-03 0. -1.
        -11    1    3    3    0    0 -0.11276482226E+02  0.11806840565E+01 -0.10724995915E+02  0.15607004962E+02  0.51100000000E-03 0.  1.
         12    1    3    3    0    0 -0.40877515262E+01  0.77311087506E+01 -0.16309099157E+02  0.18505849626E+02  0.00000000000E+00 0. -1.
</event>
<event>
 7    1  0.1418970E-010  0.4778728E+02  0.7816164E-02  0.1312668E+00
        -11   -1    0    0    0    0  0.00000000000E+00  0.00000000000E+00  0.45593999997E+02  0.45594000000E+02  0.51100000000E-03 0.  1.
         11   -1    0    0    0    0 -0.00000000000E+00 -0.00000000000E+00 -0.45593999997E+02  0.45594000000E+02  0.51100000000E-03 0. -1.
    9900012    2    1    2    0    0  0.22158881892E+02  0.33389499824E+02  0.16665776563E+02  0.47787275886E+02  0.20000022073E+02 0.  0.
         12    1    1    2    0    0 -0.22158881892E+02 -0.33389499824E+02 -0.16665776563E+02  0.43400724114E+02  0.00000000000E+00 0. -1.
         11    1    3    3    0    0  0.13330726405E+02  0.94769867533E+01  0.12921223501E+02  0.20844173321E+02  0.51100000000E-03 0. -1.
        -11    1    3    3    0    0  0.88338107597E+01  0.12916812103E+02  0.28992313162E+01  0.15914954914E+02  0.51100000000E-03 0.  1.
         12    1    3    3    0    0 -0.56552722189E-02  0.10995700967E+02  0.84532174577E+00  0.11028147651E+02  0.00000000000E+00 0. -1.
</event>
<event>
 7    1  0.1418970E-010  0.4778727E+02  0.7816164E-02  0.1312668E+00
        -11   -1    0    0    0    0  0.00000000000E+00  0.00000000000E+00  0.45593999997E+02  0.45594000000E+02  0.51100000000E-03 0.  1.
         11   -1    0    0    0    0 -0.00000000000E+00 -0.00000000000E+00 -0.45593999997E+02  0.45594000000E+02  0.51100000000E-03 0. -1.
    9900012    2    1    2    0    0 -0.28916018608E+02  0.18009158302E+02  0.26891583615E+02  0.47787272078E+02  0.20000004711E+02 0.  0.
         12    1    1    2    0    0  0.28916018608E+02 -0.18009158302E+02 -0.26891583615E+02  0.43400727922E+02  0.00000000000E+00 0. -1.
         11    1    3    3    0    0 -0.20956925439E-01  0.46928943243E+01  0.34756006448E+00  0.47057937259E+01  0.51100000000E-03 0. -1.
        -11    1    3    3    0    0 -0.11729144551E+02 -0.72597701661E+00  0.89063369879E+01  0.14745260708E+02  0.51100000000E-03 0.  1.
         12    1    3    3    0    0 -0.17165917131E+02  0.14042240995E+02  0.17637686562E+02  0.28336217644E+02  0.00000000000E+00 0. -1.
</event>
<event>
 7    1  0.1418970E-010  0.4778727E+02  0.7816164E-02  0.1312668E+00
        -11   -1    0    0    0    0  0.00000000000E+00  0.00000000000E+00  0.45593999997E+02  0.45594000000E+02  0.51100000000E-03 0.  1.
         11   -1    0    0    0    0 -0.00000000000E+00 -0.00000000000E+00 -0.45593999997E+02  0.45594000000E+02  0.51100000000E-03 0. -1.
    9900012    2    1    2    0    0 -0.34670641837E+01  0.34026811126E+02  0.26716648632E+02  0.47787265863E+02  0.19999976378E+02 0.  0.
         12    1    1    2    0    0  0.34670641837E+01 -0.34026811126E+02 -0.26716648632E+02  0.43400734137E+02  0.00000000000E+00 0. -1.
         11    1    3    3    0    0 -0.12872663688E+00 -0.88762026436E+00 -0.12376572073E+01  0.15284750259E+01  0.51100000000E-03 0. -1.
        -11    1    3    3    0    0  0.36051186564E+01  0.20375976425E+02  0.14481088127E+02  0.25256270695E+02  0.51100000000E-03 0.  1.
        -12    1    3    3    0    0 -0.69434562032E+01  0.14538454966E+02  0.13473217712E+02  0.21002520143E+02  0.00000000000E+00 0.  1.
</event>
<event>
 7    1  0.1418970E-010  0.4778727E+02  0.7816164E-02  0.1312668E+00
        -11   -1    0    0    0    0  0.00000000000E+00  0.00000000000E+00  0.45593999997E+02  0.45594000000E+02  0.51100000000E-03 0.  1.
         11   -1    0    0    0    0 -0.00000000000E+00 -0.00000000000E+00 -0.45593999997E+02  0.45594000000E+02  0.51100000000E-03 0. -1.
    9900012    2    1    2    0    0  0.26959826368E+02  0.17466729987E+02  0.29183980645E+02  0.47787267052E+02  0.19999981795E+02 0.  0.
         12    1    1    2    0    0 -0.26959826368E+02 -0.17466729987E+02 -0.29183980645E+02  0.43400732948E+02  0.00000000000E+00 0. -1.
         11    1    3    3    0    0  0.25626407218E+01 -0.22425170335E+01 -0.55203843413E+00  0.34497473543E+01  0.51100000000E-03 0. -1.
        -11    1    3    3    0    0  0.11345244797E+02  0.10177651926E+02  0.78884561987E+01  0.17161786612E+02  0.51100000000E-03 0.  1.
        -12    1    3    3    0    0  0.13051940848E+02  0.95315950937E+01  0.21847562880E+02  0.27175733086E+02  0.00000000000E+00 0.  1.
</event>
<event>
 7    1  0.1418970E-010  0.4778727E+02  0.7816164E-02  0.1312668E+00
        -11   -1    0    0    0    0  0.00000000000E+00  0.00000000000E+00  0.45593999997E+02  0.45594000000E+02  0.51100000000E-03 0.  1.
         11   -1    0    0    0    0 -0.00000000000E+00 -0.00000000000E+00 -0.45593999997E+02  0.45594000000E+02  0.51100000000E-03 0. -1.
    9900012    2    1    2    0    0  0.29820026935E+02  0.25695776765E+02  0.18278850305E+02  0.47787270531E+02  0.19999997659E+02 0.  0.
         12    1    1    2    0    0 -0.29820026935E+02 -0.25695776765E+02 -0.18278850305E+02  0.43400729469E+02  0.00000000000E+00 0. -1.
         11    1    3    3    0    0  0.24008133123E+02  0.19267854425E+02  0.15324347185E+02  0.34387152937E+02  0.51100000000E-03 0. -1.
        -11    1    3    3    0    0  0.69037773246E+01  0.60514426781E+00  0.38009216239E+00  0.69406636027E+01  0.51100000000E-03 0.  1.
         12    1    3    3    0    0 -0.10918835129E+01  0.58227780724E+01  0.25744109583E+01  0.64594539915E+01  0.00000000000E+00 0. -1.
</event>
<event>
 7    1  0.1418970E-010  0.4778727E+02  0.7816164E-02  0.1312668E+00
        -11   -1    0    0    0    0  0.00000000000E+00  0.00000000000E+00  0.45593999997E+02  0.45594000000E+02  0.51100000000E-03 0. -1.
         11   -1    0    0    0    0 -0.00000000000E+00 -0.00000000000E+00 -0.45593999997E+02  0.45594000000E+02  0.51100000000E-03 0.  1.
    9900012    2    1    2    0    0 -0.23270465779E+02  0.30180190943E+02 -0.20766916690E+02  0.47787270378E+02  0.19999996962E+02 0.  0.
         12    1    1    2    0    0  0.23270465779E+02 -0.30180190943E+02  0.20766916690E+02  0.43400729622E+02  0.00000000000E+00 0. -1.
         11    1    3    3    0    0 -0.32124825199E+01 -0.17775891925E+01 -0.17281595463E+01  0.40578815849E+01  0.51100000000E-03 0. -1.
        -11    1    3    3    0    0 -0.15468215869E+02  0.15507459768E+02 -0.76449289814E+01  0.23198964417E+02  0.51100000000E-03 0.  1.
         12    1    3    3    0    0 -0.45897673896E+01  0.16450320368E+02 -0.11393828162E+02  0.20530424377E+02  0.00000000000E+00 0. -1.
</event>
<event>
 7    1  0.1418970E-010  0.4778728E+02  0.7816164E-02  0.1312668E+00
        -11   -1    0    0    0    0  0.00000000000E+00  0.00000000000E+00  0.45593999997E+02  0.45594000000E+02  0.51100000000E-03 0. -1.
         11   -1    0    0    0    0 -0.00000000000E+00 -0.00000000000E+00 -0.45593999997E+02  0.45594000000E+02  0.51100000000E-03 0.  1.
    9900012    2    1    2    0    0  0.54172913644E+01 -0.42318247785E+02 -0.79649887086E+01  0.47787283572E+02  0.20000057117E+02 0.  0.
         12    1    1    2    0    0 -0.54172913644E+01  0.42318247785E+02  0.79649887086E+01  0.43400716428E+02  0.00000000000E+00 0. -1.
         11    1    3    3    0    0  0.43448307219E+01 -0.10856847406E+02 -0.67720312709E+00  0.11713551722E+02  0.51100000000E-03 0.  1.
        -11    1    3    3    0    0  0.68332038808E+01 -0.23488045302E+02 -0.90465446072E+01  0.26081045166E+02  0.51100000000E-03 0. -1.
         12    1    3    3    0    0 -0.57607432383E+01 -0.79733550773E+01  0.17587590256E+01  0.99926866836E+01  0.00000000000E+00 0. -1.
</event>
<event>
 7    1  0.1418970E-010  0.4778727E+02  0.7816164E-02  0.1312668E+00
        -11   -1    0    0    0    0  0.00000000000E+00  0.00000000000E+00  0.45593999997E+02  0.45594000000E+02  0.51100000000E-03 0.  1.
         11   -1    0    0    0    0 -0.00000000000E+00 -0.00000000000E+00 -0.45593999997E+02  0.45594000000E+02  0.51100000000E-03 0. -1.
    9900012    2    1    2    0    0  0.19724015521E+02  0.35107811543E+02  0.16187272754E+02  0.47787273983E+02  0.20000013396E+02 0.  0.
         12    1    1    2    0    0 -0.19724015521E+02 -0.35107811543E+02 -0.16187272754E+02  0.43400726017E+02  0.00000000000E+00 0. -1.
         11    1    3    3    0    0  0.80866049138E+01  0.22355619258E+02  0.18665465957E+02  0.30225262796E+02  0.51100000000E-03 0. -1.
        -11    1    3    3    0    0  0.51974505517E+01  0.62566155299E+01 -0.20268788774E+00  0.81363267367E+01  0.51100000000E-03 0.  1.
         12    1    3    3    0    0  0.64399600553E+01  0.64955767553E+01 -0.22755053155E+01  0.94256844494E+01  0.00000000000E+00 0. -1.
</event>
<event>
 7    1  0.1418970E-010  0.4778727E+02  0.7816164E-02  0.1312668E+00
        -11   -1    0    0    0    0  0.00000000000E+00  0.00000000000E+00  0.45593999997E+02  0.45594000000E+02  0.51100000000E-03 0. -1.
         11   -1    0    0    0    0 -0.00000000000E+00 -0.00000000000E+00 -0.45593999997E+02  0.45594000000E+02  0.51100000000E-03 0.  1.
    9900012    2    1    2    0    0 -0.23933278587E+02 -0.18371168699E+01 -0.36158630270E+02  0.47787269990E+02  0.19999995194E+02 0.  0.
         12    1    1    2    0    0  0.23933278587E+02  0.18371168699E+01  0.36158630270E+02  0.43400730010E+02  0.00000000000E+00 0. -1.
         11    1    3    3    0    0 -0.20002790577E+01 -0.38712006958E+00  0.23967567490E+01  0.31456988782E+01  0.51100000000E-03 0. -1.
        -11    1    3    3    0    0 -0.12506310616E+02 -0.14625439006E+01 -0.17371778680E+02  0.21455198313E+02  0.51100000000E-03 0.  1.
        -12    1    3    3    0    0 -0.94266889140E+01  0.12547100287E-01 -0.21183608340E+02  0.23186372799E+02  0.00000000000E+00 0.  1.
</event>
<event>
 7    1  0.1418970E-010  0.4778726E+02  0.7816164E-02  0.1312668E+00
        -11   -1    0    0    0    0  0.00000000000E+00  0.00000000000E+00  0.45593999997E+02  0.45594000000E+02  0.51100000000E-03 0.  1.
         11   -1    0    0    0    0 -0.00000000000E+00 -0.00000000000E+00 -0.45593999997E+02  0.45594000000E+02  0.51100000000E-03 0. -1.
    9900012    2    1    2    0    0 -0.12372144016E+02  0.22442730768E+02  0.35026816537E+02  0.47787262810E+02  0.19999962458E+02 0.  0.
         12    1    1    2    0    0  0.12372144016E+02 -0.22442730768E+02 -0.35026816537E+02  0.43400737190E+02  0.00000000000E+00 0. -1.
         11    1    3    3    0    0  0.41246339733E+00 -0.16972065123E+01 -0.27076361461E+00  0.17674697156E+01  0.51100000000E-03 0. -1.
        -11    1    3    3    0    0 -0.37806031322E+01  0.52207878576E+01  0.21303892620E+01  0.67888249768E+01  0.51100000000E-03 0.  1.
        -12    1    3    3    0    0 -0.90040042811E+01  0.18919149422E+02  0.33167190890E+02  0.39230968118E+02  0.00000000000E+00 0.  1.
</event>
<event>
 7    1  0.1418970E-010  0.4778726E+02  0.7816164E-02  0.1312668E+00
        -11   -1    0    0    0    0  0.00000000000E+00  0.00000000000E+00  0.45593999997E+02  0.45594000000E+02  0.51100000000E-03 0.  1.
         11   -1    0    0    0    0 -0.00000000000E+00 -0.00000000000E+00 -0.45593999997E+02  0.45594000000E+02  0.51100000000E-03 0. -1.
    9900012    2    1    2    0    0 -0.33254886251E+02  0.21827860997E+02 -0.17357451295E+02  0.47787261634E+02  0.19999957092E+02 0.  0.
         12    1    1    2    0    0  0.33254886251E+02 -0.21827860997E+02  0.17357451295E+02  0.43400738366E+02  0.00000000000E+00 0. -1.
         11    1    3    3    0    0 -0.19852381784E+02  0.59609942507E+01 -0.69878495153E+01  0.21874198409E+02  0.51100000000E-03 0. -1.
        -11    1    3    3    0    0  0.44836906635E+00  0.21440631558E+01 -0.53477777860E+01  0.57789937831E+01  0.51100000000E-03 0.  1.
        -12    1    3    3    0    0 -0.13850873534E+02  0.13722803591E+02 -0.50218239933E+01  0.20134069441E+02  0.00000000000E+00 0.  1.
</event>
<event>
 7    1  0.1418970E-010  0.4778727E+02  0.7816164E-02  0.1312668E+00
        -11   -1    0    0    0    0  0.00000000000E+00  0.00000000000E+00  0.45593999997E+02  0.45594000000E+02  0.51100000000E-03 0.  1.
         11   -1    0    0    0    0 -0.00000000000E+00 -0.00000000000E+00 -0.45593999997E+02  0.45594000000E+02  0.51100000000E-03 0. -1.
    9900012    2    1    2    0    0  0.23192159158E+02 -0.21955936326E+00  0.36683768799E+02  0.47787270213E+02  0.19999996211E+02 0.  0.
         12    1    1    2    0    0 -0.23192159158E+02  0.21955936326E+00 -0.36683768799E+02  0.43400729787E+02  0.00000000000E+00 0. -1.
         11    1    3    3    0    0  0.58306782274E+01  0.58680537369E+01  0.64345382590E+01  0.10480178726E+02  0.51100000000E-03 0. -1.
        -11    1    3    3    0    0  0.14294215756E+01 -0.37858734770E+01  0.13427601527E+02  0.14024142293E+02  0.51100000000E-03 0.  1.
        -12    1    3    3    0    0  0.15932059355E+02 -0.23017396232E+01  0.16821629013E+02  0.23282949195E+02  0.00000000000E+00 0.  1.
</event>
<event>
 7    1  0.1689148E-010  0.4778727E+02  0.7816164E-02  0.1312668E+00
        -11   -1    0    0    0    0  0.00000000000E+00  0.00000000000E+00  0.45593999997E+02  0.45594000000E+02  0.51100000000E-03 0. -1.
         11   -1    0    0    0    0 -0.00000000000E+00 -0.00000000000E+00 -0.45593999997E+02  0.45594000000E+02  0.51100000000E-03 0.  1.
    9900012    2    1    2    0    0 -0.10494507359E+02 -0.41033161338E+02 -0.94746171870E+01  0.47787269765E+02  0.19999994166E+02 0.  0.
         12    1    1    2    0    0  0.10494507359E+02  0.41033161338E+02  0.94746171870E+01  0.43400730235E+02  0.00000000000E+00 0. -1.
         11    1    3    3    0    0  0.71058297709E+00 -0.38422086115E+01  0.38566590991E+01  0.54901106409E+01  0.51100000000E-03 0. -1.
        -11    1    3    3    0    0 -0.86642491582E+01 -0.18558997402E+02 -0.26001197979E+01  0.20646215665E+02  0.51100000000E-03 0.  1.
        -12    1    3    3    0    0 -0.25408411776E+01 -0.18631955324E+02 -0.10731156488E+02  0.21650943459E+02  0.00000000000E+00 0.  1.
</event>
<event>
 7    1  0.1769003E-010  0.4778727E+02  0.7816164E-02  0.1312668E+00
        -11   -1    0    0    0    0  0.00000000000E+00  0.00000000000E+00  0.45593999997E+02  0.45594000000E+02  0.51100000000E-03 0. -1.
         11   -1    0    0    0    0 -0.00000000000E+00 -0.00000000000E+00 -0.45593999997E+02  0.45594000000E+02  0.51100000000E-03 0.  1.
    9900012    2    1    2    0    0 -0.27107647724E+02 -0.12908482902E+01 -0.33869344228E+02  0.47787270365E+02  0.19999996901E+02 0.  0.
         12    1    1    2    0    0  0.27107647724E+02  0.12908482902E+01  0.33869344228E+02  0.43400729635E+02  0.00000000000E+00 0. -1.
         11    1    3    3    0    0 -0.32125620567E+01  0.13205768102E+01 -0.17120820291E+00  0.34776127717E+01  0.51100000000E-03 0. -1.
        -11    1    3    3    0    0 -0.16806811459E+02 -0.82072397865E+01 -0.27859976332E+02  0.33556012544E+02  0.51100000000E-03 0.  1.
        -12    1    3    3    0    0 -0.70882742074E+01  0.55958146861E+01 -0.58381596934E+01  0.10753645049E+02  0.00000000000E+00 0.  1.
</event>
<event>
 7    1  0.1647958E-010  0.4778728E+02  0.7816164E-02  0.1312668E+00
        -11   -1    0    0    0    0  0.00000000000E+00  0.00000000000E+00  0.45593999997E+02  0.45594000000E+02  0.51100000000E-03 0. -1.
         11   -1    0    0    0    0 -0.00000000000E+00 -0.00000000000E+00 -0.45593999997E+02  0.45594000000E+02  0.51100000000E-03 0.  1.
    9900012    2    1    2    0    0 -0.28139314512E+02  0.31615125577E+02 -0.96065179764E+01  0.47787281410E+02  0.20000047262E+02 0.  0.
         12    1    1    2    0    0  0.28139314512E+02 -0.31615125577E+02  0.96065179764E+01  0.43400718590E+02  0.00000000000E+00 0. -1.
         11    1    3    3    0    0 -0.34311062710E+00  0.88117430242E+01  0.25695879462E+01  0.91851686159E+01  0.51100000000E-03 0. -1.
        -11    1    3    3    0    0 -0.11453297013E+02  0.13838615727E+02 -0.52236555319E+01  0.18707535249E+02  0.51100000000E-03 0.  1.
         12    1    3    3    0    0 -0.16342906872E+02  0.89647668258E+01 -0.69524503907E+01  0.19894577546E+02  0.00000000000E+00 0. -1.
</event>
<event>
 7    1  0.1418970E-010  0.4778727E+02  0.7816164E-02  0.1312668E+00
        -11   -1    0    0    0    0  0.00000000000E+00  0.00000000000E+00  0.45593999997E+02  0.45594000000E+02  0.51100000000E-03 0.  1.
         11   -1    0    0    0    0 -0.00000000000E+00 -0.00000000000E+00 -0.45593999997E+02  0.45594000000E+02  0.51100000000E-03 0. -1.
    9900012    2    1    2    0    0 -0.28600646447E+02 -0.83371895943E+01  0.31561338133E+02  0.47787265303E+02  0.19999973822E+02 0.  0.
         12    1    1    2    0    0  0.28600646447E+02  0.83371895943E+01 -0.31561338133E+02  0.43400734697E+02  0.00000000000E+00 0. -1.
         11    1    3    3    0    0 -0.21444850477E+01  0.98401254409E+00 -0.12801655097E+01  0.26843846223E+01  0.51100000000E-03 0. -1.
        -11    1    3    3    0    0 -0.20862038313E+02 -0.12385310022E+02  0.23388656109E+02  0.33699403285E+02  0.51100000000E-03 0.  1.
         12    1    3    3    0    0 -0.55941230856E+01  0.30641078833E+01  0.94528475337E+01  0.11403477396E+02  0.00000000000E+00 0. -1.
</event>
<event>
 7    1  0.1418970E-010  0.4778727E+02  0.7816164E-02  0.1312668E+00
        -11   -1    0    0    0    0  0.00000000000E+00  0.00000000000E+00  0.45593999997E+02  0.45594000000E+02  0.51100000000E-03 0. -1.
         11   -1    0    0    0    0 -0.00000000000E+00 -0.00000000000E+00 -0.45593999997E+02  0.45594000000E+02  0.51100000000E-03 0.  1.
    9900012    2    1    2    0    0  0.36301835960E+02  0.21112514208E+02  0.10957270325E+02  0.47787270476E+02  0.19999997408E+02 0.  0.
         12    1    1    2    0    0 -0.36301835960E+02 -0.21112514208E+02 -0.10957270325E+02  0.43400729524E+02  0.00000000000E+00 0. -1.
         11    1    3    3    0    0  0.96239013519E+01  0.12590506241E+01  0.10781170946E+02  0.14506492785E+02  0.51100000000E-03 0. -1.
        -11    1    3    3    0    0  0.88502909957E+01  0.58586808617E+01  0.22930395263E+00  0.10616231568E+02  0.51100000000E-03 0.  1.
         12    1    3    3    0    0  0.17827643612E+02  0.13994782722E+02 -0.53204573211E-01  0.22664546123E+02  0.00000000000E+00 0. -1.
</event>
<event>
 7    1  0.1418970E-010  0.4778727E+02  0.7816164E-02  0.1312668E+00
        -11   -1    0    0    0    0  0.00000000000E+00  0.00000000000E+00  0.45593999997E+02  0.45594000000E+02  0.51100000000E-03 0.  1.
         11   -1    0    0    0    0 -0.00000000000E+00 -0.00000000000E+00 -0.45593999997E+02  0.45594000000E+02  0.51100000000E-03 0. -1.
    9900012    2    1    2    0    0  0.13900698461E+02 -0.17225740152E+02  0.37331862600E+02  0.47787268363E+02  0.19999987774E+02 0.  0.
         12    1    1    2    0    0 -0.13900698461E+02  0.17225740152E+02 -0.37331862600E+02  0.43400731637E+02  0.00000000000E+00 0. -1.
         11    1    3    3    0    0  0.34181945085E+01  0.21044906200E+01 -0.24734157086E+00  0.40217051834E+01  0.51100000000E-03 0. -1.
        -11    1    3    3    0    0  0.71237772841E+01 -0.11093498255E+02  0.18526045326E+02  0.22738255474E+02  0.51100000000E-03 0.  1.
         12    1    3    3    0    0  0.33587266682E+01 -0.82367325171E+01  0.19053158845E+02  0.21027307706E+02  0.00000000000E+00 0. -1.
</event>
<event>
 7    1  0.1418970E-010  0.4778727E+02  0.7816164E-02  0.1312668E+00
        -11   -1    0    0    0    0  0.00000000000E+00  0.00000000000E+00  0.45593999997E+02  0.45594000000E+02  0.51100000000E-03 0.  1.
         11   -1    0    0    0    0 -0.00000000000E+00 -0.00000000000E+00 -0.45593999997E+02  0.45594000000E+02  0.51100000000E-03 0. -1.
    9900012    2    1    2    0    0  0.10814829297E+02 -0.41593636935E+02  0.60524549386E+01  0.47787269856E+02  0.19999994584E+02 0.  0.
         12    1    1    2    0    0 -0.10814829297E+02  0.41593636935E+02 -0.60524549386E+01  0.43400730144E+02  0.00000000000E+00 0. -1.
         11    1    3    3    0    0  0.54078871712E+01 -0.22105432201E+01  0.24801481325E+01  0.63468795487E+01  0.51100000000E-03 0. -1.
        -11    1    3    3    0    0  0.57719368755E+01 -0.11859520479E+02  0.43938596857E+01  0.13902139565E+02  0.51100000000E-03 0.  1.
        -12    1    3    3    0    0 -0.36499474935E+00 -0.27523573236E+02 -0.82155287959E+00  0.27538250743E+02  0.00000000000E+00 0.  1.
</event>
<event>
 7    1  0.1418970E-010  0.4778727E+02  0.7816164E-02  0.1312668E+00
        -11   -1    0    0    0    0  0.00000000000E+00  0.00000000000E+00  0.45593999997E+02  0.45594000000E+02  0.51100000000E-03 0. -1.
         11   -1    0    0    0    0 -0.00000000000E+00 -0.00000000000E+00 -0.45593999997E+02  0.45594000000E+02  0.51100000000E-03 0.  1.
    9900012    2    1    2    0    0  0.12952535408E+02  0.41045297961E+02  0.55801771822E+01  0.47787273789E+02  0.20000012515E+02 0.  0.
         12    1    1    2    0    0 -0.12952535408E+02 -0.41045297961E+02 -0.55801771822E+01  0.43400726211E+02  0.00000000000E+00 0. -1.
         11    1    3    3    0    0  0.22626282927E+01  0.47077599487E+01  0.12805462529E+01  0.53779447276E+01  0.51100000000E-03 0. -1.
        -11    1    3    3    0    0  0.64726358751E+01  0.27066601660E+02  0.11314930908E+02  0.30042030595E+02  0.51100000000E-03 0.  1.
         12    1    3    3    0    0  0.42172712402E+01  0.92709363526E+01 -0.70152999784E+01  0.12367298466E+02  0.00000000000E+00 0. -1.
</event>
<event>
 7    1  0.1647765E-010  0.4778727E+02  0.7816164E-02  0.1312668E+00
        -11   -1    0    0    0    0  0.00000000000E+00  0.00000000000E+00  0.45593999997E+02  0.45594000000E+02  0.51100000000E-03 0. -1.
         11   -1    0    0    0    0 -0.00000000000E+00 -0.00000000000E+00 -0.45593999997E+02  0.45594000000E+02  0.51100000000E-03 0.  1.
    9900012    2    1    2    0    0  0.43070626104E+02 -0.27484963686E+01 -0.45815113977E+01  0.47787270605E+02  0.19999997997E+02 0.  0.
         12    1    1    2    0    0 -0.43070626104E+02  0.27484963686E+01  0.45815113977E+01  0.43400729395E+02  0.00000000000E+00 0. -1.
         11    1    3    3    0    0  0.69195386793E+01  0.31721754944E+01 -0.58493627034E+01  0.95998831867E+01  0.51100000000E-03 0. -1.
        -11    1    3    3    0    0  0.26730272543E+02 -0.24243923039E+01 -0.34959443078E+01  0.27066709721E+02  0.51100000000E-03 0.  1.
         12    1    3    3    0    0  0.94208148824E+01 -0.34962795591E+01  0.47637956135E+01  0.11120677697E+02  0.00000000000E+00 0. -1.
</event>
<event>
 7    1  0.1418970E-010  0.4778727E+02  0.7816164E-02  0.1312668E+00
        -11   -1    0    0    0    0  0.00000000000E+00  0.00000000000E+00  0.45593999997E+02  0.45594000000E+02  0.51100000000E-03 0.  1.
         11   -1    0    0    0    0 -0.00000000000E+00 -0.00000000000E+00 -0.45593999997E+02  0.45594000000E+02  0.51100000000E-03 0. -1.
    9900012    2    1    2    0    0 -0.10931365687E+02 -0.13089935360E+02  0.39909673364E+02  0.47787271993E+02  0.20000004327E+02 0.  0.
         12    1    1    2    0    0  0.10931365687E+02  0.13089935360E+02 -0.39909673364E+02  0.43400728007E+02  0.00000000000E+00 0. -1.
         11    1    3    3    0    0 -0.71389736381E+01  0.39097561332E+00  0.85677964621E+01  0.11159074469E+02  0.51100000000E-03 0. -1.
        -11    1    3    3    0    0 -0.27932085770E+01 -0.60996704603E+01  0.27383157613E+02  0.28193001170E+02  0.51100000000E-03 0.  1.
         12    1    3    3    0    0 -0.99918347209E+00 -0.73812405130E+01  0.39587192888E+01  0.84351963539E+01  0.00000000000E+00 0. -1.
</event>
<event>
 7    1  0.1418970E-010  0.4778727E+02  0.7816164E-02  0.1312668E+00
        -11   -1    0    0    0    0  0.00000000000E+00  0.00000000000E+00  0.45593999997E+02  0.45594000000E+02  0.51100000000E-03 0. -1.
         11   -1    0    0    0    0 -0.00000000000E+00 -0.00000000000E+00 -0.45593999997E+02  0.45594000000E+02  0.51100000000E-03 0.  1.
    9900012    2    1    2    0    0 -0.23773721521E+02  0.35856354504E+02  0.57232547082E+01  0.47787266853E+02  0.19999980889E+02 0.  0.
         12    1    1    2    0    0  0.23773721521E+02 -0.35856354504E+02 -0.57232547082E+01  0.43400733147E+02  0.00000000000E+00 0. -1.
         11    1    3    3    0    0 -0.77523507488E+01  0.14370608111E+02  0.42481785686E+01  0.16871880186E+02  0.51100000000E-03 0. -1.
        -11    1    3    3    0    0 -0.16525473899E+02  0.11599867622E+02 -0.23007663785E+01  0.20320968053E+02  0.51100000000E-03 0.  1.
         12    1    3    3    0    0  0.50410312700E+00  0.98858787706E+01  0.37758425181E+01  0.10594418613E+02  0.00000000000E+00 0. -1.
</event>
<event>
 7    1  0.1418970E-010  0.4778727E+02  0.7816164E-02  0.1312668E+00
        -11   -1    0    0    0    0  0.00000000000E+00  0.00000000000E+00  0.45593999997E+02  0.45594000000E+02  0.51100000000E-03 0. -1.
         11   -1    0    0    0    0 -0.00000000000E+00 -0.00000000000E+00 -0.45593999997E+02  0.45594000000E+02  0.51100000000E-03 0.  1.
    9900012    2    1    2    0    0  0.30282251588E+02  0.26592898910E+02 -0.16106712684E+02  0.47787271583E+02  0.20000002455E+02 0.  0.
         12    1    1    2    0    0 -0.30282251588E+02 -0.26592898910E+02  0.16106712684E+02  0.43400728417E+02  0.00000000000E+00 0. -1.
         11    1    3    3    0    0  0.35174109843E+01  0.75913012360E+01 -0.13541512505E+01  0.84754799485E+01  0.51100000000E-03 0. -1.
        -11    1    3    3    0    0  0.20922192933E+02  0.82361864415E+01 -0.15054459883E+02  0.27059373364E+02  0.51100000000E-03 0.  1.
        -12    1    3    3    0    0  0.58426476708E+01  0.10765411232E+02  0.30189844902E+00  0.12252418270E+02  0.00000000000E+00 0.  1.
</event>
<event>
 7    1  0.1418970E-010  0.4778727E+02  0.7816164E-02  0.1312668E+00
        -11   -1    0    0    0    0  0.00000000000E+00  0.00000000000E+00  0.45593999997E+02  0.45594000000E+02  0.51100000000E-03 0.  1.
         11   -1    0    0    0    0 -0.00000000000E+00 -0.00000000000E+00 -0.45593999997E+02  0.45594000000E+02  0.51100000000E-03 0. -1.
    9900012    2    1    2    0    0  0.29632054584E+02  0.23740497048E+02  0.21022681228E+02  0.47787274373E+02  0.20000015175E+02 0.  0.
         12    1    1    2    0    0 -0.29632054584E+02 -0.23740497048E+02 -0.21022681228E+02  0.43400725627E+02  0.00000000000E+00 0. -1.
         11    1    3    3    0    0  0.19272601291E+02  0.80495988371E+01  0.19035143301E+02  0.28258908024E+02  0.51100000000E-03 0. -1.
        -11    1    3    3    0    0  0.44981230291E+01  0.30335343196E+01  0.12060039293E+01  0.55578671261E+01  0.51100000000E-03 0.  1.
         12    1    3    3    0    0  0.58613302645E+01  0.12657363891E+02  0.78153399782E+00  0.13970499223E+02  0.00000000000E+00 0. -1.
</event>
<event>
 7    1  0.1418970E-010  0.4778727E+02  0.7816164E-02  0.1312668E+00
        -11   -1    0    0    0    0  0.00000000000E+00  0.00000000000E+00  0.45593999997E+02  0.45594000000E+02  0.51100000000E-03 0. -1.
         11   -1    0    0    0    0 -0.00000000000E+00 -0.00000000000E+00 -0.45593999997E+02  0.45594000000E+02  0.51100000000E-03 0.  1.
    9900012    2    1    2    0    0  0.21570601718E+01 -0.40047098587E+02 -0.16589159395E+02  0.47787271628E+02  0.20000002660E+02 0.  0.
         12    1    1    2    0    0 -0.21570601718E+01  0.40047098587E+02  0.16589159395E+02  0.43400728372E+02  0.00000000000E+00 0. -1.
         11    1    3    3    0    0 -0.48336774555E+00 -0.10716152791E+02 -0.56312817931E+00  0.10741819614E+02  0.51100000000E-03 0. -1.
        -11    1    3    3    0    0 -0.47930264695E+01 -0.11076485185E+02 -0.11817389987E+02  0.16891190992E+02  0.51100000000E-03 0.  1.
        -12    1    3    3    0    0  0.74334543869E+01 -0.18254460611E+02 -0.42086412290E+01  0.20154261022E+02  0.00000000000E+00 0.  1.
</event>
<event>
 7    1  0.1418970E-010  0.4778727E+02  0.7816164E-02  0.1312668E+00
        -11   -1    0    0    0    0  0.00000000000E+00  0.00000000000E+00  0.45593999997E+02  0.45594000000E+02  0.51100000000E-03 0.  1.
         11   -1    0    0    0    0 -0.00000000000E+00 -0.00000000000E+00 -0.45593999997E+02  0.45594000000E+02  0.51100000000E-03 0. -1.
    9900012    2    1    2    0    0  0.81591663165E+01 -0.10071467236E+02  0.41420003811E+02  0.47787272323E+02  0.20000005828E+02 0.  0.
         12    1    1    2    0    0 -0.81591663165E+01  0.10071467236E+02 -0.41420003811E+02  0.43400727677E+02  0.00000000000E+00 0. -1.
         11    1    3    3    0    0  0.10857711385E+02 -0.10337939623E+02  0.19261225647E+02  0.24408148350E+02  0.51100000000E-03 0. -1.
        -11    1    3    3    0    0  0.10719453633E+01 -0.75731203872E+00  0.16203820761E+02  0.16256887645E+02  0.51100000000E-03 0.  1.
         12    1    3    3    0    0 -0.37704904319E+01  0.10237844258E+01  0.59549574025E+01  0.71222363281E+01  0.00000000000E+00 0. -1.
</event>
<event>
 7    1  0.1418970E-010  0.4778727E+02  0.7816164E-02  0.1312668E+00
        -11   -1    0    0    0    0  0.00000000000E+00  0.00000000000E+00  0.45593999997E+02  0.45594000000E+02  0.51100000000E-03 0.  1.
         11   -1    0    0    0    0 -0.00000000000E+00 -0.00000000000E+00 -0.45593999997E+02  0.45594000000E+02  0.51100000000E-03 0. -1.
    9900012    2    1    2    0    0 -0.16743175995E+02  0.11871301997E+02  0.38240838240E+02  0.47787268867E+02  0.19999990074E+02 0.  0.
         12    1    1    2    0    0  0.16743175995E+02 -0.11871301997E+02 -0.38240838240E+02  0.43400731133E+02  0.00000000000E+00 0. -1.
         11    1    3    3    0    0  0.68654253186E+00  0.10227823826E+02  0.17677600491E+02  0.20434707736E+02  0.51100000000E-03 0. -1.
        -11    1    3    3    0    0 -0.52493752151E+01  0.12183100123E+01  0.36625944983E+01  0.65157361943E+01  0.51100000000E-03 0.  1.
        -12    1    3    3    0    0 -0.12180343312E+02  0.42516815902E+00  0.16900643251E+02  0.20836824937E+02  0.00000000000E+00 0.  1.
</event>
<event>
 7    1  0.1418970E-010  0.4778727E+02  0.7816164E-02  0.1312668E+00
        -11   -1    0    0    0    0  0.00000000000E+00  0.00000000000E+00  0.45593999997E+02  0.45594000000E+02  0.51100000000E-03 0.  1.
         11   -1    0    0    0    0 -0.00000000000E+00 -0.00000000000E+00 -0.45593999997E+02  0.45594000000E+02  0.51100000000E-03 0. -1.
    9900012    2    1    2    0    0 -0.19601087257E+02 -0.13504214168E+02  0.36291281541E+02  0.47787268003E+02  0.19999986133E+02 0.  0.
         12    1    1    2    0    0  0.19601087257E+02  0.13504214168E+02 -0.36291281541E+02  0.43400731997E+02  0.00000000000E+00 0. -1.
         11    1    3    3    0    0 -0.10627692342E+02 -0.11151859856E+01  0.11760967322E+02  0.15890621036E+02  0.51100000000E-03 0. -1.
        -11    1    3    3    0    0 -0.42279237733E+01 -0.59452983511E+01  0.22482080779E+02  0.23636113647E+02  0.51100000000E-03 0.  1.
         12    1    3    3    0    0 -0.47454711416E+01 -0.64437298317E+01  0.20482334396E+01  0.82605333195E+01  0.00000000000E+00 0. -1.
</event>
<event>
 7    1  0.1418970E-010  0.4778728E+02  0.7816164E-02  0.1312668E+00
        -11   -1    0    0    0    0  0.00000000000E+00  0.00000000000E+00  0.45593999997E+02  0.45594000000E+02  0.51100000000E-03 0. -1.
         11   -1    0    0    0    0 -0.00000000000E+00 -0.00000000000E+00 -0.45593999997E+02  0.45594000000E+02  0.51100000000E-03 0.  1.
    9900012    2    1    2    0    0 -0.52621815464E+01 -0.38246213426E+02 -0.19828247579E+02  0.47787276526E+02  0.20000024991E+02 0.  0.
         12    1    1    2    0    0  0.52621815464E+01  0.38246213426E+02  0.19828247579E+02  0.43400723474E+02  0.00000000000E+00 0. -1.
         11    1    3    3    0    0 -0.44091306038E+01 -0.10135612830E+02 -0.71425877591E+01  0.13160077518E+02  0.51100000000E-03 0. -1.
        -11    1    3    3    0    0  0.37727497084E+01 -0.24647073177E+02 -0.57297076556E+01  0.25584006852E+02  0.51100000000E-03 0.  1.
        -12    1    3    3    0    0 -0.46258006511E+01 -0.34635274192E+01 -0.69559521639E+01  0.90431921551E+01  0.00000000000E+00 0.  1.
</event>
<event>
 7    1  0.1418970E-010  0.4778728E+02  0.7816164E-02  0.1312668E+00
        -11   -1    0    0    0    0  0.00000000000E+00  0.00000000000E+00  0.45593999997E+02  0.45594000000E+02  0.51100000000E-03 0.  1.
         11   -1    0    0    0    0 -0.00000000000E+00 -0.00000000000E+00 -0.45593999997E+02  0.45594000000E+02  0.51100000000E-03 0. -1.
    9900012    2    1    2    0    0  0.30829439866E+02 -0.94755269613E+01  0.29041047999E+02  0.47787280623E+02  0.20000043671E+02 0.  0.
         12    1    1    2    0    0 -0.30829439866E+02  0.94755269613E+01 -0.29041047999E+02  0.43400719377E+02  0.00000000000E+00 0. -1.
         11    1    3    3    0    0  0.87518877433E+01  0.36168302845E+01  0.61912435091E+01  0.11314084003E+02  0.51100000000E-03 0. -1.
        -11    1    3    3    0    0  0.13706970049E+02 -0.12725844114E+01  0.90955184002E+01  0.16499362237E+02  0.51100000000E-03 0.  1.
        -12    1    3    3    0    0  0.83705820732E+01 -0.11819772834E+02  0.13754286089E+02  0.19973834382E+02  0.00000000000E+00 0.  1.
</event>
<event>
 7    1  0.1418970E-010  0.4778724E+02  0.7816164E-02  0.1312668E+00
        -11   -1    0    0    0    0  0.00000000000E+00  0.00000000000E+00  0.45593999997E+02  0.45594000000E+02  0.51100000000E-03 0.  1.
         11   -1    0    0    0    0 -0.00000000000E+00 -0.00000000000E+00 -0.45593999997E+02  0.45594000000E+02  0.51100000000E-03 0. -1.
    9900012    2    1    2    0    0 -0.12962572532E+02  0.30209651827E+01  0.41309456906E+02  0.47787242551E+02  0.19999870086E+02 0.  0.
         12    1    1    2    0    0  0.12962572532E+02 -0.30209651827E+01 -0.41309456906E+02  0.43400757449E+02  0.00000000000E+00 0. -1.
         11    1    3    3    0    0  0.34367742336E+00 -0.23518238809E+01  0.10361937604E+01  0.25928531598E+01  0.51100000000E-03 0. -1.
        -11    1    3    3    0    0 -0.50188891396E+01  0.31766380139E+01  0.24728565993E+01  0.64339177248E+01  0.51100000000E-03 0.  1.
        -12    1    3    3    0    0 -0.82873608156E+01  0.21961510496E+01  0.37800406546E+02  0.38760471666E+02  0.00000000000E+00 0.  1.
</event>
<event>
 7    1  0.1418970E-010  0.4778727E+02  0.7816164E-02  0.1312668E+00
        -11   -1    0    0    0    0  0.00000000000E+00  0.00000000000E+00  0.45593999997E+02  0.45594000000E+02  0.51100000000E-03 0. -1.
         11   -1    0    0    0    0 -0.00000000000E+00 -0.00000000000E+00 -0.45593999997E+02  0.45594000000E+02  0.51100000000E-03 0.  1.
    9900012    2    1    2    0    0  0.23485242732E+02  0.35170397024E+02 -0.97524259302E+01  0.47787271152E+02  0.20000000492E+02 0.  0.
         12    1    1    2    0    0 -0.23485242732E+02 -0.35170397024E+02  0.97524259302E+01  0.43400728848E+02  0.00000000000E+00 0. -1.
         11    1    3    3    0    0  0.26168605150E+01  0.24987882570E+01  0.32585559291E+01  0.48693006389E+01  0.51100000000E-03 0. -1.
        -11    1    3    3    0    0  0.31396504721E+01  0.13857021233E+02 -0.88357076097E+01  0.16731532260E+02  0.51100000000E-03 0.  1.
        -12    1    3    3    0    0  0.17728731745E+02  0.18814587533E+02 -0.41752742496E+01  0.26186438253E+02  0.00000000000E+00 0.  1.
</event>
<event>
 7    1  0.1418970E-010  0.4778728E+02  0.7816164E-02  0.1312668E+00
        -11   -1    0    0    0    0  0.00000000000E+00  0.00000000000E+00  0.45593999997E+02  0.45594000000E+02  0.51100000000E-03 0.  1.
         11   -1    0    0    0    0 -0.00000000000E+00 -0.00000000000E+00 -0.45593999997E+02  0.45594000000E+02  0.51100000000E-03 0. -1.
    9900012    2    1    2    0    0 -0.24009156972E+02 -0.80644784449E+01  0.35244112051E+02  0.47787275751E+02  0.20000021460E+02 0.  0.
         12    1    1    2    0    0  0.24009156972E+02  0.80644784449E+01 -0.35244112051E+02  0.43400724249E+02  0.00000000000E+00 0. -1.
         11    1    3    3    0    0 -0.34280337404E+01  0.14719828656E+01  0.63826852187E+00  0.37849089618E+01  0.51100000000E-03 0. -1.
        -11    1    3    3    0    0 -0.20580397519E+02 -0.57573056871E+01  0.34023903981E+02  0.40178668136E+02  0.51100000000E-03 0.  1.
        -12    1    3    3    0    0 -0.72571204106E-03 -0.37791556235E+01  0.58193954797E+00  0.38236986532E+01  0.00000000000E+00 0.  1.
</event>
<event>
 7    1  0.1418970E-010  0.4778727E+02  0.7816164E-02  0.1312668E+00
        -11   -1    0    0    0    0  0.00000000000E+00  0.00000000000E+00  0.45593999997E+02  0.45594000000E+02  0.51100000000E-03 0. -1.
         11   -1    0    0    0    0 -0.00000000000E+00 -0.00000000000E+00 -0.45593999997E+02  0.45594000000E+02  0.51100000000E-03 0.  1.
    9900012    2    1    2    0    0 -0.88027658475E+01  0.28546491132E+02 -0.31483846878E+02  0.47787268938E+02  0.19999990394E+02 0.  0.
         12    1    1    2    0    0  0.88027658475E+01 -0.28546491132E+02  0.31483846878E+02  0.43400731062E+02  0.00000000000E+00 0. -1.
         11    1    3    3    0    0 -0.27444148743E+01  0.13267457461E+02 -0.17271175010E+02  0.21951098537E+02  0.51100000000E-03 0.  1.
        -11    1    3    3    0    0  0.20369307591E+01  0.11769748314E+02 -0.46312619323E+01  0.12811114301E+02  0.51100000000E-03 0. -1.
        -12    1    3    3    0    0 -0.80952817323E+01  0.35092853572E+01 -0.95814099357E+01  0.13025056100E+02  0.00000000000E+00 0.  1.
</event>
<event>
 7    1  0.1418970E-010  0.4778727E+02  0.7816164E-02  0.1312668E+00
        -11   -1    0    0    0    0  0.00000000000E+00  0.00000000000E+00  0.45593999997E+02  0.45594000000E+02  0.51100000000E-03 0.  1.
         11   -1    0    0    0    0 -0.00000000000E+00 -0.00000000000E+00 -0.45593999997E+02  0.45594000000E+02  0.51100000000E-03 0. -1.
    9900012    2    1    2    0    0  0.27840231820E+02  0.68067750875E+01  0.32591602746E+02  0.47787271153E+02  0.20000000495E+02 0.  0.
         12    1    1    2    0    0 -0.27840231820E+02 -0.68067750875E+01 -0.32591602746E+02  0.43400728847E+02  0.00000000000E+00 0. -1.
         11    1    3    3    0    0 -0.24950402010E+01  0.16215588910E+01  0.67732046462E+01  0.73980389484E+01  0.51100000000E-03 0. -1.
        -11    1    3    3    0    0  0.11765240658E+02  0.27683588803E+00  0.11261098458E+02  0.16288335231E+02  0.51100000000E-03 0.  1.
        -12    1    3    3    0    0  0.18570031363E+02  0.49083803085E+01  0.14557299642E+02  0.24100896974E+02  0.00000000000E+00 0.  1.
</event>
<event>
 7    1  0.1418970E-010  0.4778727E+02  0.7816164E-02  0.1312668E+00
        -11   -1    0    0    0    0  0.00000000000E+00  0.00000000000E+00  0.45593999997E+02  0.45594000000E+02  0.51100000000E-03 0.  1.
         11   -1    0    0    0    0 -0.00000000000E+00 -0.00000000000E+00 -0.45593999997E+02  0.45594000000E+02  0.51100000000E-03 0. -1.
    9900012    2    1    2    0    0 -0.28660813951E+02 -0.47599953247E+00  0.32587642705E+02  0.47787270871E+02  0.19999999207E+02 0.  0.
         12    1    1    2    0    0  0.28660813951E+02  0.47599953247E+00 -0.32587642705E+02  0.43400729129E+02  0.00000000000E+00 0. -1.
         11    1    3    3    0    0 -0.78364112429E+01 -0.12924851084E+01  0.13647252835E+01  0.80586806788E+01  0.51100000000E-03 0. -1.
        -11    1    3    3    0    0 -0.12832424531E+02 -0.55026830274E+01  0.21562659777E+02  0.25688498142E+02  0.51100000000E-03 0.  1.
         12    1    3    3    0    0 -0.79919781767E+01  0.63191686033E+01  0.96602576445E+01  0.14040092050E+02  0.00000000000E+00 0. -1.
</event>
<event>
 7    1  0.1418970E-010  0.4778727E+02  0.7816164E-02  0.1312668E+00
        -11   -1    0    0    0    0  0.00000000000E+00  0.00000000000E+00  0.45593999997E+02  0.45594000000E+02  0.51100000000E-03 0. -1.
         11   -1    0    0    0    0 -0.00000000000E+00 -0.00000000000E+00 -0.45593999997E+02  0.45594000000E+02  0.51100000000E-03 0.  1.
    9900012    2    1    2    0    0  0.39435135128E+02  0.92540692742E+01 -0.15583826203E+02  0.47787270516E+02  0.19999997589E+02 0.  0.
         12    1    1    2    0    0 -0.39435135128E+02 -0.92540692742E+01  0.15583826203E+02  0.43400729484E+02  0.00000000000E+00 0. -1.
         11    1    3    3    0    0  0.24663232380E+02  0.75838153859E+01 -0.43822649373E+01  0.26172381120E+02  0.51100000000E-03 0. -1.
        -11    1    3    3    0    0  0.12518786475E+02 -0.31701133825E+01 -0.63069111580E+01  0.14371734839E+02  0.51100000000E-03 0.  1.
         12    1    3    3    0    0  0.22531162719E+01  0.48403672709E+01 -0.48946501075E+01  0.72431545563E+01  0.00000000000E+00 0. -1.
</event>
<event>
 7    1  0.1418970E-010  0.4778727E+02  0.7816164E-02  0.1312668E+00
        -11   -1    0    0    0    0  0.00000000000E+00  0.00000000000E+00  0.45593999997E+02  0.45594000000E+02  0.51100000000E-03 0.  1.
         11   -1    0    0    0    0 -0.00000000000E+00 -0.00000000000E+00 -0.45593999997E+02  0.45594000000E+02  0.51100000000E-03 0. -1.
    9900012    2    1    2    0    0 -0.36255432277E+02 -0.12034632320E+01  0.23826845726E+02  0.47787271083E+02  0.20000000174E+02 0.  0.
         12    1    1    2    0    0  0.36255432277E+02  0.12034632320E+01 -0.23826845726E+02  0.43400728917E+02  0.00000000000E+00 0. -1.
         11    1    3    3    0    0 -0.29593104128E+02 -0.40357767417E+01  0.25355306845E+02  0.39178194079E+02  0.51100000000E-03 0. -1.
        -11    1    3    3    0    0 -0.57647137866E+01  0.18959877076E+01  0.61931635579E+00  0.61000202818E+01  0.51100000000E-03 0.  1.
         12    1    3    3    0    0 -0.89761436190E+00  0.93632580208E+00 -0.21477774749E+01  0.25090567216E+01  0.00000000000E+00 0. -1.
</event>
<event>
 7    1  0.1418970E-010  0.4778727E+02  0.7816164E-02  0.1312668E+00
        -11   -1    0    0    0    0  0.00000000000E+00  0.00000000000E+00  0.45593999997E+02  0.45594000000E+02  0.51100000000E-03 0.  1.
         11   -1    0    0    0    0 -0.00000000000E+00 -0.00000000000E+00 -0.45593999997E+02  0.45594000000E+02  0.51100000000E-03 0. -1.
    9900012    2    1    2    0    0 -0.19826705600E+02 -0.34778003060E+02 -0.16763520173E+02  0.47787270048E+02  0.19999995456E+02 0.  0.
         12    1    1    2    0    0  0.19826705600E+02  0.34778003060E+02  0.16763520173E+02  0.43400729952E+02  0.00000000000E+00 0. -1.
         11    1    3    3    0    0 -0.13707304241E+02 -0.22362458311E+02 -0.65131548236E+01  0.27025745453E+02  0.51100000000E-03 0.  1.
        -11    1    3    3    0    0  0.22664578385E+01  0.83454675260E-01 -0.37146374300E+01  0.43522784049E+01  0.51100000000E-03 0. -1.
         12    1    3    3    0    0 -0.83858591967E+01 -0.12498999425E+02 -0.65357279192E+01  0.16409246190E+02  0.00000000000E+00 0. -1.
</event>
<event>
 7    1  0.1418970E-010  0.4778727E+02  0.7816164E-02  0.1312668E+00
        -11   -1    0    0    0    0  0.00000000000E+00  0.00000000000E+00  0.45593999997E+02  0.45594000000E+02  0.51100000000E-03 0.  1.
         11   -1    0    0    0    0 -0.00000000000E+00 -0.00000000000E+00 -0.45593999997E+02  0.45594000000E+02  0.51100000000E-03 0. -1.
    9900012    2    1    2    0    0 -0.63708648783E+01  0.11416504751E+02  0.41384765486E+02  0.47787270578E+02  0.19999997873E+02 0.  0.
         12    1    1    2    0    0  0.63708648783E+01 -0.11416504751E+02 -0.41384765486E+02  0.43400729422E+02  0.00000000000E+00 0. -1.
         11    1    3    3    0    0 -0.69647888618E+01  0.15817593787E+02  0.27909459367E+02  0.32827465322E+02  0.51100000000E-03 0. -1.
        -11    1    3    3    0    0 -0.19527562230E+01 -0.28839934995E+01  0.63495458342E+01  0.72420582664E+01  0.51100000000E-03 0.  1.
        -12    1    3    3    0    0  0.25466802066E+01 -0.15170955363E+01  0.71257602854E+01  0.77177469890E+01  0.00000000000E+00 0.  1.
</event>
<event>
 7    1  0.1418970E-010  0.4778728E+02  0.7816164E-02  0.1312668E+00
        -11   -1    0    0    0    0  0.00000000000E+00  0.00000000000E+00  0.45593999997E+02  0.45594000000E+02  0.51100000000E-03 0.  1.
         11   -1    0    0    0    0 -0.00000000000E+00 -0.00000000000E+00 -0.45593999997E+02  0.45594000000E+02  0.51100000000E-03 0. -1.
    9900012    2    1    2    0    0 -0.21022317243E+02 -0.62298383169E+01  0.37454957125E+02  0.47787279718E+02  0.20000039548E+02 0.  0.
         12    1    1    2    0    0  0.21022317243E+02  0.62298383169E+01 -0.37454957125E+02  0.43400720282E+02  0.00000000000E+00 0. -1.
         11    1    3    3    0    0 -0.16586272927E+01  0.61509102561E+01  0.59218353394E+01  0.86978661477E+01  0.51100000000E-03 0. -1.
        -11    1    3    3    0    0 -0.98003048555E+01 -0.75720437820E+01  0.17533432579E+02  0.21466324337E+02  0.51100000000E-03 0.  1.
         12    1    3    3    0    0 -0.95633850953E+01 -0.48087047910E+01  0.13999689207E+02  0.17623089233E+02  0.00000000000E+00 0. -1.
</event>
<event>
 7    1  0.1418970E-010  0.4778724E+02  0.7816164E-02  0.1312668E+00
        -11   -1    0    0    0    0  0.00000000000E+00  0.00000000000E+00  0.45593999997E+02  0.45594000000E+02  0.51100000000E-03 0.  1.
         11   -1    0    0    0    0 -0.00000000000E+00 -0.00000000000E+00 -0.45593999997E+02  0.45594000000E+02  0.51100000000E-03 0. -1.
    9900012    2    1    2    0    0 -0.13896042797E+02  0.22434552332E+02  0.34456006880E+02  0.47787244778E+02  0.19999880242E+02 0.  0.
         12    1    1    2    0    0  0.13896042797E+02 -0.22434552332E+02 -0.34456006880E+02  0.43400755222E+02  0.00000000000E+00 0. -1.
         11    1    3    3    0    0 -0.88151310205E+00  0.61076484767E+00  0.40466545477E+01  0.41863483297E+01  0.51100000000E-03 0. -1.
        -11    1    3    3    0    0 -0.14814757577E+02  0.15906753168E+02  0.30454033434E+02  0.37415905590E+02  0.51100000000E-03 0.  1.
         12    1    3    3    0    0  0.18002278828E+01  0.59170343157E+01 -0.44681102322E-01  0.61849908589E+01  0.00000000000E+00 0. -1.
</event>
<event>
 7    1  0.1695256E-010  0.4778727E+02  0.7816164E-02  0.1312668E+00
        -11   -1    0    0    0    0  0.00000000000E+00  0.00000000000E+00  0.45593999997E+02  0.45594000000E+02  0.51100000000E-03 0.  1.
         11   -1    0    0    0    0 -0.00000000000E+00 -0.00000000000E+00 -0.45593999997E+02  0.45594000000E+02  0.51100000000E-03 0. -1.
    9900012    2    1    2    0    0 -0.41737687528E+01 -0.38725026184E+02  0.19146165771E+02  0.47787266570E+02  0.19999979599E+02 0.  0.
         12    1    1    2    0    0  0.41737687528E+01  0.38725026184E+02 -0.19146165771E+02  0.43400733430E+02  0.00000000000E+00 0. -1.
         11    1    3    3    0    0  0.39575591762E+01 -0.81933864687E+01  0.10890077800E+02  0.14191111698E+02  0.51100000000E-03 0.  1.
        -11    1    3    3    0    0 -0.22153971498E+01 -0.19456722367E+02  0.76560539404E+01  0.21025869590E+02  0.51100000000E-03 0. -1.
         12    1    3    3    0    0 -0.59159307793E+01 -0.11074917348E+02  0.60003403053E+00  0.12570285282E+02  0.00000000000E+00 0. -1.
</event>
<event>
 7    1  0.1418970E-010  0.4778726E+02  0.7816164E-02  0.1312668E+00
        -11   -1    0    0    0    0  0.00000000000E+00  0.00000000000E+00  0.45593999997E+02  0.45594000000E+02  0.51100000000E-03 0. -1.
         11   -1    0    0    0    0 -0.00000000000E+00 -0.00000000000E+00 -0.45593999997E+02  0.45594000000E+02  0.51100000000E-03 0.  1.
    9900012    2    1    2    0    0 -0.36359152433E+02  0.22527600251E+02 -0.73582040178E+01  0.47787263772E+02  0.19999966844E+02 0.  0.
         12    1    1    2    0    0  0.36359152433E+02 -0.22527600251E+02  0.73582040178E+01  0.43400736228E+02  0.00000000000E+00 0. -1.
         11    1    3    3    0    0 -0.10020855653E+02  0.11072956922E+02 -0.12556776619E+01  0.14986815862E+02  0.51100000000E-03 0. -1.
        -11    1    3    3    0    0 -0.25229716386E+02  0.53513803716E+01 -0.64576655994E+01  0.26587164311E+02  0.51100000000E-03 0.  1.
         12    1    3    3    0    0 -0.11085803938E+01  0.61032629573E+01  0.35513924348E+00  0.62132836003E+01  0.00000000000E+00 0. -1.
</event>
<event>
 7    1  0.1418970E-010  0.4778728E+02  0.7816164E-02  0.1312668E+00
        -11   -1    0    0    0    0  0.00000000000E+00  0.00000000000E+00  0.45593999997E+02  0.45594000000E+02  0.51100000000E-03 0.  1.
         11   -1    0    0    0    0 -0.00000000000E+00 -0.00000000000E+00 -0.45593999997E+02  0.45594000000E+02  0.51100000000E-03 0. -1.
    9900012    2    1    2    0    0  0.19970677842E+02  0.24701299718E+02  0.29574322509E+02  0.47787277274E+02  0.20000028405E+02 0.  0.
         12    1    1    2    0    0 -0.19970677842E+02 -0.24701299718E+02 -0.29574322509E+02  0.43400722726E+02  0.00000000000E+00 0. -1.
         11    1    3    3    0    0  0.97550494741E+01 -0.37607777148E+00  0.57887128146E+01  0.11349520741E+02  0.51100000000E-03 0. -1.
        -11    1    3    3    0    0  0.72821983307E+01  0.11227173719E+02  0.10319927957E+02  0.16899134757E+02  0.51100000000E-03 0.  1.
         12    1    3    3    0    0  0.29334300374E+01  0.13850203770E+02  0.13465681738E+02  0.19538621776E+02  0.00000000000E+00 0. -1.
</event>
<event>
 7    1  0.1418970E-010  0.4778727E+02  0.7816164E-02  0.1312668E+00
        -11   -1    0    0    0    0  0.00000000000E+00  0.00000000000E+00  0.45593999997E+02  0.45594000000E+02  0.51100000000E-03 0. -1.
         11   -1    0    0    0    0 -0.00000000000E+00 -0.00000000000E+00 -0.45593999997E+02  0.45594000000E+02  0.51100000000E-03 0.  1.
    9900012    2    1    2    0    0  0.20598107196E+02  0.31544947371E+02  0.21546642386E+02  0.47787268177E+02  0.19999986925E+02 0.  0.
         12    1    1    2    0    0 -0.20598107196E+02 -0.31544947371E+02 -0.21546642386E+02  0.43400731823E+02  0.00000000000E+00 0. -1.
         11    1    3    3    0    0  0.86623088552E+01  0.18671483981E+02  0.12528419239E+02  0.24096082621E+02  0.51100000000E-03 0.  1.
        -11    1    3    3    0    0  0.43477474977E+01  0.23800125773E+01  0.95187990368E+01  0.10731957116E+02  0.51100000000E-03 0. -1.
         12    1    3    3    0    0  0.75880508430E+01  0.10493450812E+02 -0.50057588982E+00  0.12959228440E+02  0.00000000000E+00 0. -1.
</event>
<event>
 7    1  0.1418970E-010  0.4778728E+02  0.7816164E-02  0.1312668E+00
        -11   -1    0    0    0    0  0.00000000000E+00  0.00000000000E+00  0.45593999997E+02  0.45594000000E+02  0.51100000000E-03 0.  1.
         11   -1    0    0    0    0 -0.00000000000E+00 -0.00000000000E+00 -0.45593999997E+02  0.45594000000E+02  0.51100000000E-03 0. -1.
    9900012    2    1    2    0    0 -0.16269343987E+02 -0.91939398912E+01  0.39171454200E+02  0.47787275252E+02  0.20000019184E+02 0.  0.
         12    1    1    2    0    0  0.16269343987E+02  0.91939398912E+01 -0.39171454200E+02  0.43400724748E+02  0.00000000000E+00 0. -1.
         11    1    3    3    0    0 -0.41337622061E+01  0.51297986765E+01  0.40216911137E+01  0.77186024715E+01  0.51100000000E-03 0. -1.
        -11    1    3    3    0    0 -0.50298423754E+01 -0.63805997610E+01  0.19599011893E+02  0.21216329444E+02  0.51100000000E-03 0.  1.
         12    1    3    3    0    0 -0.71057394054E+01 -0.79431388068E+01  0.15550751193E+02  0.18852343337E+02  0.00000000000E+00 0. -1.
</event>
<event>
 7    1  0.1418970E-010  0.4778727E+02  0.7816164E-02  0.1312668E+00
        -11   -1    0    0    0    0  0.00000000000E+00  0.00000000000E+00  0.45593999997E+02  0.45594000000E+02  0.51100000000E-03 0.  1.
         11   -1    0    0    0    0 -0.00000000000E+00 -0.00000000000E+00 -0.45593999997E+02  0.45594000000E+02  0.51100000000E-03 0. -1.
    9900012    2    1    2    0    0  0.16040850570E+02  0.63291336647E+01  0.39827833278E+02  0.47787272776E+02  0.20000007896E+02 0.  0.
         12    1    1    2    0    0 -0.16040850570E+02 -0.63291336647E+01 -0.39827833278E+02  0.43400727224E+02  0.00000000000E+00 0. -1.
         11    1    3    3    0    0  0.21271051392E+01  0.35743206827E+01 -0.88612166725E+00  0.42527116627E+01  0.51100000000E-03 0. -1.
        -11    1    3    3    0    0  0.84530106026E+01  0.23819691783E+01  0.16307864260E+02  0.18522246149E+02  0.51100000000E-03 0.  1.
        -12    1    3    3    0    0  0.54607348282E+01  0.37284380367E+00  0.24406090685E+02  0.25012314965E+02  0.00000000000E+00 0.  1.
</event>
<event>
 7    1  0.1418970E-010  0.4778727E+02  0.7816164E-02  0.1312668E+00
        -11   -1    0    0    0    0  0.00000000000E+00  0.00000000000E+00  0.45593999997E+02  0.45594000000E+02  0.51100000000E-03 0.  1.
         11   -1    0    0    0    0 -0.00000000000E+00 -0.00000000000E+00 -0.45593999997E+02  0.45594000000E+02  0.51100000000E-03 0. -1.
    9900012    2    1    2    0    0  0.19511851871E+02 -0.28215111994E+02  0.26586053811E+02  0.47787272293E+02  0.20000005693E+02 0.  0.
         12    1    1    2    0    0 -0.19511851871E+02  0.28215111994E+02 -0.26586053811E+02  0.43400727707E+02  0.00000000000E+00 0. -1.
         11    1    3    3    0    0  0.16348823949E+02 -0.17863596229E+02  0.16783729142E+02  0.29463293755E+02  0.51100000000E-03 0. -1.
        -11    1    3    3    0    0  0.61626641707E+01 -0.34146423223E+01  0.17073066699E+01  0.72493522604E+01  0.51100000000E-03 0.  1.
         12    1    3    3    0    0 -0.29996362484E+01 -0.69368734428E+01  0.80950179984E+01  0.11074626277E+02  0.00000000000E+00 0. -1.
</event>
<event>
 7    1  0.1418970E-010  0.4778727E+02  0.7816164E-02  0.1312668E+00
        -11   -1    0    0    0    0  0.00000000000E+00  0.00000000000E+00  0.45593999997E+02  0.45594000000E+02  0.51100000000E-03 0.  1.
         11   -1    0    0    0    0 -0.00000000000E+00 -0.00000000000E+00 -0.45593999997E+02  0.45594000000E+02  0.51100000000E-03 0. -1.
    9900012    2    1    2    0    0 -0.35627908667E+02  0.23436042833E+02  0.80639476926E+01  0.47787271527E+02  0.20000002198E+02 0.  0.
         12    1    1    2    0    0  0.35627908667E+02 -0.23436042833E+02 -0.80639476926E+01  0.43400728473E+02  0.00000000000E+00 0. -1.
         11    1    3    3    0    0 -0.18738595409E+02  0.10726986014E+02 -0.14000054801E+01  0.21637079342E+02  0.51100000000E-03 0. -1.
        -11    1    3    3    0    0 -0.13615773432E+02  0.10628965876E+02  0.15570411309E+01  0.17343257453E+02  0.51100000000E-03 0.  1.
        -12    1    3    3    0    0 -0.32735398257E+01  0.20800909427E+01  0.79069120418E+01  0.88069347311E+01  0.00000000000E+00 0.  1.
</event>
<event>
 7    1  0.1418970E-010  0.4778727E+02  0.7816164E-02  0.1312668E+00
        -11   -1    0    0    0    0  0.00000000000E+00  0.00000000000E+00  0.45593999997E+02  0.45594000000E+02  0.51100000000E-03 0. -1.
         11   -1    0    0    0    0 -0.00000000000E+00 -0.00000000000E+00 -0.45593999997E+02  0.45594000000E+02  0.51100000000E-03 0.  1.
    9900012    2    1    2    0    0  0.11243494000E+02 -0.19627727672E+02 -0.37039971736E+02  0.47787270085E+02  0.19999995626E+02 0.  0.
         12    1    1    2    0    0 -0.11243494000E+02  0.19627727672E+02  0.37039971736E+02  0.43400729915E+02  0.00000000000E+00 0. -1.
         11    1    3    3    0    0  0.62879741946E+01 -0.42352895799E+01 -0.15996403014E+02  0.17702011381E+02  0.51100000000E-03 0. -1.
        -11    1    3    3    0    0  0.78734507979E+01 -0.38513294594E+01 -0.49458379389E+01  0.10064058786E+02  0.51100000000E-03 0.  1.
        -12    1    3    3    0    0 -0.29179309925E+01 -0.11541108633E+02 -0.16097730784E+02  0.20021199918E+02  0.00000000000E+00 0.  1.
</event>
<event>
 7    1  0.1418970E-010  0.4778727E+02  0.7816164E-02  0.1312668E+00
        -11   -1    0    0    0    0  0.00000000000E+00  0.00000000000E+00  0.45593999997E+02  0.45594000000E+02  0.51100000000E-03 0.  1.
         11   -1    0    0    0    0 -0.00000000000E+00 -0.00000000000E+00 -0.45593999997E+02  0.45594000000E+02  0.51100000000E-03 0. -1.
    9900012    2    1    2    0    0  0.31580182373E+02 -0.17762845239E+02  0.23891356293E+02  0.47787268494E+02  0.19999988372E+02 0.  0.
         12    1    1    2    0    0 -0.31580182373E+02  0.17762845239E+02 -0.23891356293E+02  0.43400731506E+02  0.00000000000E+00 0. -1.
         11    1    3    3    0    0  0.58895126999E+01 -0.64238596786E+01  0.15131159260E+02  0.17461509495E+02  0.51100000000E-03 0.  1.
        -11    1    3    3    0    0  0.13160389275E+02 -0.97987872115E+01  0.48498702219E+01  0.17109451134E+02  0.51100000000E-03 0. -1.
         12    1    3    3    0    0  0.12530280399E+02 -0.15401983488E+01  0.39103268109E+01  0.13216307865E+02  0.00000000000E+00 0. -1.
</event>
<event>
 7    1  0.1418970E-010  0.4778727E+02  0.7816164E-02  0.1312668E+00
        -11   -1    0    0    0    0  0.00000000000E+00  0.00000000000E+00  0.45593999997E+02  0.45594000000E+02  0.51100000000E-03 0. -1.
         11   -1    0    0    0    0 -0.00000000000E+00 -0.00000000000E+00 -0.45593999997E+02  0.45594000000E+02  0.51100000000E-03 0.  1.
    9900012    2    1    2    0    0 -0.11122457239E+02  0.41856752906E+02 -0.28153423525E+01  0.47787274529E+02  0.20000015886E+02 0.  0.
         12    1    1    2    0    0  0.11122457239E+02 -0.41856752906E+02  0.28153423525E+01  0.43400725471E+02  0.00000000000E+00 0. -1.
         11    1    3    3    0    0 -0.57683991212E+00  0.20878654557E+01 -0.32063395890E+01  0.38694366859E+01  0.51100000000E-03 0. -1.
        -11    1    3    3    0    0 -0.13214178029E+02  0.38891960450E+02 -0.43023333185E-01  0.41075551608E+02  0.51100000000E-03 0.  1.
        -12    1    3    3    0    0  0.26685607020E+01  0.87692699990E+00  0.43402056962E+00  0.28422862344E+01  0.00000000000E+00 0.  1.
</event>
<event>
 7    1  0.1418970E-010  0.4778727E+02  0.7816164E-02  0.1312668E+00
        -11   -1    0    0    0    0  0.00000000000E+00  0.00000000000E+00  0.45593999997E+02  0.45594000000E+02  0.51100000000E-03 0.  1.
         11   -1    0    0    0    0 -0.00000000000E+00 -0.00000000000E+00 -0.45593999997E+02  0.45594000000E+02  0.51100000000E-03 0. -1.
    9900012    2    1    2    0    0  0.15541860340E+02 -0.37289098991E+02 -0.15861812385E+02  0.47787269378E+02  0.19999992401E+02 0.  0.
         12    1    1    2    0    0 -0.15541860340E+02  0.37289098991E+02  0.15861812385E+02  0.43400730622E+02  0.00000000000E+00 0. -1.
         11    1    3    3    0    0  0.57088932958E+01 -0.26903218608E+01 -0.87666616015E+01  0.10802020657E+02  0.51100000000E-03 0. -1.
        -11    1    3    3    0    0  0.13363122238E+01 -0.85457565904E+01  0.11011787272E+00  0.86503070621E+01  0.51100000000E-03 0.  1.
        -12    1    3    3    0    0  0.84966548208E+01 -0.26053020540E+02 -0.72052686567E+01  0.28334941659E+02  0.00000000000E+00 0.  1.
</event>
<event>
 7    1  0.1418970E-010  0.4778727E+02  0.7816164E-02  0.1312668E+00
        -11   -1    0    0    0    0  0.00000000000E+00  0.00000000000E+00  0.45593999997E+02  0.45594000000E+02  0.51100000000E-03 0. -1.
         11   -1    0    0    0    0 -0.00000000000E+00 -0.00000000000E+00 -0.45593999997E+02  0.45594000000E+02  0.51100000000E-03 0.  1.
    9900012    2    1    2    0    0 -0.87095374453E+01  0.31181763965E+02 -0.28904409447E+02  0.47787270375E+02  0.19999996949E+02 0.  0.
         12    1    1    2    0    0  0.87095374453E+01 -0.31181763965E+02  0.28904409447E+02  0.43400729625E+02  0.00000000000E+00 0. -1.
         11    1    3    3    0    0  0.21509611901E+01  0.24534656028E+01  0.13011347074E+01  0.35127025626E+01  0.51100000000E-03 0. -1.
        -11    1    3    3    0    0 -0.43664779172E+01  0.59899183824E+01 -0.13229396072E+02  0.15164503695E+02  0.51100000000E-03 0.  1.
        -12    1    3    3    0    0 -0.64940207182E+01  0.22738379980E+02 -0.16976148082E+02  0.29110064117E+02  0.00000000000E+00 0.  1.
</event>
<event>
 7    1  0.1418970E-010  0.4778727E+02  0.7816164E-02  0.1312668E+00
        -11   -1    0    0    0    0  0.00000000000E+00  0.00000000000E+00  0.45593999997E+02  0.45594000000E+02  0.51100000000E-03 0.  1.
         11   -1    0    0    0    0 -0.00000000000E+00 -0.00000000000E+00 -0.45593999997E+02  0.45594000000E+02  0.51100000000E-03 0. -1.
    9900012    2    1    2    0    0 -0.30812798465E+02  0.23518775120E+02  0.19520811584E+02  0.47787269392E+02  0.19999992467E+02 0.  0.
         12    1    1    2    0    0  0.30812798465E+02 -0.23518775120E+02 -0.19520811584E+02  0.43400730608E+02  0.00000000000E+00 0. -1.
         11    1    3    3    0    0 -0.14922112581E+02  0.13734162849E+02 -0.18369787412E+00  0.20281282460E+02  0.51100000000E-03 0. -1.
        -11    1    3    3    0    0 -0.58991917274E+01  0.14469084013E+01  0.76425936756E+01  0.97623381067E+01  0.51100000000E-03 0.  1.
         12    1    3    3    0    0 -0.99914941562E+01  0.83377038690E+01  0.12061915783E+02  0.17743648825E+02  0.00000000000E+00 0. -1.
</event>
<event>
 7    1  0.1418970E-010  0.4778727E+02  0.7816164E-02  0.1312668E+00
        -11   -1    0    0    0    0  0.00000000000E+00  0.00000000000E+00  0.45593999997E+02  0.45594000000E+02  0.51100000000E-03 0.  1.
         11   -1    0    0    0    0 -0.00000000000E+00 -0.00000000000E+00 -0.45593999997E+02  0.45594000000E+02  0.51100000000E-03 0. -1.
    9900012    2    1    2    0    0 -0.38001230091E+02 -0.19938067353E+02  0.64809999453E+01  0.47787269839E+02  0.19999994505E+02 0.  0.
         12    1    1    2    0    0  0.38001230091E+02  0.19938067353E+02 -0.64809999453E+01  0.43400730161E+02  0.00000000000E+00 0. -1.
         11    1    3    3    0    0 -0.38321256554E+01  0.56417620840E+00 -0.22668355074E+01  0.44879867772E+01  0.51100000000E-03 0. -1.
        -11    1    3    3    0    0 -0.45983178553E+01  0.22000799999E+01  0.54005140236E+00  0.51260642683E+01  0.51100000000E-03 0.  1.
        -12    1    3    3    0    0 -0.29570786581E+02 -0.22702323561E+02  0.82077840503E+01  0.38173218794E+02  0.00000000000E+00 0.  1.
</event>
<event>
 7    1  0.1712434E-010  0.4778727E+02  0.7816164E-02  0.1312668E+00
        -11   -1    0    0    0    0  0.00000000000E+00  0.00000000000E+00  0.45593999997E+02  0.45594000000E+02  0.51100000000E-03 0.  1.
         11   -1    0    0    0    0 -0.00000000000E+00 -0.00000000000E+00 -0.45593999997E+02  0.45594000000E+02  0.51100000000E-03 0. -1.
    9900012    2    1    2    0    0 -0.19176753781E+02 -0.37564691773E+02  0.10235675904E+02  0.47787274029E+02  0.20000013610E+02 0.  0.
         12    1    1    2    0    0  0.19176753781E+02  0.37564691773E+02 -0.10235675904E+02  0.43400725971E+02  0.00000000000E+00 0. -1.
         11    1    3    3    0    0  0.11117195284E+00  0.20429488273E+01  0.14359347546E+01  0.24995815639E+01  0.51100000000E-03 0. -1.
        -11    1    3    3    0    0 -0.89433471482E+01 -0.12426349823E+02  0.38444828699E+01  0.15785362743E+02  0.51100000000E-03 0.  1.
         12    1    3    3    0    0 -0.10344578586E+02 -0.27181290777E+02  0.49552582797E+01  0.29502329723E+02  0.00000000000E+00 0. -1.
</event>
<event>
 7    1  0.1418970E-010  0.4778727E+02  0.7816164E-02  0.1312668E+00
        -11   -1    0    0    0    0  0.00000000000E+00  0.00000000000E+00  0.45593999997E+02  0.45594000000E+02  0.51100000000E-03 0. -1.
         11   -1    0    0    0    0 -0.00000000000E+00 -0.00000000000E+00 -0.45593999997E+02  0.45594000000E+02  0.51100000000E-03 0.  1.
    9900012    2    1    2    0    0 -0.33880957656E+02 -0.11273905807E+02 -0.24669879418E+02  0.47787271961E+02  0.20000004178E+02 0.  0.
         12    1    1    2    0    0  0.33880957656E+02  0.11273905807E+02  0.24669879418E+02  0.43400728039E+02  0.00000000000E+00 0. -1.
         11    1    3    3    0    0 -0.73996807909E+01  0.23756374123E+00 -0.62243701488E+01  0.96723573316E+01  0.51100000000E-03 0. -1.
        -11    1    3    3    0    0 -0.24865353237E+02 -0.85413202165E+01 -0.21183898536E+02  0.33763849012E+02  0.51100000000E-03 0.  1.
         12    1    3    3    0    0 -0.16159236286E+01 -0.29701493319E+01  0.27383892676E+01  0.43510656175E+01  0.00000000000E+00 0. -1.
</event>
<event>
 7    1  0.1418970E-010  0.4778727E+02  0.7816164E-02  0.1312668E+00
        -11   -1    0    0    0    0  0.00000000000E+00  0.00000000000E+00  0.45593999997E+02  0.45594000000E+02  0.51100000000E-03 0.  1.
         11   -1    0    0    0    0 -0.00000000000E+00 -0.00000000000E+00 -0.45593999997E+02  0.45594000000E+02  0.51100000000E-03 0. -1.
    9900012    2    1    2    0    0  0.75639392598E+01  0.36075283308E+02  0.22912526620E+02  0.47787272829E+02  0.20000008137E+02 0.  0.
         12    1    1    2    0    0 -0.75639392598E+01 -0.36075283308E+02 -0.22912526620E+02  0.43400727171E+02  0.00000000000E+00 0. -1.
         11    1    3    3    0    0 -0.15095453943E+01  0.24080034754E+02  0.67672631085E+01  0.25058384850E+02  0.51100000000E-03 0. -1.
        -11    1    3    3    0    0  0.22675830415E+01  0.67467490834E+01  0.94696150353E+01  0.11846272208E+02  0.51100000000E-03 0.  1.
         12    1    3    3    0    0  0.68059016126E+01  0.52484994703E+01  0.66756484758E+01  0.10882615771E+02  0.00000000000E+00 0. -1.
</event>
<event>
 7    1  0.1418970E-010  0.4778727E+02  0.7816164E-02  0.1312668E+00
        -11   -1    0    0    0    0  0.00000000000E+00  0.00000000000E+00  0.45593999997E+02  0.45594000000E+02  0.51100000000E-03 0.  1.
         11   -1    0    0    0    0 -0.00000000000E+00 -0.00000000000E+00 -0.45593999997E+02  0.45594000000E+02  0.51100000000E-03 0. -1.
    9900012    2    1    2    0    0 -0.19283793829E+02  0.38774716836E+02 -0.28775200765E+01  0.47787268532E+02  0.19999988543E+02 0.  0.
         12    1    1    2    0    0  0.19283793829E+02 -0.38774716836E+02  0.28775200765E+01  0.43400731468E+02  0.00000000000E+00 0. -1.
         11    1    3    3    0    0 -0.10652309454E+02  0.15804514282E+02 -0.50351432434E+01  0.19713118377E+02  0.51100000000E-03 0. -1.
        -11    1    3    3    0    0 -0.10756125343E+02  0.21984795388E+02 -0.56664047147E+00  0.24481555146E+02  0.51100000000E-03 0.  1.
         12    1    3    3    0    0  0.21246409683E+01  0.98540716644E+00  0.27242636384E+01  0.35925950091E+01  0.00000000000E+00 0. -1.
</event>
<event>
 7    1  0.1418970E-010  0.4778728E+02  0.7816164E-02  0.1312668E+00
        -11   -1    0    0    0    0  0.00000000000E+00  0.00000000000E+00  0.45593999997E+02  0.45594000000E+02  0.51100000000E-03 0.  1.
         11   -1    0    0    0    0 -0.00000000000E+00 -0.00000000000E+00 -0.45593999997E+02  0.45594000000E+02  0.51100000000E-03 0. -1.
    9900012    2    1    2    0    0 -0.16527174385E+02  0.78460742514E+01  0.39356246302E+02  0.47787279991E+02  0.20000040790E+02 0.  0.
         12    1    1    2    0    0  0.16527174385E+02 -0.78460742514E+01 -0.39356246302E+02  0.43400720009E+02  0.00000000000E+00 0. -1.
         11    1    3    3    0    0 -0.98081281784E+01 -0.39054944979E+01  0.11880551716E+02  0.15893387775E+02  0.51100000000E-03 0. -1.
        -11    1    3    3    0    0 -0.87886222397E+01  0.89291079635E+01  0.23214930737E+02  0.26379951844E+02  0.51100000000E-03 0.  1.
        -12    1    3    3    0    0  0.20695760333E+01  0.28224607857E+01  0.42607638488E+01  0.55139403714E+01  0.00000000000E+00 0.  1.
</event>
<event>
 7    1  0.1418970E-010  0.4778728E+02  0.7816164E-02  0.1312668E+00
        -11   -1    0    0    0    0  0.00000000000E+00  0.00000000000E+00  0.45593999997E+02  0.45594000000E+02  0.51100000000E-03 0.  1.
         11   -1    0    0    0    0 -0.00000000000E+00 -0.00000000000E+00 -0.45593999997E+02  0.45594000000E+02  0.51100000000E-03 0. -1.
    9900012    2    1    2    0    0 -0.11646168976E+02  0.10443431118E+02  0.40483630440E+02  0.47787276055E+02  0.20000022847E+02 0.  0.
         12    1    1    2    0    0  0.11646168976E+02 -0.10443431118E+02 -0.40483630440E+02  0.43400723945E+02  0.00000000000E+00 0. -1.
         11    1    3    3    0    0  0.20503723691E+01  0.68452116738E+01  0.69005497020E+01  0.99337070704E+01  0.51100000000E-03 0. -1.
        -11    1    3    3    0    0 -0.87800853842E+01  0.69269080371E+01  0.18163157056E+02  0.21330078031E+02  0.51100000000E-03 0.  1.
        -12    1    3    3    0    0 -0.49164559608E+01 -0.33286885924E+01  0.15419923681E+02  0.16523490954E+02  0.00000000000E+00 0.  1.
</event>
<event>
 7    1  0.1418970E-010  0.4778727E+02  0.7816164E-02  0.1312668E+00
        -11   -1    0    0    0    0  0.00000000000E+00  0.00000000000E+00  0.45593999997E+02  0.45594000000E+02  0.51100000000E-03 0. -1.
         11   -1    0    0    0    0 -0.00000000000E+00 -0.00000000000E+00 -0.45593999997E+02  0.45594000000E+02  0.51100000000E-03 0.  1.
    9900012    2    1    2    0    0  0.43239187935E+02  0.22271014284E+01  0.30059437139E+01  0.47787273604E+02  0.20000011671E+02 0.  0.
         12    1    1    2    0    0 -0.43239187935E+02 -0.22271014284E+01 -0.30059437139E+01  0.43400726396E+02  0.00000000000E+00 0. -1.
         11    1    3    3    0    0  0.12011691920E+02  0.73879989412E+01  0.52345650301E+01  0.15042072412E+02  0.51100000000E-03 0. -1.
        -11    1    3    3    0    0  0.14512018816E+02 -0.56473220712E+01  0.13952295482E+01  0.15634500390E+02  0.51100000000E-03 0.  1.
        -12    1    3    3    0    0  0.16715477199E+02  0.48642455839E+00 -0.36238508644E+01  0.17110700802E+02  0.00000000000E+00 0.  1.
</event>
<event>
 7    1  0.1418970E-010  0.4778727E+02  0.7816164E-02  0.1312668E+00
        -11   -1    0    0    0    0  0.00000000000E+00  0.00000000000E+00  0.45593999997E+02  0.45594000000E+02  0.51100000000E-03 0.  1.
         11   -1    0    0    0    0 -0.00000000000E+00 -0.00000000000E+00 -0.45593999997E+02  0.45594000000E+02  0.51100000000E-03 0. -1.
    9900012    2    1    2    0    0 -0.16326355962E+02 -0.37151854951E+02 -0.15388731000E+02  0.47787271122E+02  0.20000000354E+02 0.  0.
         12    1    1    2    0    0  0.16326355962E+02  0.37151854951E+02  0.15388731000E+02  0.43400728878E+02  0.00000000000E+00 0. -1.
         11    1    3    3    0    0 -0.11446543430E+02 -0.15795273526E+02 -0.29047685829E+01  0.19721858509E+02  0.51100000000E-03 0.  1.
        -11    1    3    3    0    0  0.28387146545E+01 -0.30769664073E+01  0.69700812296E+00  0.42440362564E+01  0.51100000000E-03 0. -1.
         12    1    3    3    0    0 -0.77185271868E+01 -0.18279615018E+02 -0.13180970540E+02  0.23821376356E+02  0.00000000000E+00 0. -1.
</event>
<event>
 7    1  0.1418970E-010  0.4778727E+02  0.7816164E-02  0.1312668E+00
        -11   -1    0    0    0    0  0.00000000000E+00  0.00000000000E+00  0.45593999997E+02  0.45594000000E+02  0.51100000000E-03 0.  1.
         11   -1    0    0    0    0 -0.00000000000E+00 -0.00000000000E+00 -0.45593999997E+02  0.45594000000E+02  0.51100000000E-03 0. -1.
    9900012    2    1    2    0    0  0.38614080698E+02  0.17133604645E+02 -0.99506490183E+01  0.47787273598E+02  0.20000011643E+02 0.  0.
         12    1    1    2    0    0 -0.38614080698E+02 -0.17133604645E+02  0.99506490183E+01  0.43400726402E+02  0.00000000000E+00 0. -1.
         11    1    3    3    0    0  0.35070202313E+00 -0.30398004897E+00 -0.27007173378E+01  0.27403047603E+01  0.51100000000E-03 0. -1.
        -11    1    3    3    0    0  0.71021378117E+01 -0.24250213252E+01 -0.10764459947E+01  0.75815451040E+01  0.51100000000E-03 0.  1.
        -12    1    3    3    0    0  0.31161240864E+02  0.19862606020E+02 -0.61734856858E+01  0.37465423734E+02  0.00000000000E+00 0.  1.
</event>
<event>
 7    1  0.1418970E-010  0.4778728E+02  0.7816164E-02  0.1312668E+00
        -11   -1    0    0    0    0  0.00000000000E+00  0.00000000000E+00  0.45593999997E+02  0.45594000000E+02  0.51100000000E-03 0. -1.
         11   -1    0    0    0    0 -0.00000000000E+00 -0.00000000000E+00 -0.45593999997E+02  0.45594000000E+02  0.51100000000E-03 0.  1.
    9900012    2    1    2    0    0 -0.28897582924E+01  0.42725510320E+02  0.70570735876E+01  0.47787283154E+02  0.20000055213E+02 0.  0.
         12    1    1    2    0    0  0.28897582924E+01 -0.42725510320E+02 -0.70570735876E+01  0.43400716846E+02  0.00000000000E+00 0. -1.
         11    1    3    3    0    0  0.19109809603E+01  0.21177329589E+01 -0.33482465229E+01  0.43985675117E+01  0.51100000000E-03 0. -1.
        -11    1    3    3    0    0  0.20712202450E+01  0.24555598166E+02  0.54560646742E+01  0.25239572036E+02  0.51100000000E-03 0.  1.
        -12    1    3    3    0    0 -0.68719594977E+01  0.16052179196E+02  0.49492554362E+01  0.18149143606E+02  0.00000000000E+00 0.  1.
</event>
<event>
 7    1  0.1418970E-010  0.4778726E+02  0.7816164E-02  0.1312668E+00
        -11   -1    0    0    0    0  0.00000000000E+00  0.00000000000E+00  0.45593999997E+02  0.45594000000E+02  0.51100000000E-03 0. -1.
         11   -1    0    0    0    0 -0.00000000000E+00 -0.00000000000E+00 -0.45593999997E+02  0.45594000000E+02  0.51100000000E-03 0.  1.
    9900012    2    1    2    0    0  0.28991739169E+02  0.24824901192E+02 -0.20659796139E+02  0.47787264572E+02  0.19999970489E+02 0.  0.
         12    1    1    2    0    0 -0.28991739169E+02 -0.24824901192E+02  0.20659796139E+02  0.43400735428E+02  0.00000000000E+00 0. -1.
         11    1    3    3    0    0  0.14219926396E+02  0.10013081392E+02 -0.10258528918E+02  0.20191719132E+02  0.51100000000E-03 0. -1.
        -11    1    3    3    0    0  0.63865972730E+00  0.14951209082E+01 -0.78423559048E+01  0.80091085132E+01  0.51100000000E-03 0.  1.
         12    1    3    3    0    0  0.14133153045E+02  0.13316698892E+02 -0.25589113160E+01  0.19586436927E+02  0.00000000000E+00 0. -1.
</event>
<event>
 7    1  0.1418970E-010  0.4778727E+02  0.7816164E-02  0.1312668E+00
        -11   -1    0    0    0    0  0.00000000000E+00  0.00000000000E+00  0.45593999997E+02  0.45594000000E+02  0.51100000000E-03 0.  1.
         11   -1    0    0    0    0 -0.00000000000E+00 -0.00000000000E+00 -0.45593999997E+02  0.45594000000E+02  0.51100000000E-03 0. -1.
    9900012    2    1    2    0    0  0.14631964118E+02  0.61565671196E+01  0.40393387623E+02  0.47787268943E+02  0.19999990417E+02 0.  0.
         12    1    1    2    0    0 -0.14631964118E+02 -0.61565671196E+01 -0.40393387623E+02  0.43400731057E+02  0.00000000000E+00 0. -1.
         11    1    3    3    0    0  0.91627183937E+01 -0.23106142384E+01  0.34741601293E+02  0.36003794345E+02  0.51100000000E-03 0. -1.
        -11    1    3    3    0    0  0.52540613151E+00  0.26432594427E+01  0.13096858351E+01  0.29963560089E+01  0.51100000000E-03 0.  1.
         12    1    3    3    0    0  0.49438395929E+01  0.58239219153E+01  0.43421004946E+01  0.87871185892E+01  0.00000000000E+00 0. -1.
</event>
<event>
 7    1  0.1418970E-010  0.4778727E+02  0.7816164E-02  0.1312668E+00
        -11   -1    0    0    0    0  0.00000000000E+00  0.00000000000E+00  0.45593999997E+02  0.45594000000E+02  0.51100000000E-03 0.  1.
         11   -1    0    0    0    0 -0.00000000000E+00 -0.00000000000E+00 -0.45593999997E+02  0.45594000000E+02  0.51100000000E-03 0. -1.
    9900012    2    1    2    0    0 -0.19932310625E+02 -0.18832490256E+02  0.33640213484E+02  0.47787266603E+02  0.19999979751E+02 0.  0.
         12    1    1    2    0    0  0.19932310625E+02  0.18832490256E+02 -0.33640213484E+02  0.43400733397E+02  0.00000000000E+00 0. -1.
         11    1    3    3    0    0  0.10483168102E+01  0.80206759057E+00 -0.19972883529E+00  0.13349803082E+01  0.51100000000E-03 0. -1.
        -11    1    3    3    0    0 -0.15838430326E+02 -0.12654683541E+02  0.13540749570E+02  0.24379269675E+02  0.51100000000E-03 0.  1.
         12    1    3    3    0    0 -0.51421971095E+01 -0.69798743062E+01  0.20299192749E+02  0.22073016620E+02  0.00000000000E+00 0. -1.
</event>
<event>
 7    1  0.1418970E-010  0.4778727E+02  0.7816164E-02  0.1312668E+00
        -11   -1    0    0    0    0  0.00000000000E+00  0.00000000000E+00  0.45593999997E+02  0.45594000000E+02  0.51100000000E-03 0. -1.
         11   -1    0    0    0    0 -0.00000000000E+00 -0.00000000000E+00 -0.45593999997E+02  0.45594000000E+02  0.51100000000E-03 0.  1.
    9900012    2    1    2    0    0 -0.29538247127E+02 -0.16173054229E+02 -0.27377862421E+02  0.47787273311E+02  0.20000010333E+02 0.  0.
         12    1    1    2    0    0  0.29538247127E+02  0.16173054229E+02  0.27377862421E+02  0.43400726689E+02  0.00000000000E+00 0. -1.
         11    1    3    3    0    0 -0.11679309483E+01 -0.52871892519E+01 -0.70463862097E+01  0.88865061617E+01  0.51100000000E-03 0. -1.
        -11    1    3    3    0    0 -0.10082603563E+02  0.26217847314E+01 -0.68666235764E+01  0.12477306175E+02  0.51100000000E-03 0.  1.
        -12    1    3    3    0    0 -0.18287712616E+02 -0.13507649709E+02 -0.13464852635E+02  0.26423460974E+02  0.00000000000E+00 0.  1.
</event>
<event>
 7    1  0.1418970E-010  0.4778727E+02  0.7816164E-02  0.1312668E+00
        -11   -1    0    0    0    0  0.00000000000E+00  0.00000000000E+00  0.45593999997E+02  0.45594000000E+02  0.51100000000E-03 0. -1.
         11   -1    0    0    0    0 -0.00000000000E+00 -0.00000000000E+00 -0.45593999997E+02  0.45594000000E+02  0.51100000000E-03 0.  1.
    9900012    2    1    2    0    0 -0.17875125886E+02  0.36096004243E+02 -0.16161115373E+02  0.47787270768E+02  0.19999998742E+02 0.  0.
         12    1    1    2    0    0  0.17875125886E+02 -0.36096004243E+02  0.16161115373E+02  0.43400729232E+02  0.00000000000E+00 0. -1.
         11    1    3    3    0    0 -0.63234628830E+01  0.10827022729E+02 -0.38681255444E+01  0.13121470935E+02  0.51100000000E-03 0.  1.
        -11    1    3    3    0    0  0.19619810827E+01 -0.12596900214E+01 -0.22635275229E+01  0.32495762535E+01  0.51100000000E-03 0. -1.
         12    1    3    3    0    0 -0.13513644085E+02  0.26528671535E+02 -0.10029462305E+02  0.31416223580E+02  0.00000000000E+00 0. -1.
</event>
<event>
 7    1  0.1418970E-010  0.4778727E+02  0.7816164E-02  0.1312668E+00
        -11   -1    0    0    0    0  0.00000000000E+00  0.00000000000E+00  0.45593999997E+02  0.45594000000E+02  0.51100000000E-03 0.  1.
         11   -1    0    0    0    0 -0.00000000000E+00 -0.00000000000E+00 -0.45593999997E+02  0.45594000000E+02  0.51100000000E-03 0. -1.
    9900012    2    1    2    0    0 -0.28495697625E+02  0.48280285598E+01  0.32377594270E+02  0.47787271277E+02  0.20000001061E+02 0.  0.
         12    1    1    2    0    0  0.28495697625E+02 -0.48280285598E+01 -0.32377594270E+02  0.43400728723E+02  0.00000000000E+00 0. -1.
         11    1    3    3    0    0 -0.16475836521E+02  0.76564156883E+01  0.23139568542E+02  0.29419611194E+02  0.51100000000E-03 0. -1.
        -11    1    3    3    0    0 -0.58843592955E+01  0.23937460653E+01  0.33679148197E+00  0.63615354520E+01  0.51100000000E-03 0.  1.
        -12    1    3    3    0    0 -0.61355018089E+01 -0.52221331937E+01  0.89012342463E+01  0.12006124631E+02  0.00000000000E+00 0.  1.
</event>
<event>
 7    1  0.1418970E-010  0.4778728E+02  0.7816164E-02  0.1312668E+00
        -11   -1    0    0    0    0  0.00000000000E+00  0.00000000000E+00  0.45593999997E+02  0.45594000000E+02  0.51100000000E-03 0.  1.
         11   -1    0    0    0    0 -0.00000000000E+00 -0.00000000000E+00 -0.45593999997E+02  0.45594000000E+02  0.51100000000E-03 0. -1.
    9900012    2    1    2    0    0  0.85946802878E+01  0.39448027927E+02  0.15925056097E+02  0.47787275947E+02  0.20000022354E+02 0.  0.
         12    1    1    2    0    0 -0.85946802878E+01 -0.39448027927E+02 -0.15925056097E+02  0.43400724053E+02  0.00000000000E+00 0. -1.
         11    1    3    3    0    0  0.25513638097E+01  0.76840210518E+01  0.12702315693E+02  0.15063281882E+02  0.51100000000E-03 0. -1.
        -11    1    3    3    0    0  0.75421896735E+00  0.11038366095E+02 -0.17761208586E+00  0.11065528393E+02  0.51100000000E-03 0.  1.
         12    1    3    3    0    0  0.52890975107E+01  0.20725640780E+02  0.34003524892E+01  0.21658465673E+02  0.00000000000E+00 0. -1.
</event>
<event>
 7    1  0.1418970E-010  0.4778728E+02  0.7816164E-02  0.1312668E+00
        -11   -1    0    0    0    0  0.00000000000E+00  0.00000000000E+00  0.45593999997E+02  0.45594000000E+02  0.51100000000E-03 0.  1.
         11   -1    0    0    0    0 -0.00000000000E+00 -0.00000000000E+00 -0.45593999997E+02  0.45594000000E+02  0.51100000000E-03 0. -1.
    9900012    2    1    2    0    0  0.69170657289E+01  0.39652190607E+02  0.16232089718E+02  0.47787277024E+02  0.20000027262E+02 0.  0.
         12    1    1    2    0    0 -0.69170657289E+01 -0.39652190607E+02 -0.16232089718E+02  0.43400722976E+02  0.00000000000E+00 0. -1.
         11    1    3    3    0    0  0.11614183958E+02  0.28576434612E+02  0.95229274203E+01  0.32282937150E+02  0.51100000000E-03 0. -1.
        -11    1    3    3    0    0 -0.49887089103E-01  0.20293874307E+01  0.47246565640E+01  0.51423031780E+01  0.51100000000E-03 0.  1.
         12    1    3    3    0    0 -0.46472311398E+01  0.90463685646E+01  0.19845057334E+01  0.10362036695E+02  0.00000000000E+00 0. -1.
</event>
<event>
 7    1  0.1418970E-010  0.4778727E+02  0.7816164E-02  0.1312668E+00
        -11   -1    0    0    0    0  0.00000000000E+00  0.00000000000E+00  0.45593999997E+02  0.45594000000E+02  0.51100000000E-03 0.  1.
         11   -1    0    0    0    0 -0.00000000000E+00 -0.00000000000E+00 -0.45593999997E+02  0.45594000000E+02  0.51100000000E-03 0. -1.
    9900012    2    1    2    0    0  0.11489301325E+02 -0.34426851445E+02  0.23799396935E+02  0.47787269132E+02  0.19999991281E+02 0.  0.
         12    1    1    2    0    0 -0.11489301325E+02  0.34426851445E+02 -0.23799396935E+02  0.43400730868E+02  0.00000000000E+00 0. -1.
         11    1    3    3    0    0 -0.32185923190E+00 -0.10950746356E+02  0.81142133380E+01  0.13633154348E+02  0.51100000000E-03 0. -1.
        -11    1    3    3    0    0 -0.29332467877E+01 -0.11819471510E+01  0.36826326760E+01  0.48541445665E+01  0.51100000000E-03 0.  1.
         12    1    3    3    0    0  0.14744407345E+02 -0.22294157939E+02  0.12002550921E+02  0.29299970218E+02  0.00000000000E+00 0. -1.
</event>
<event>
 7    1  0.1418970E-010  0.4778727E+02  0.7816164E-02  0.1312668E+00
        -11   -1    0    0    0    0  0.00000000000E+00  0.00000000000E+00  0.45593999997E+02  0.45594000000E+02  0.51100000000E-03 0. -1.
         11   -1    0    0    0    0 -0.00000000000E+00 -0.00000000000E+00 -0.45593999997E+02  0.45594000000E+02  0.51100000000E-03 0.  1.
    9900012    2    1    2    0    0  0.40107308319E+02 -0.16583947377E+02 -0.12398002224E-01  0.47787266770E+02  0.19999980510E+02 0.  0.
         12    1    1    2    0    0 -0.40107308319E+02  0.16583947377E+02  0.12398002224E-01  0.43400733230E+02  0.00000000000E+00 0. -1.
         11    1    3    3    0    0  0.53865476834E+01  0.13200243200E+01  0.35412039048E+01  0.65800824848E+01  0.51100000000E-03 0. -1.
        -11    1    3    3    0    0  0.86679523390E+01 -0.47852338348E+01  0.46031904816E+01  0.10918847168E+02  0.51100000000E-03 0.  1.
        -12    1    3    3    0    0  0.26052808297E+02 -0.13118737862E+02 -0.81567923886E+01  0.30288337117E+02  0.00000000000E+00 0.  1.
</event>
<event>
 7    1  0.1418970E-010  0.4778728E+02  0.7816164E-02  0.1312668E+00
        -11   -1    0    0    0    0  0.00000000000E+00  0.00000000000E+00  0.45593999997E+02  0.45594000000E+02  0.51100000000E-03 0. -1.
         11   -1    0    0    0    0 -0.00000000000E+00 -0.00000000000E+00 -0.45593999997E+02  0.45594000000E+02  0.51100000000E-03 0.  1.
    9900012    2    1    2    0    0  0.12522965090E+02 -0.37343701948E+02 -0.18227607999E+02  0.47787280845E+02  0.20000044684E+02 0.  0.
         12    1    1    2    0    0 -0.12522965090E+02  0.37343701948E+02  0.18227607999E+02  0.43400719155E+02  0.00000000000E+00 0. -1.
         11    1    3    3    0    0 -0.26750308392E+01 -0.10411175010E+01 -0.15530412150E+01  0.32636870129E+01  0.51100000000E-03 0. -1.
        -11    1    3    3    0    0  0.36528335004E+01 -0.35950712837E+01 -0.66942740429E+01  0.84309569646E+01  0.51100000000E-03 0.  1.
        -12    1    3    3    0    0  0.11545162429E+02 -0.32707513163E+02 -0.99802927406E+01  0.36092636867E+02  0.00000000000E+00 0.  1.
</event>
<event>
 7    1  0.1418970E-010  0.4778727E+02  0.7816164E-02  0.1312668E+00
        -11   -1    0    0    0    0  0.00000000000E+00  0.00000000000E+00  0.45593999997E+02  0.45594000000E+02  0.51100000000E-03 0.  1.
         11   -1    0    0    0    0 -0.00000000000E+00 -0.00000000000E+00 -0.45593999997E+02  0.45594000000E+02  0.51100000000E-03 0. -1.
    9900012    2    1    2    0    0 -0.30248558547E+02 -0.13688381897E+02  0.27951315882E+02  0.47787272441E+02  0.20000006368E+02 0.  0.
         12    1    1    2    0    0  0.30248558547E+02  0.13688381897E+02 -0.27951315882E+02  0.43400727559E+02  0.00000000000E+00 0. -1.
         11    1    3    3    0    0 -0.31515706472E+01 -0.44179057671E+01  0.81774075879E+00  0.54880769966E+01  0.51100000000E-03 0. -1.
        -11    1    3    3    0    0 -0.16696046235E+01 -0.66323256703E+01  0.66759469120E+01  0.95573840997E+01  0.51100000000E-03 0.  1.
        -12    1    3    3    0    0 -0.25427383276E+02 -0.26381504601E+01  0.20457628211E+02  0.32741811345E+02  0.00000000000E+00 0.  1.
</event>
<event>
 7    1  0.1418970E-010  0.4778727E+02  0.7816164E-02  0.1312668E+00
        -11   -1    0    0    0    0  0.00000000000E+00  0.00000000000E+00  0.45593999997E+02  0.45594000000E+02  0.51100000000E-03 0.  1.
         11   -1    0    0    0    0 -0.00000000000E+00 -0.00000000000E+00 -0.45593999997E+02  0.45594000000E+02  0.51100000000E-03 0. -1.
    9900012    2    1    2    0    0 -0.23436930952E+02  0.14327428267E+02  0.33601470381E+02  0.47787265617E+02  0.19999975256E+02 0.  0.
         12    1    1    2    0    0  0.23436930952E+02 -0.14327428267E+02 -0.33601470381E+02  0.43400734383E+02  0.00000000000E+00 0. -1.
         11    1    3    3    0    0 -0.46706886834E+01  0.57239484623E+01  0.20733462086E+02  0.22010346865E+02  0.51100000000E-03 0. -1.
        -11    1    3    3    0    0 -0.36704684363E+01 -0.11908955559E+01  0.38861916087E+00  0.38783496336E+01  0.51100000000E-03 0.  1.
        -12    1    3    3    0    0 -0.15095773832E+02  0.97943753603E+01  0.12479389134E+02  0.21898569119E+02  0.00000000000E+00 0.  1.
</event>
<event>
 7    1  0.1418970E-010  0.4778728E+02  0.7816164E-02  0.1312668E+00
        -11   -1    0    0    0    0  0.00000000000E+00  0.00000000000E+00  0.45593999997E+02  0.45594000000E+02  0.51100000000E-03 0. -1.
         11   -1    0    0    0    0 -0.00000000000E+00 -0.00000000000E+00 -0.45593999997E+02  0.45594000000E+02  0.51100000000E-03 0.  1.
    9900012    2    1    2    0    0  0.12349299101E+02 -0.25130248111E+02 -0.33160040965E+02  0.47787275637E+02  0.20000020941E+02 0.  0.
         12    1    1    2    0    0 -0.12349299101E+02  0.25130248111E+02  0.33160040965E+02  0.43400724363E+02  0.00000000000E+00 0. -1.
         11    1    3    3    0    0  0.33422610440E+01 -0.10148839415E+02 -0.33881527722E+01  0.11209336726E+02  0.51100000000E-03 0. -1.
        -11    1    3    3    0    0  0.11500127858E+02 -0.86368526075E+01 -0.18984811163E+02  0.23817456179E+02  0.51100000000E-03 0.  1.
         12    1    3    3    0    0 -0.24930898004E+01 -0.63445560884E+01 -0.10787077030E+02  0.12760482733E+02  0.00000000000E+00 0. -1.
</event>
<event>
 7    1  0.1418970E-010  0.4778727E+02  0.7816164E-02  0.1312668E+00
        -11   -1    0    0    0    0  0.00000000000E+00  0.00000000000E+00  0.45593999997E+02  0.45594000000E+02  0.51100000000E-03 0.  1.
         11   -1    0    0    0    0 -0.00000000000E+00 -0.00000000000E+00 -0.45593999997E+02  0.45594000000E+02  0.51100000000E-03 0. -1.
    9900012    2    1    2    0    0  0.11159567224E+02 -0.41142594837E+02  0.81470530820E+01  0.47787268158E+02  0.19999986838E+02 0.  0.
         12    1    1    2    0    0 -0.11159567224E+02  0.41142594837E+02 -0.81470530820E+01  0.43400731842E+02  0.00000000000E+00 0. -1.
         11    1    3    3    0    0  0.49798370505E+01 -0.43806500053E+01  0.28461564778E+00  0.66385147319E+01  0.51100000000E-03 0. -1.
        -11    1    3    3    0    0 -0.24491095798E+01 -0.19758930305E+02  0.94040499114E+01  0.22019301068E+02  0.51100000000E-03 0.  1.
        -12    1    3    3    0    0  0.86288397533E+01 -0.17003014526E+02 -0.15416124772E+01  0.19129452358E+02  0.00000000000E+00 0.  1.
</event>
<event>
 7    1  0.1418970E-010  0.4778727E+02  0.7816164E-02  0.1312668E+00
        -11   -1    0    0    0    0  0.00000000000E+00  0.00000000000E+00  0.45593999997E+02  0.45594000000E+02  0.51100000000E-03 0. -1.
         11   -1    0    0    0    0 -0.00000000000E+00 -0.00000000000E+00 -0.45593999997E+02  0.45594000000E+02  0.51100000000E-03 0.  1.
    9900012    2    1    2    0    0 -0.15773850500E+02 -0.17546600492E+02  0.36426994212E+02  0.47787268949E+02  0.19999990447E+02 0.  0.
         12    1    1    2    0    0  0.15773850500E+02  0.17546600492E+02 -0.36426994212E+02  0.43400731051E+02  0.00000000000E+00 0. -1.
         11    1    3    3    0    0  0.38372731586E+01 -0.14749506399E+01  0.89442230333E+01  0.98437427138E+01  0.51100000000E-03 0. -1.
        -11    1    3    3    0    0 -0.92216218046E+01 -0.10573839807E+02  0.11724138053E+02  0.18283867489E+02  0.51100000000E-03 0.  1.
        -12    1    3    3    0    0 -0.10389501854E+02 -0.54978100443E+01  0.15758633125E+02  0.19659658747E+02  0.00000000000E+00 0.  1.
</event>
<event>
 7    1  0.1418970E-010  0.4778727E+02  0.7816164E-02  0.1312668E+00
        -11   -1    0    0    0    0  0.00000000000E+00  0.00000000000E+00  0.45593999997E+02  0.45594000000E+02  0.51100000000E-03 0.  1.
         11   -1    0    0    0    0 -0.00000000000E+00 -0.00000000000E+00 -0.45593999997E+02  0.45594000000E+02  0.51100000000E-03 0. -1.
    9900012    2    1    2    0    0  0.15096705308E+02 -0.40587080528E+02 -0.28985656020E+01  0.47787270749E+02  0.19999998654E+02 0.  0.
         12    1    1    2    0    0 -0.15096705308E+02  0.40587080528E+02  0.28985656020E+01  0.43400729251E+02  0.00000000000E+00 0. -1.
         11    1    3    3    0    0  0.62296337624E+01 -0.20872905103E+01 -0.35889291698E+01  0.74863563457E+01  0.51100000000E-03 0. -1.
        -11    1    3    3    0    0  0.92264284899E+01 -0.24221403492E+02 -0.86478269994E+00  0.25933592485E+02  0.51100000000E-03 0.  1.
        -12    1    3    3    0    0 -0.35935694465E+00 -0.14278386526E+02  0.15551462676E+01  0.14367321919E+02  0.00000000000E+00 0.  1.
</event>
<event>
 7    1  0.1418970E-010  0.4778723E+02  0.7816164E-02  0.1312668E+00
        -11   -1    0    0    0    0  0.00000000000E+00  0.00000000000E+00  0.45593999997E+02  0.45594000000E+02  0.51100000000E-03 0.  1.
         11   -1    0    0    0    0 -0.00000000000E+00 -0.00000000000E+00 -0.45593999997E+02  0.45594000000E+02  0.51100000000E-03 0. -1.
    9900012    2    1    2    0    0  0.26918647731E+02 -0.19832068061E+02  0.27671320065E+02  0.47787234185E+02  0.19999831941E+02 0.  0.
         12    1    1    2    0    0 -0.26918647731E+02  0.19832068061E+02 -0.27671320065E+02  0.43400765815E+02  0.00000000000E+00 0. -1.
         11    1    3    3    0    0  0.54420942042E+01 -0.74282583707E+01  0.18785674165E+02  0.20921208518E+02  0.51100000000E-03 0.  1.
        -11    1    3    3    0    0  0.57390312279E+01 -0.59292221239E+01  0.18811513728E+01  0.84635031268E+01  0.51100000000E-03 0. -1.
        -12    1    3    3    0    0  0.15737522298E+02 -0.64745875662E+01  0.70044945269E+01  0.18402522540E+02  0.00000000000E+00 0.  1.
</event>
<event>
 7    1  0.1418970E-010  0.4778726E+02  0.7816164E-02  0.1312668E+00
        -11   -1    0    0    0    0  0.00000000000E+00  0.00000000000E+00  0.45593999997E+02  0.45594000000E+02  0.51100000000E-03 0.  1.
         11   -1    0    0    0    0 -0.00000000000E+00 -0.00000000000E+00 -0.45593999997E+02  0.45594000000E+02  0.51100000000E-03 0. -1.
    9900012    2    1    2    0    0 -0.91727777718E+01 -0.35375428806E+02  0.23410756467E+02  0.47787258836E+02  0.19999944335E+02 0.  0.
         12    1    1    2    0    0  0.91727777718E+01  0.35375428806E+02 -0.23410756467E+02  0.43400741164E+02  0.00000000000E+00 0. -1.
         11    1    3    3    0    0  0.26398795988E+01 -0.50394052939E-01  0.28845759544E+01  0.39105348169E+01  0.51100000000E-03 0. -1.
        -11    1    3    3    0    0 -0.53002407394E+01 -0.26318291694E+02  0.10241561136E+02  0.28733858153E+02  0.51100000000E-03 0.  1.
         12    1    3    3    0    0 -0.65124166311E+01 -0.90067430594E+01  0.10284619377E+02  0.15142865866E+02  0.00000000000E+00 0. -1.
</event>
<event>
 7    1  0.1418970E-010  0.4778727E+02  0.7816164E-02  0.1312668E+00
        -11   -1    0    0    0    0  0.00000000000E+00  0.00000000000E+00  0.45593999997E+02  0.45594000000E+02  0.51100000000E-03 0.  1.
         11   -1    0    0    0    0 -0.00000000000E+00 -0.00000000000E+00 -0.45593999997E+02  0.45594000000E+02  0.51100000000E-03 0. -1.
    9900012    2    1    2    0    0  0.13400023762E+02  0.30928964510E+02  0.27339750145E+02  0.47787269356E+02  0.19999992301E+02 0.  0.
         12    1    1    2    0    0 -0.13400023762E+02 -0.30928964510E+02 -0.27339750145E+02  0.43400730644E+02  0.00000000000E+00 0. -1.
         11    1    3    3    0    0 -0.10637070647E+01  0.80762429860E+01  0.37779586538E+01  0.89794290097E+01  0.51100000000E-03 0. -1.
        -11    1    3    3    0    0  0.64179465091E+01  0.36602978148E+01  0.14160663902E+02  0.15972232777E+02  0.51100000000E-03 0.  1.
        -12    1    3    3    0    0  0.80457843171E+01  0.19192423709E+02  0.94011275892E+01  0.22835607569E+02  0.00000000000E+00 0.  1.
</event>
<event>
 7    1  0.1629133E-010  0.4778727E+02  0.7816164E-02  0.1312668E+00
        -11   -1    0    0    0    0  0.00000000000E+00  0.00000000000E+00  0.45593999997E+02  0.45594000000E+02  0.51100000000E-03 0. -1.
         11   -1    0    0    0    0 -0.00000000000E+00 -0.00000000000E+00 -0.45593999997E+02  0.45594000000E+02  0.51100000000E-03 0.  1.
    9900012    2    1    2    0    0 -0.18285705723E+02  0.17533440027E+02 -0.35239673845E+02  0.47787272291E+02  0.20000005684E+02 0.  0.
         12    1    1    2    0    0  0.18285705723E+02 -0.17533440027E+02  0.35239673845E+02  0.43400727709E+02  0.00000000000E+00 0. -1.
         11    1    3    3    0    0 -0.39625877962E+01  0.37422118576E+01 -0.22086101649E+01  0.58808341884E+01  0.51100000000E-03 0. -1.
        -11    1    3    3    0    0 -0.26290819173E+01  0.88554151674E+01 -0.25559778233E+02  0.27177798165E+02  0.51100000000E-03 0.  1.
        -12    1    3    3    0    0 -0.11694036010E+02  0.49358130021E+01 -0.74712854464E+01  0.14728639938E+02  0.00000000000E+00 0.  1.
</event>
<event>
 7    1  0.1418970E-010  0.4778728E+02  0.7816164E-02  0.1312668E+00
        -11   -1    0    0    0    0  0.00000000000E+00  0.00000000000E+00  0.45593999997E+02  0.45594000000E+02  0.51100000000E-03 0. -1.
         11   -1    0    0    0    0 -0.00000000000E+00 -0.00000000000E+00 -0.45593999997E+02  0.45594000000E+02  0.51100000000E-03 0.  1.
    9900012    2    1    2    0    0  0.38980518945E+02  0.18081759809E+02  0.60985195482E+01  0.47787276093E+02  0.20000023019E+02 0.  0.
         12    1    1    2    0    0 -0.38980518945E+02 -0.18081759809E+02 -0.60985195482E+01  0.43400723907E+02  0.00000000000E+00 0. -1.
         11    1    3    3    0    0  0.11134241204E+02 -0.58478409457E+00 -0.15302495003E+01  0.11254108735E+02  0.51100000000E-03 0. -1.
        -11    1    3    3    0    0  0.15285689521E+02  0.70551137888E+01  0.94917062022E+01  0.19326650553E+02  0.51100000000E-03 0.  1.
         12    1    3    3    0    0  0.12560588220E+02  0.11611430114E+02 -0.18629371537E+01  0.17206516805E+02  0.00000000000E+00 0. -1.
</event>
<event>
 7    1  0.1418970E-010  0.4778730E+02  0.7816164E-02  0.1312668E+00
        -11   -1    0    0    0    0  0.00000000000E+00  0.00000000000E+00  0.45593999997E+02  0.45594000000E+02  0.51100000000E-03 0. -1.
         11   -1    0    0    0    0 -0.00000000000E+00 -0.00000000000E+00 -0.45593999997E+02  0.45594000000E+02  0.51100000000E-03 0.  1.
    9900012    2    1    2    0    0 -0.20391635607E+01  0.97995153236E+01 -0.42230696817E+02  0.47787303666E+02  0.20000148734E+02 0.  0.
         12    1    1    2    0    0  0.20391635607E+01 -0.97995153236E+01  0.42230696817E+02  0.43400696334E+02  0.00000000000E+00 0. -1.
         11    1    3    3    0    0  0.72828082391E+00 -0.10682278886E+01  0.64798794706E+00  0.14461647282E+01  0.51100000000E-03 0. -1.
        -11    1    3    3    0    0  0.26364770347E+01  0.11544983350E+02 -0.25224447662E+02  0.27865936407E+02  0.51100000000E-03 0.  1.
         12    1    3    3    0    0 -0.54039214193E+01 -0.67724013747E+00 -0.17654237102E+02  0.18475202531E+02  0.00000000000E+00 0. -1.
</event>
<event>
 7    1  0.1418970E-010  0.4778728E+02  0.7816164E-02  0.1312668E+00
        -11   -1    0    0    0    0  0.00000000000E+00  0.00000000000E+00  0.45593999997E+02  0.45594000000E+02  0.51100000000E-03 0.  1.
         11   -1    0    0    0    0 -0.00000000000E+00 -0.00000000000E+00 -0.45593999997E+02  0.45594000000E+02  0.51100000000E-03 0. -1.
    9900012    2    1    2    0    0 -0.21606759602E+02  0.36655821015E+02  0.85510704784E+01  0.47787284786E+02  0.20000062654E+02 0.  0.
         12    1    1    2    0    0  0.21606759602E+02 -0.36655821015E+02 -0.85510704784E+01  0.43400715214E+02  0.00000000000E+00 0. -1.
         11    1    3    3    0    0 -0.27126554789E+01  0.12807431092E+02  0.77734067271E+01  0.15225460365E+02  0.51100000000E-03 0. -1.
        -11    1    3    3    0    0 -0.26109508235E+01 -0.52333587971E+00  0.18317927119E+01  0.32320905690E+01  0.51100000000E-03 0.  1.
        -12    1    3    3    0    0 -0.16283153300E+02  0.24371725803E+02 -0.10541289606E+01  0.29329733852E+02  0.00000000000E+00 0.  1.
</event>
<event>
 7    1  0.1418970E-010  0.4778727E+02  0.7816164E-02  0.1312668E+00
        -11   -1    0    0    0    0  0.00000000000E+00  0.00000000000E+00  0.45593999997E+02  0.45594000000E+02  0.51100000000E-03 0. -1.
         11   -1    0    0    0    0 -0.00000000000E+00 -0.00000000000E+00 -0.45593999997E+02  0.45594000000E+02  0.51100000000E-03 0.  1.
    9900012    2    1    2    0    0  0.15008195953E+02 -0.24184644752E+02 -0.32764010047E+02  0.47787270261E+02  0.19999996428E+02 0.  0.
         12    1    1    2    0    0 -0.15008195953E+02  0.24184644752E+02  0.32764010047E+02  0.43400729739E+02  0.00000000000E+00 0. -1.
         11    1    3    3    0    0  0.99948329895E+01 -0.17374496969E+02 -0.26823078951E+02  0.33485032419E+02  0.51100000000E-03 0. -1.
        -11    1    3    3    0    0  0.59169918167E+01 -0.85912342748E+01 -0.32011989975E+01  0.10911818080E+02  0.51100000000E-03 0.  1.
         12    1    3    3    0    0 -0.90362885311E+00  0.17810864917E+01 -0.27397320985E+01  0.33904197626E+01  0.00000000000E+00 0. -1.
</event>
<event>
 7    1  0.1418970E-010  0.4778727E+02  0.7816164E-02  0.1312668E+00
        -11   -1    0    0    0    0  0.00000000000E+00  0.00000000000E+00  0.45593999997E+02  0.45594000000E+02  0.51100000000E-03 0. -1.
         11   -1    0    0    0    0 -0.00000000000E+00 -0.00000000000E+00 -0.45593999997E+02  0.45594000000E+02  0.51100000000E-03 0.  1.
    9900012    2    1    2    0    0 -0.41459836634E+02  0.37599385937E+01  0.12270619971E+02  0.47787270670E+02  0.19999998291E+02 0.  0.
         12    1    1    2    0    0  0.41459836634E+02 -0.37599385937E+01 -0.12270619971E+02  0.43400729330E+02  0.00000000000E+00 0. -1.
         11    1    3    3    0    0 -0.24222750384E+02  0.16111834469E+01  0.25324161809E+01  0.24408004429E+02  0.51100000000E-03 0. -1.
        -11    1    3    3    0    0 -0.16822778636E+02  0.25517070153E+00  0.11799357258E+02  0.20549837593E+02  0.51100000000E-03 0.  1.
         12    1    3    3    0    0 -0.41430761383E+00  0.18935844452E+01 -0.20611534679E+01  0.28294286470E+01  0.00000000000E+00 0. -1.
</event>
<event>
 7    1  0.1418970E-010  0.4778728E+02  0.7816164E-02  0.1312668E+00
        -11   -1    0    0    0    0  0.00000000000E+00  0.00000000000E+00  0.45593999997E+02  0.45594000000E+02  0.51100000000E-03 0.  1.
         11   -1    0    0    0    0 -0.00000000000E+00 -0.00000000000E+00 -0.45593999997E+02  0.45594000000E+02  0.51100000000E-03 0. -1.
    9900012    2    1    2    0    0 -0.23991969481E+02 -0.94678610312E+01  0.34905124964E+02  0.47787277185E+02  0.20000027999E+02 0.  0.
         12    1    1    2    0    0  0.23991969481E+02  0.94678610312E+01 -0.34905124964E+02  0.43400722815E+02  0.00000000000E+00 0. -1.
         11    1    3    3    0    0 -0.27588105545E+01 -0.66558724597E+01  0.33471597382E+01  0.79445045440E+01  0.51100000000E-03 0. -1.
        -11    1    3    3    0    0 -0.10649583984E+02 -0.50044730160E+01  0.23763251335E+02  0.26516985188E+02  0.51100000000E-03 0.  1.
         12    1    3    3    0    0 -0.10583574943E+02  0.21924844445E+01  0.77947138902E+01  0.13325787453E+02  0.00000000000E+00 0. -1.
</event>
<event>
 7    1  0.1418970E-010  0.4778727E+02  0.7816164E-02  0.1312668E+00
        -11   -1    0    0    0    0  0.00000000000E+00  0.00000000000E+00  0.45593999997E+02  0.45594000000E+02  0.51100000000E-03 0.  1.
         11   -1    0    0    0    0 -0.00000000000E+00 -0.00000000000E+00 -0.45593999997E+02  0.45594000000E+02  0.51100000000E-03 0. -1.
    9900012    2    1    2    0    0  0.10606560453E+02  0.69940067210E+01  0.41499493627E+02  0.47787271597E+02  0.20000002517E+02 0.  0.
         12    1    1    2    0    0 -0.10606560453E+02 -0.69940067210E+01 -0.41499493627E+02  0.43400728403E+02  0.00000000000E+00 0. -1.
         11    1    3    3    0    0  0.22895198658E+01  0.92567556570E+00  0.11871415842E+02  0.12125563526E+02  0.51100000000E-03 0. -1.
        -11    1    3    3    0    0  0.12315720156E+02 -0.28264291415E+00  0.17554754529E+02  0.21445891373E+02  0.51100000000E-03 0.  1.
         12    1    3    3    0    0 -0.39986795682E+01  0.63509740695E+01  0.12073323256E+02  0.14215816697E+02  0.00000000000E+00 0. -1.
</event>
<event>
 7    1  0.1418970E-010  0.4778727E+02  0.7816164E-02  0.1312668E+00
        -11   -1    0    0    0    0  0.00000000000E+00  0.00000000000E+00  0.45593999997E+02  0.45594000000E+02  0.51100000000E-03 0. -1.
         11   -1    0    0    0    0 -0.00000000000E+00 -0.00000000000E+00 -0.45593999997E+02  0.45594000000E+02  0.51100000000E-03 0.  1.
    9900012    2    1    2    0    0  0.16198197812E+02 -0.18163986883E+02 -0.35934816525E+02  0.47787273387E+02  0.20000010679E+02 0.  0.
         12    1    1    2    0    0 -0.16198197812E+02  0.18163986883E+02  0.35934816525E+02  0.43400726613E+02  0.00000000000E+00 0. -1.
         11    1    3    3    0    0  0.35864972696E+01 -0.90841943860E+01 -0.11082744667E+02  0.14772026940E+02  0.51100000000E-03 0. -1.
        -11    1    3    3    0    0  0.90944069347E+01 -0.12708750614E+02 -0.22613152027E+02  0.27487728617E+02  0.51100000000E-03 0.  1.
         12    1    3    3    0    0  0.35172936081E+01  0.36289581172E+01 -0.22389198309E+01  0.55275178291E+01  0.00000000000E+00 0. -1.
</event>
<event>
 7    1  0.1418970E-010  0.4778727E+02  0.7816164E-02  0.1312668E+00
        -11   -1    0    0    0    0  0.00000000000E+00  0.00000000000E+00  0.45593999997E+02  0.45594000000E+02  0.51100000000E-03 0. -1.
         11   -1    0    0    0    0 -0.00000000000E+00 -0.00000000000E+00 -0.45593999997E+02  0.45594000000E+02  0.51100000000E-03 0.  1.
    9900012    2    1    2    0    0 -0.27581949218E+02  0.33342777447E+02 -0.33344438285E+01  0.47787271363E+02  0.20000001455E+02 0.  0.
         12    1    1    2    0    0  0.27581949218E+02 -0.33342777447E+02  0.33344438285E+01  0.43400728637E+02  0.00000000000E+00 0. -1.
         11    1    3    3    0    0 -0.76854275475E+01 -0.10259652171E+01 -0.11788296242E+01  0.78427062139E+01  0.51100000000E-03 0. -1.
        -11    1    3    3    0    0 -0.40246792379E+01  0.10269318974E+02 -0.57165263279E+00  0.11044625034E+02  0.51100000000E-03 0.  1.
         12    1    3    3    0    0 -0.15871842433E+02  0.24099423690E+02 -0.15839615715E+01  0.28899940115E+02  0.00000000000E+00 0. -1.
</event>
<event>
 7    1  0.1418970E-010  0.4778727E+02  0.7816164E-02  0.1312668E+00
        -11   -1    0    0    0    0  0.00000000000E+00  0.00000000000E+00  0.45593999997E+02  0.45594000000E+02  0.51100000000E-03 0.  1.
         11   -1    0    0    0    0 -0.00000000000E+00 -0.00000000000E+00 -0.45593999997E+02  0.45594000000E+02  0.51100000000E-03 0. -1.
    9900012    2    1    2    0    0  0.13915430194E+02  0.41096868185E+02  0.10156939680E+01  0.47787269518E+02  0.19999993041E+02 0.  0.
         12    1    1    2    0    0 -0.13915430194E+02 -0.41096868185E+02 -0.10156939680E+01  0.43400730482E+02  0.00000000000E+00 0. -1.
         11    1    3    3    0    0  0.32859281352E+01  0.12062469982E+01  0.14156713766E+01  0.37757755810E+01  0.51100000000E-03 0. -1.
        -11    1    3    3    0    0  0.17201401461E+01  0.30651457216E+02  0.26662781012E+01  0.30815251918E+02  0.51100000000E-03 0.  1.
        -12    1    3    3    0    0  0.89093619130E+01  0.92391639705E+01 -0.30662555097E+01  0.13196242019E+02  0.00000000000E+00 0.  1.
</event>
<event>
 7    1  0.1418970E-010  0.4778727E+02  0.7816164E-02  0.1312668E+00
        -11   -1    0    0    0    0  0.00000000000E+00  0.00000000000E+00  0.45593999997E+02  0.45594000000E+02  0.51100000000E-03 0. -1.
         11   -1    0    0    0    0 -0.00000000000E+00 -0.00000000000E+00 -0.45593999997E+02  0.45594000000E+02  0.51100000000E-03 0.  1.
    9900012    2    1    2    0    0  0.51339377656E+01  0.35808515376E+02  0.23979498502E+02  0.47787269144E+02  0.19999991336E+02 0.  0.
         12    1    1    2    0    0 -0.51339377656E+01 -0.35808515376E+02 -0.23979498502E+02  0.43400730856E+02  0.00000000000E+00 0. -1.
         11    1    3    3    0    0  0.24750203920E+01  0.27094167501E+02  0.13509686345E+02  0.30376491962E+02  0.51100000000E-03 0. -1.
        -11    1    3    3    0    0  0.61197261961E+01  0.58568185060E+01  0.35980310387E+01  0.92032167932E+01  0.51100000000E-03 0.  1.
         12    1    3    3    0    0 -0.34608088225E+01  0.28575293689E+01  0.68717811183E+01  0.82075603889E+01  0.00000000000E+00 0. -1.
</event>
<event>
 7    1  0.1443333E-010  0.4778727E+02  0.7816164E-02  0.1312668E+00
        -11   -1    0    0    0    0  0.00000000000E+00  0.00000000000E+00  0.45593999997E+02  0.45594000000E+02  0.51100000000E-03 0.  1.
         11   -1    0    0    0    0 -0.00000000000E+00 -0.00000000000E+00 -0.45593999997E+02  0.45594000000E+02  0.51100000000E-03 0. -1.
    9900012    2    1    2    0    0 -0.20881877855E+02 -0.38044460689E+02  0.43523542135E+00  0.47787271415E+02  0.20000001690E+02 0.  0.
         12    1    1    2    0    0  0.20881877855E+02  0.38044460689E+02 -0.43523542135E+00  0.43400728585E+02  0.00000000000E+00 0. -1.
         11    1    3    3    0    0 -0.30871401166E+01 -0.37722812270E+01 -0.49745255975E+01  0.69646568427E+01  0.51100000000E-03 0. -1.
        -11    1    3    3    0    0 -0.16774130474E+02 -0.20785450985E+02  0.15372914244E+01  0.26753872448E+02  0.51100000000E-03 0.  1.
         12    1    3    3    0    0 -0.10206072645E+01 -0.13486728477E+02  0.38724695945E+01  0.14068742124E+02  0.00000000000E+00 0. -1.
</event>
<event>
 7    1  0.1418970E-010  0.4778727E+02  0.7816164E-02  0.1312668E+00
        -11   -1    0    0    0    0  0.00000000000E+00  0.00000000000E+00  0.45593999997E+02  0.45594000000E+02  0.51100000000E-03 0.  1.
         11   -1    0    0    0    0 -0.00000000000E+00 -0.00000000000E+00 -0.45593999997E+02  0.45594000000E+02  0.51100000000E-03 0. -1.
    9900012    2    1    2    0    0  0.85100269106E+01  0.23647681035E+02  0.35383470139E+02  0.47787270335E+02  0.19999996767E+02 0.  0.
         12    1    1    2    0    0 -0.85100269106E+01 -0.23647681035E+02 -0.35383470139E+02  0.43400729665E+02  0.00000000000E+00 0. -1.
         11    1    3    3    0    0 -0.43914615804E+01  0.10253305997E+02  0.63760539147E+01  0.12847929112E+02  0.51100000000E-03 0. -1.
        -11    1    3    3    0    0  0.48340772040E+01  0.90171234675E+01  0.13842142573E+02  0.17212836179E+02  0.51100000000E-03 0.  1.
         12    1    3    3    0    0  0.80674112870E+01  0.43772515708E+01  0.15165273651E+02  0.17726505044E+02  0.00000000000E+00 0. -1.
</event>
<event>
 7    1  0.1418970E-010  0.4778727E+02  0.7816164E-02  0.1312668E+00
        -11   -1    0    0    0    0  0.00000000000E+00  0.00000000000E+00  0.45593999997E+02  0.45594000000E+02  0.51100000000E-03 0. -1.
         11   -1    0    0    0    0 -0.00000000000E+00 -0.00000000000E+00 -0.45593999997E+02  0.45594000000E+02  0.51100000000E-03 0.  1.
    9900012    2    1    2    0    0  0.27601227701E+02  0.32911815522E+02 -0.62135214429E+01  0.47787271662E+02  0.20000002816E+02 0.  0.
         12    1    1    2    0    0 -0.27601227701E+02 -0.32911815522E+02  0.62135214429E+01  0.43400728338E+02  0.00000000000E+00 0. -1.
         11    1    3    3    0    0  0.10267806398E+02  0.91199918441E+01 -0.10341409450E+02  0.17191476060E+02  0.51100000000E-03 0. -1.
        -11    1    3    3    0    0  0.53490766993E+01  0.12745956479E+02  0.17066160706E+00  0.13823934090E+02  0.51100000000E-03 0.  1.
         12    1    3    3    0    0  0.11984344604E+02  0.11045867199E+02  0.39572264004E+01  0.16771861511E+02  0.00000000000E+00 0. -1.
</event>
<event>
 7    1  0.1418970E-010  0.4778728E+02  0.7816164E-02  0.1312668E+00
        -11   -1    0    0    0    0  0.00000000000E+00  0.00000000000E+00  0.45593999997E+02  0.45594000000E+02  0.51100000000E-03 0.  1.
         11   -1    0    0    0    0 -0.00000000000E+00 -0.00000000000E+00 -0.45593999997E+02  0.45594000000E+02  0.51100000000E-03 0. -1.
    9900012    2    1    2    0    0  0.22454629398E+02 -0.84186040496E+00  0.37130897705E+02  0.47787277947E+02  0.20000031472E+02 0.  0.
         12    1    1    2    0    0 -0.22454629398E+02  0.84186040496E+00 -0.37130897705E+02  0.43400722053E+02  0.00000000000E+00 0. -1.
         11    1    3    3    0    0  0.15289616185E+02  0.50738581248E-01  0.24857608794E+02  0.29183482532E+02  0.51100000000E-03 0. -1.
        -11    1    3    3    0    0  0.77925232202E+01 -0.26791690497E+01  0.24457969458E+01  0.85955388369E+01  0.51100000000E-03 0.  1.
         12    1    3    3    0    0 -0.62751000761E+00  0.17865700635E+01  0.98274919657E+01  0.10008256578E+02  0.00000000000E+00 0. -1.
</event>
<event>
 7    1  0.1418970E-010  0.4778727E+02  0.7816164E-02  0.1312668E+00
        -11   -1    0    0    0    0  0.00000000000E+00  0.00000000000E+00  0.45593999997E+02  0.45594000000E+02  0.51100000000E-03 0.  1.
         11   -1    0    0    0    0 -0.00000000000E+00 -0.00000000000E+00 -0.45593999997E+02  0.45594000000E+02  0.51100000000E-03 0. -1.
    9900012    2    1    2    0    0  0.32965875095E+02  0.19785725795E+02  0.20134532014E+02  0.47787271372E+02  0.20000001494E+02 0.  0.
         12    1    1    2    0    0 -0.32965875095E+02 -0.19785725795E+02 -0.20134532014E+02  0.43400728628E+02  0.00000000000E+00 0. -1.
         11    1    3    3    0    0 -0.12111544451E+01  0.99232606330E+00  0.30606747162E+00  0.15953945168E+01  0.51100000000E-03 0. -1.
        -11    1    3    3    0    0  0.20759189212E+02  0.15150956970E+02  0.19541125367E+02  0.32285461352E+02  0.51100000000E-03 0.  1.
         12    1    3    3    0    0  0.13417840328E+02  0.36424427619E+01  0.28733917528E+00  0.13906415503E+02  0.00000000000E+00 0. -1.
</event>
<event>
 7    1  0.1418970E-010  0.4778727E+02  0.7816164E-02  0.1312668E+00
        -11   -1    0    0    0    0  0.00000000000E+00  0.00000000000E+00  0.45593999997E+02  0.45594000000E+02  0.51100000000E-03 0.  1.
         11   -1    0    0    0    0 -0.00000000000E+00 -0.00000000000E+00 -0.45593999997E+02  0.45594000000E+02  0.51100000000E-03 0. -1.
    9900012    2    1    2    0    0  0.15833252952E+02 -0.21022548875E+02  0.34510632656E+02  0.47787271589E+02  0.20000002484E+02 0.  0.
         12    1    1    2    0    0 -0.15833252952E+02  0.21022548875E+02 -0.34510632656E+02  0.43400728411E+02  0.00000000000E+00 0. -1.
         11    1    3    3    0    0  0.39623584946E+01 -0.84847925961E+01  0.24560078566E+01  0.96811138353E+01  0.51100000000E-03 0. -1.
        -11    1    3    3    0    0  0.33622672200E+01  0.18087431916E+01  0.75940614703E+01  0.84997742716E+01  0.51100000000E-03 0.  1.
        -12    1    3    3    0    0  0.85086272371E+01 -0.14346499470E+02  0.24460563329E+02  0.29606383482E+02  0.00000000000E+00 0.  1.
</event>
<event>
 7    1  0.1418970E-010  0.4778727E+02  0.7816164E-02  0.1312668E+00
        -11   -1    0    0    0    0  0.00000000000E+00  0.00000000000E+00  0.45593999997E+02  0.45594000000E+02  0.51100000000E-03 0. -1.
         11   -1    0    0    0    0 -0.00000000000E+00 -0.00000000000E+00 -0.45593999997E+02  0.45594000000E+02  0.51100000000E-03 0.  1.
    9900012    2    1    2    0    0 -0.40338063738E+02 -0.15746178707E+02  0.29192653000E+01  0.47787266827E+02  0.19999980773E+02 0.  0.
         12    1    1    2    0    0  0.40338063738E+02  0.15746178707E+02 -0.29192653000E+01  0.43400733173E+02  0.00000000000E+00 0. -1.
         11    1    3    3    0    0 -0.41522964664E+01  0.24669589391E+01  0.21331925186E+01  0.52799586111E+01  0.51100000000E-03 0. -1.
        -11    1    3    3    0    0 -0.29929263619E+02 -0.12285036726E+02  0.52906428419E+01  0.32782218504E+02  0.51100000000E-03 0.  1.
        -12    1    3    3    0    0 -0.62565036532E+01 -0.59281009200E+01 -0.45045700606E+01  0.97250897122E+01  0.00000000000E+00 0.  1.
</event>
<event>
 7    1  0.1418970E-010  0.4778727E+02  0.7816164E-02  0.1312668E+00
        -11   -1    0    0    0    0  0.00000000000E+00  0.00000000000E+00  0.45593999997E+02  0.45594000000E+02  0.51100000000E-03 0.  1.
         11   -1    0    0    0    0 -0.00000000000E+00 -0.00000000000E+00 -0.45593999997E+02  0.45594000000E+02  0.51100000000E-03 0. -1.
    9900012    2    1    2    0    0 -0.10901113200E+02 -0.27749251836E+00  0.42008476849E+02  0.47787269611E+02  0.19999993467E+02 0.  0.
         12    1    1    2    0    0  0.10901113200E+02  0.27749251836E+00 -0.42008476849E+02  0.43400730389E+02  0.00000000000E+00 0. -1.
         11    1    3    3    0    0 -0.23690396885E+01 -0.57551268191E+01  0.40329567098E+01  0.74161023344E+01  0.51100000000E-03 0. -1.
        -11    1    3    3    0    0 -0.42247398233E+01  0.44522432559E+01  0.80657433787E+01  0.10135438476E+02  0.51100000000E-03 0.  1.
        -12    1    3    3    0    0 -0.43073336885E+01  0.10253910448E+01  0.29909776760E+02  0.30235728801E+02  0.00000000000E+00 0.  1.
</event>
<event>
 7    1  0.1418970E-010  0.4778728E+02  0.7816164E-02  0.1312668E+00
        -11   -1    0    0    0    0  0.00000000000E+00  0.00000000000E+00  0.45593999997E+02  0.45594000000E+02  0.51100000000E-03 0. -1.
         11   -1    0    0    0    0 -0.00000000000E+00 -0.00000000000E+00 -0.45593999997E+02  0.45594000000E+02  0.51100000000E-03 0.  1.
    9900012    2    1    2    0    0  0.19561303373E+02  0.33882394406E+02 -0.18787273014E+02  0.47787275725E+02  0.20000021339E+02 0.  0.
         12    1    1    2    0    0 -0.19561303373E+02 -0.33882394406E+02  0.18787273014E+02  0.43400724275E+02  0.00000000000E+00 0. -1.
         11    1    3    3    0    0  0.57947960260E+00  0.70806483242E+01 -0.80221341764E+01  0.10715690099E+02  0.51100000000E-03 0. -1.
        -11    1    3    3    0    0  0.61176300774E+01  0.57622103530E+01  0.28845815734E+01  0.88853405692E+01  0.51100000000E-03 0.  1.
         12    1    3    3    0    0  0.12864193693E+02  0.21039535728E+02 -0.13649720411E+02  0.28186245056E+02  0.00000000000E+00 0. -1.
</event>
<event>
 7    1  0.1418970E-010  0.4778727E+02  0.7816164E-02  0.1312668E+00
        -11   -1    0    0    0    0  0.00000000000E+00  0.00000000000E+00  0.45593999997E+02  0.45594000000E+02  0.51100000000E-03 0. -1.
         11   -1    0    0    0    0 -0.00000000000E+00 -0.00000000000E+00 -0.45593999997E+02  0.45594000000E+02  0.51100000000E-03 0.  1.
    9900012    2    1    2    0    0  0.12234965471E+02  0.19000331197E+02 -0.37052886643E+02  0.47787269888E+02  0.19999994729E+02 0.  0.
         12    1    1    2    0    0 -0.12234965471E+02 -0.19000331197E+02  0.37052886643E+02  0.43400730112E+02  0.00000000000E+00 0. -1.
         11    1    3    3    0    0  0.94902970435E+01  0.46352180038E+01 -0.20166460717E+02  0.22764822029E+02  0.51100000000E-03 0. -1.
        -11    1    3    3    0    0  0.35805820191E+01  0.50258561695E+01 -0.56159278291E+00  0.61963847966E+01  0.51100000000E-03 0.  1.
        -12    1    3    3    0    0 -0.83591359151E+00  0.93392570238E+01 -0.16324833143E+02  0.18826063062E+02  0.00000000000E+00 0.  1.
</event>
<event>
 7    1  0.1418970E-010  0.4778727E+02  0.7816164E-02  0.1312668E+00
        -11   -1    0    0    0    0  0.00000000000E+00  0.00000000000E+00  0.45593999997E+02  0.45594000000E+02  0.51100000000E-03 0. -1.
         11   -1    0    0    0    0 -0.00000000000E+00 -0.00000000000E+00 -0.45593999997E+02  0.45594000000E+02  0.51100000000E-03 0.  1.
    9900012    2    1    2    0    0 -0.23009207707E+02 -0.30076463359E+02 -0.21203908960E+02  0.47787273708E+02  0.20000012145E+02 0.  0.
         12    1    1    2    0    0  0.23009207707E+02  0.30076463359E+02  0.21203908960E+02  0.43400726292E+02  0.00000000000E+00 0. -1.
         11    1    3    3    0    0  0.39086132572E+00  0.23831574045E+01 -0.47453928861E+00  0.24611784957E+01  0.51100000000E-03 0. -1.
        -11    1    3    3    0    0 -0.88698632251E+01 -0.12993794669E+02 -0.10807405779E+02  0.19086990163E+02  0.51100000000E-03 0.  1.
         12    1    3    3    0    0 -0.14530205807E+02 -0.19465826094E+02 -0.99219638924E+01  0.26239105050E+02  0.00000000000E+00 0. -1.
</event>
<event>
 7    1  0.1418970E-010  0.4778727E+02  0.7816164E-02  0.1312668E+00
        -11   -1    0    0    0    0  0.00000000000E+00  0.00000000000E+00  0.45593999997E+02  0.45594000000E+02  0.51100000000E-03 0.  1.
         11   -1    0    0    0    0 -0.00000000000E+00 -0.00000000000E+00 -0.45593999997E+02  0.45594000000E+02  0.51100000000E-03 0. -1.
    9900012    2    1    2    0    0  0.33206678849E+02 -0.21517755330E+02 -0.17830482233E+02  0.47787269461E+02  0.19999992782E+02 0.  0.
         12    1    1    2    0    0 -0.33206678849E+02  0.21517755330E+02  0.17830482233E+02  0.43400730539E+02  0.00000000000E+00 0. -1.
         11    1    3    3    0    0  0.25859212424E+02 -0.15316511532E+02 -0.11083898713E+02  0.32033532488E+02  0.51100000000E-03 0. -1.
        -11    1    3    3    0    0  0.32802801301E+01  0.97642974436E-01  0.22973475262E+01  0.40059428104E+01  0.51100000000E-03 0.  1.
         12    1    3    3    0    0  0.40671862948E+01 -0.62988867724E+01 -0.90439310465E+01  0.11747794163E+02  0.00000000000E+00 0. -1.
</event>
<event>
 7    1  0.1418970E-010  0.4778727E+02  0.7816164E-02  0.1312668E+00
        -11   -1    0    0    0    0  0.00000000000E+00  0.00000000000E+00  0.45593999997E+02  0.45594000000E+02  0.51100000000E-03 0.  1.
         11   -1    0    0    0    0 -0.00000000000E+00 -0.00000000000E+00 -0.45593999997E+02  0.45594000000E+02  0.51100000000E-03 0. -1.
    9900012    2    1    2    0    0 -0.10761450216E+02  0.54838715993E+01  0.41686228520E+02  0.47787270666E+02  0.19999998276E+02 0.  0.
         12    1    1    2    0    0  0.10761450216E+02 -0.54838715993E+01 -0.41686228520E+02  0.43400729334E+02  0.00000000000E+00 0. -1.
         11    1    3    3    0    0 -0.34351414236E+01 -0.49933416221E+01  0.87401393545E+01  0.10635962267E+02  0.51100000000E-03 0. -1.
        -11    1    3    3    0    0 -0.90067006032E+01  0.41427689909E+01  0.24719881451E+02  0.26633732932E+02  0.51100000000E-03 0.  1.
         12    1    3    3    0    0  0.16803918104E+01  0.63344442306E+01  0.82262077143E+01  0.10517575467E+02  0.00000000000E+00 0. -1.
</event>
<event>
 7    1  0.1418970E-010  0.4778728E+02  0.7816164E-02  0.1312668E+00
        -11   -1    0    0    0    0  0.00000000000E+00  0.00000000000E+00  0.45593999997E+02  0.45594000000E+02  0.51100000000E-03 0.  1.
         11   -1    0    0    0    0 -0.00000000000E+00 -0.00000000000E+00 -0.45593999997E+02  0.45594000000E+02  0.51100000000E-03 0. -1.
    9900012    2    1    2    0    0 -0.15518242939E+02  0.28639793385E+01  0.40430236623E+02  0.47787282553E+02  0.20000052472E+02 0.  0.
         12    1    1    2    0    0  0.15518242939E+02 -0.28639793385E+01 -0.40430236623E+02  0.43400717447E+02  0.00000000000E+00 0. -1.
         11    1    3    3    0    0 -0.16256968504E+02  0.18793930759E+01  0.38189161727E+02  0.41547962849E+02  0.51100000000E-03 0. -1.
        -11    1    3    3    0    0 -0.25761737206E+00  0.22623139592E+01  0.35082511599E+01  0.41823746392E+01  0.51100000000E-03 0.  1.
         12    1    3    3    0    0  0.99634293738E+00 -0.12777276966E+01 -0.12671762640E+01  0.20569450648E+01  0.00000000000E+00 0. -1.
</event>
<event>
 7    1  0.1418970E-010  0.4778727E+02  0.7816164E-02  0.1312668E+00
        -11   -1    0    0    0    0  0.00000000000E+00  0.00000000000E+00  0.45593999997E+02  0.45594000000E+02  0.51100000000E-03 0.  1.
         11   -1    0    0    0    0 -0.00000000000E+00 -0.00000000000E+00 -0.45593999997E+02  0.45594000000E+02  0.51100000000E-03 0. -1.
    9900012    2    1    2    0    0 -0.12091913048E+02  0.22780846575E+02  0.34906189502E+02  0.47787269622E+02  0.19999993513E+02 0.  0.
         12    1    1    2    0    0  0.12091913048E+02 -0.22780846575E+02 -0.34906189502E+02  0.43400730378E+02  0.00000000000E+00 0. -1.
         11    1    3    3    0    0  0.37024695905E+01  0.45279638577E+01  0.67963778720E+01  0.89666878058E+01  0.51100000000E-03 0. -1.
        -11    1    3    3    0    0 -0.66878753435E+01  0.35518273542E+01  0.26093307912E+01  0.80094794840E+01  0.51100000000E-03 0.  1.
        -12    1    3    3    0    0 -0.91065072947E+01  0.14701055363E+02  0.25500480839E+02  0.30811102332E+02  0.00000000000E+00 0.  1.
</event>
<event>
 7    1  0.1418970E-010  0.4778728E+02  0.7816164E-02  0.1312668E+00
        -11   -1    0    0    0    0  0.00000000000E+00  0.00000000000E+00  0.45593999997E+02  0.45594000000E+02  0.51100000000E-03 0.  1.
         11   -1    0    0    0    0 -0.00000000000E+00 -0.00000000000E+00 -0.45593999997E+02  0.45594000000E+02  0.51100000000E-03 0. -1.
    9900012    2    1    2    0    0  0.93385991915E+01 -0.42041116209E+02 -0.53812205719E+01  0.47787280861E+02  0.20000044757E+02 0.  0.
         12    1    1    2    0    0 -0.93385991915E+01  0.42041116209E+02  0.53812205719E+01  0.43400719139E+02  0.00000000000E+00 0. -1.
         11    1    3    3    0    0 -0.34790745225E+01 -0.25831330970E+01  0.20963546340E+01  0.48136513317E+01  0.51100000000E-03 0. -1.
        -11    1    3    3    0    0  0.36410275671E+01 -0.21884840936E+02 -0.65274817894E+01  0.23125988916E+02  0.51100000000E-03 0.  1.
        -12    1    3    3    0    0  0.91766461468E+01 -0.17573142176E+02 -0.95009341654E+00  0.19847640614E+02  0.00000000000E+00 0.  1.
</event>
<event>
 7    1  0.1418970E-010  0.4778727E+02  0.7816164E-02  0.1312668E+00
        -11   -1    0    0    0    0  0.00000000000E+00  0.00000000000E+00  0.45593999997E+02  0.45594000000E+02  0.51100000000E-03 0.  1.
         11   -1    0    0    0    0 -0.00000000000E+00 -0.00000000000E+00 -0.45593999997E+02  0.45594000000E+02  0.51100000000E-03 0. -1.
    9900012    2    1    2    0    0 -0.39388029776E+01 -0.34034436273E+02  0.26641435142E+02  0.47787273189E+02  0.20000009777E+02 0.  0.
         12    1    1    2    0    0  0.39388029776E+01  0.34034436273E+02 -0.26641435142E+02  0.43400726811E+02  0.00000000000E+00 0. -1.
         11    1    3    3    0    0 -0.17512811288E+01 -0.15636647490E+02  0.52413740213E+01  0.16584442475E+02  0.51100000000E-03 0. -1.
        -11    1    3    3    0    0  0.22368360720E+01 -0.16442854432E+02  0.20341001541E+02  0.26251233141E+02  0.51100000000E-03 0.  1.
         12    1    3    3    0    0 -0.44243579207E+01 -0.19549343518E+01  0.10590595795E+01  0.49515975729E+01  0.00000000000E+00 0. -1.
</event>
<event>
 7    1  0.1418970E-010  0.4778727E+02  0.7816164E-02  0.1312668E+00
        -11   -1    0    0    0    0  0.00000000000E+00  0.00000000000E+00  0.45593999997E+02  0.45594000000E+02  0.51100000000E-03 0.  1.
         11   -1    0    0    0    0 -0.00000000000E+00 -0.00000000000E+00 -0.45593999997E+02  0.45594000000E+02  0.51100000000E-03 0. -1.
    9900012    2    1    2    0    0 -0.28976258097E+02 -0.22053943606E+02  0.23614052013E+02  0.47787269426E+02  0.19999992621E+02 0.  0.
         12    1    1    2    0    0  0.28976258097E+02  0.22053943606E+02 -0.23614052013E+02  0.43400730574E+02  0.00000000000E+00 0. -1.
         11    1    3    3    0    0 -0.72426529034E+01 -0.72264986696E+00  0.13049727392E+02  0.14942343496E+02  0.51100000000E-03 0. -1.
        -11    1    3    3    0    0 -0.14961347126E+02 -0.10339493422E+02  0.63854442725E+01  0.19274878232E+02  0.51100000000E-03 0.  1.
        -12    1    3    3    0    0 -0.67722580679E+01 -0.10991800317E+02  0.41788803491E+01  0.13570047698E+02  0.00000000000E+00 0.  1.
</event>
<event>
 7    1  0.1418970E-010  0.4778727E+02  0.7816164E-02  0.1312668E+00
        -11   -1    0    0    0    0  0.00000000000E+00  0.00000000000E+00  0.45593999997E+02  0.45594000000E+02  0.51100000000E-03 0.  1.
         11   -1    0    0    0    0 -0.00000000000E+00 -0.00000000000E+00 -0.45593999997E+02  0.45594000000E+02  0.51100000000E-03 0. -1.
    9900012    2    1    2    0    0  0.38267356179E+02  0.54994059451E+00  0.20467787826E+02  0.47787270489E+02  0.19999997466E+02 0.  0.
         12    1    1    2    0    0 -0.38267356179E+02 -0.54994059451E+00 -0.20467787826E+02  0.43400729511E+02  0.00000000000E+00 0. -1.
         11    1    3    3    0    0  0.15093983702E+02 -0.77306336033E+01  0.55619572633E+01  0.17847308166E+02  0.51100000000E-03 0. -1.
        -11    1    3    3    0    0  0.62955209717E+01  0.18035345330E+01  0.85660190007E+01  0.10782532305E+02  0.51100000000E-03 0.  1.
        -12    1    3    3    0    0  0.16877851506E+02  0.64770396648E+01  0.63398115622E+01  0.19157430019E+02  0.00000000000E+00 0.  1.
</event>
<event>
 7    1  0.1418970E-010  0.4778728E+02  0.7816164E-02  0.1312668E+00
        -11   -1    0    0    0    0  0.00000000000E+00  0.00000000000E+00  0.45593999997E+02  0.45594000000E+02  0.51100000000E-03 0.  1.
         11   -1    0    0    0    0 -0.00000000000E+00 -0.00000000000E+00 -0.45593999997E+02  0.45594000000E+02  0.51100000000E-03 0. -1.
    9900012    2    1    2    0    0 -0.71675629216E+01 -0.41299625094E+02  0.11251218142E+02  0.47787275342E+02  0.20000019596E+02 0.  0.
         12    1    1    2    0    0  0.71675629216E+01  0.41299625094E+02 -0.11251218142E+02  0.43400724658E+02  0.00000000000E+00 0. -1.
         11    1    3    3    0    0 -0.62790718287E+01 -0.25722844811E+02  0.41996577908E+01  0.26809114383E+02  0.51100000000E-03 0. -1.
        -11    1    3    3    0    0 -0.20901021266E+01 -0.10511733048E+02  0.10281627259E+02  0.14851832140E+02  0.51100000000E-03 0.  1.
         12    1    3    3    0    0  0.12016110337E+01 -0.50650472356E+01 -0.32300669075E+01  0.61263288193E+01  0.00000000000E+00 0. -1.
</event>
<event>
 7    1  0.1418970E-010  0.4778727E+02  0.7816164E-02  0.1312668E+00
        -11   -1    0    0    0    0  0.00000000000E+00  0.00000000000E+00  0.45593999997E+02  0.45594000000E+02  0.51100000000E-03 0. -1.
         11   -1    0    0    0    0 -0.00000000000E+00 -0.00000000000E+00 -0.45593999997E+02  0.45594000000E+02  0.51100000000E-03 0.  1.
    9900012    2    1    2    0    0 -0.70935517448E+01 -0.10905453729E+02 -0.41405021951E+02  0.47787271433E+02  0.20000001772E+02 0.  0.
         12    1    1    2    0    0  0.70935517448E+01  0.10905453729E+02  0.41405021951E+02  0.43400728567E+02  0.00000000000E+00 0. -1.
         11    1    3    3    0    0  0.41321387513E+01 -0.55697930895E+01 -0.78622961321E+01  0.10483933730E+02  0.51100000000E-03 0. -1.
        -11    1    3    3    0    0  0.13883022865E+01 -0.78485057711E+00 -0.54573179563E+00  0.16855850975E+01  0.51100000000E-03 0.  1.
        -12    1    3    3    0    0 -0.12613992782E+02 -0.45508100625E+01 -0.32996994023E+02  0.35617752606E+02  0.00000000000E+00 0.  1.
</event>
<event>
 7    1  0.1418970E-010  0.4778727E+02  0.7816164E-02  0.1312668E+00
        -11   -1    0    0    0    0  0.00000000000E+00  0.00000000000E+00  0.45593999997E+02  0.45594000000E+02  0.51100000000E-03 0.  1.
         11   -1    0    0    0    0 -0.00000000000E+00 -0.00000000000E+00 -0.45593999997E+02  0.45594000000E+02  0.51100000000E-03 0. -1.
    9900012    2    1    2    0    0 -0.16559085753E+02 -0.33762568349E+02  0.21668161403E+02  0.47787267735E+02  0.19999984913E+02 0.  0.
         12    1    1    2    0    0  0.16559085753E+02  0.33762568349E+02 -0.21668161403E+02  0.43400732265E+02  0.00000000000E+00 0. -1.
         11    1    3    3    0    0  0.30800616732E+01 -0.11569103994E+01  0.43601713242E+01  0.54622628846E+01  0.51100000000E-03 0. -1.
        -11    1    3    3    0    0 -0.39020884639E+01 -0.76667210705E+01  0.69849781946E+01  0.11081282732E+02  0.51100000000E-03 0.  1.
        -12    1    3    3    0    0 -0.15737058962E+02 -0.24938936879E+02  0.10323011884E+02  0.31243722118E+02  0.00000000000E+00 0.  1.
</event>
<event>
 7    1  0.1418970E-010  0.4778727E+02  0.7816164E-02  0.1312668E+00
        -11   -1    0    0    0    0  0.00000000000E+00  0.00000000000E+00  0.45593999997E+02  0.45594000000E+02  0.51100000000E-03 0.  1.
         11   -1    0    0    0    0 -0.00000000000E+00 -0.00000000000E+00 -0.45593999997E+02  0.45594000000E+02  0.51100000000E-03 0. -1.
    9900012    2    1    2    0    0 -0.62730348660E-01  0.43364217586E+02 -0.17787688597E+01  0.47787270506E+02  0.19999997545E+02 0.  0.
         12    1    1    2    0    0  0.62730348660E-01 -0.43364217586E+02  0.17787688597E+01  0.43400729494E+02  0.00000000000E+00 0. -1.
         11    1    3    3    0    0  0.41711591078E+01  0.19173173965E+02  0.16023242226E+01  0.19686965520E+02  0.51100000000E-03 0. -1.
        -11    1    3    3    0    0 -0.21779487230E+01  0.14349440912E+02  0.46413140802E+01  0.15237838160E+02  0.51100000000E-03 0.  1.
         12    1    3    3    0    0 -0.20559407335E+01  0.98416027092E+01 -0.80224071625E+01  0.12862466827E+02  0.00000000000E+00 0. -1.
</event>
<event>
 7    1  0.1418970E-010  0.4778727E+02  0.7816164E-02  0.1312668E+00
        -11   -1    0    0    0    0  0.00000000000E+00  0.00000000000E+00  0.45593999997E+02  0.45594000000E+02  0.51100000000E-03 0.  1.
         11   -1    0    0    0    0 -0.00000000000E+00 -0.00000000000E+00 -0.45593999997E+02  0.45594000000E+02  0.51100000000E-03 0. -1.
    9900012    2    1    2    0    0  0.35541958315E+02 -0.18286114231E+02  0.16911837672E+02  0.47787273877E+02  0.20000012917E+02 0.  0.
         12    1    1    2    0    0 -0.35541958315E+02  0.18286114231E+02 -0.16911837672E+02  0.43400726123E+02  0.00000000000E+00 0. -1.
         11    1    3    3    0    0  0.14455195451E+02 -0.46615129556E+01  0.91369501075E+01  0.17724735149E+02  0.51100000000E-03 0. -1.
        -11    1    3    3    0    0  0.21937005953E+02 -0.87283486460E+01  0.83877757957E+01  0.25055360371E+02  0.51100000000E-03 0.  1.
         12    1    3    3    0    0 -0.85024308894E+00 -0.48962526295E+01 -0.61288823147E+00  0.50071783577E+01  0.00000000000E+00 0. -1.
</event>
<event>
 7    1  0.1418970E-010  0.4778727E+02  0.7816164E-02  0.1312668E+00
        -11   -1    0    0    0    0  0.00000000000E+00  0.00000000000E+00  0.45593999997E+02  0.45594000000E+02  0.51100000000E-03 0.  1.
         11   -1    0    0    0    0 -0.00000000000E+00 -0.00000000000E+00 -0.45593999997E+02  0.45594000000E+02  0.51100000000E-03 0. -1.
    9900012    2    1    2    0    0 -0.35354054200E+02  0.19052800481E+02  0.16453111733E+02  0.47787271432E+02  0.20000001767E+02 0.  0.
         12    1    1    2    0    0  0.35354054200E+02 -0.19052800481E+02 -0.16453111733E+02  0.43400728568E+02  0.00000000000E+00 0. -1.
         11    1    3    3    0    0 -0.20038384970E+02  0.10347471099E+02  0.15609852897E+02  0.27427623631E+02  0.51100000000E-03 0.  1.
        -11    1    3    3    0    0 -0.62297511953E+01 -0.17662715162E+01  0.43016265556E+00  0.64895728053E+01  0.51100000000E-03 0. -1.
         12    1    3    3    0    0 -0.90859180347E+01  0.10471600899E+02  0.41309618038E+00  0.13870074995E+02  0.00000000000E+00 0. -1.
</event>
<event>
 7    1  0.1418970E-010  0.4778727E+02  0.7816164E-02  0.1312668E+00
        -11   -1    0    0    0    0  0.00000000000E+00  0.00000000000E+00  0.45593999997E+02  0.45594000000E+02  0.51100000000E-03 0.  1.
         11   -1    0    0    0    0 -0.00000000000E+00 -0.00000000000E+00 -0.45593999997E+02  0.45594000000E+02  0.51100000000E-03 0. -1.
    9900012    2    1    2    0    0  0.34883266779E+02 -0.22477261452E+01  0.25724083950E+02  0.47787273404E+02  0.20000010757E+02 0.  0.
         12    1    1    2    0    0 -0.34883266779E+02  0.22477261452E+01 -0.25724083950E+02  0.43400726596E+02  0.00000000000E+00 0. -1.
         11    1    3    3    0    0  0.22584616842E+02  0.36301617784E+00  0.12976666529E+02  0.26049771075E+02  0.51100000000E-03 0. -1.
        -11    1    3    3    0    0  0.14115125432E+02  0.35020341744E+00  0.98759451194E+01  0.17230603607E+02  0.51100000000E-03 0.  1.
         12    1    3    3    0    0 -0.18164754947E+01 -0.29609457405E+01  0.28714723022E+01  0.45068987212E+01  0.00000000000E+00 0. -1.
</event>
<event>
 7    1  0.1418970E-010  0.4778727E+02  0.7816164E-02  0.1312668E+00
        -11   -1    0    0    0    0  0.00000000000E+00  0.00000000000E+00  0.45593999997E+02  0.45594000000E+02  0.51100000000E-03 0.  1.
         11   -1    0    0    0    0 -0.00000000000E+00 -0.00000000000E+00 -0.45593999997E+02  0.45594000000E+02  0.51100000000E-03 0. -1.
    9900012    2    1    2    0    0 -0.11973152867E+02 -0.26130717233E+02  0.32518499804E+02  0.47787267262E+02  0.19999982754E+02 0.  0.
         12    1    1    2    0    0  0.11973152867E+02  0.26130717233E+02 -0.32518499804E+02  0.43400732738E+02  0.00000000000E+00 0. -1.
         11    1    3    3    0    0 -0.76725198045E+01 -0.75887943458E+01  0.37779102886E+01  0.11433720575E+02  0.51100000000E-03 0. -1.
        -11    1    3    3    0    0  0.96131496090E+00 -0.14174255051E+02  0.13275984489E+02  0.19444418148E+02  0.51100000000E-03 0.  1.
        -12    1    3    3    0    0 -0.52619480236E+01 -0.43676678362E+01  0.15464605026E+02  0.16909128539E+02  0.00000000000E+00 0.  1.
</event>
<event>
 7    1  0.1418970E-010  0.4778729E+02  0.7816164E-02  0.1312668E+00
        -11   -1    0    0    0    0  0.00000000000E+00  0.00000000000E+00  0.45593999997E+02  0.45594000000E+02  0.51100000000E-03 0.  1.
         11   -1    0    0    0    0 -0.00000000000E+00 -0.00000000000E+00 -0.45593999997E+02  0.45594000000E+02  0.51100000000E-03 0. -1.
    9900012    2    1    2    0    0  0.99306780087E+01 -0.30064579639E+02  0.29683733065E+02  0.47787293517E+02  0.20000102461E+02 0.  0.
         12    1    1    2    0    0 -0.99306780087E+01  0.30064579639E+02 -0.29683733065E+02  0.43400706483E+02  0.00000000000E+00 0. -1.
         11    1    3    3    0    0 -0.57818937176E+00 -0.53247094519E+01 -0.11585757132E+00  0.53572620745E+01  0.51100000000E-03 0. -1.
        -11    1    3    3    0    0  0.13580710423E+02 -0.21016014227E+02  0.22334517812E+02  0.33540113830E+02  0.51100000000E-03 0.  1.
        -12    1    3    3    0    0 -0.30718430424E+01 -0.37238559599E+01  0.74650728242E+01  0.88899176126E+01  0.00000000000E+00 0.  1.
</event>
<event>
 7    1  0.1418970E-010  0.4778727E+02  0.7816164E-02  0.1312668E+00
        -11   -1    0    0    0    0  0.00000000000E+00  0.00000000000E+00  0.45593999997E+02  0.45594000000E+02  0.51100000000E-03 0.  1.
         11   -1    0    0    0    0 -0.00000000000E+00 -0.00000000000E+00 -0.45593999997E+02  0.45594000000E+02  0.51100000000E-03 0. -1.
    9900012    2    1    2    0    0 -0.35347769057E+02  0.53950285737E+01 -0.24597804668E+02  0.47787272989E+02  0.20000008867E+02 0.  0.
         12    1    1    2    0    0  0.35347769057E+02 -0.53950285737E+01  0.24597804668E+02  0.43400727011E+02  0.00000000000E+00 0. -1.
         11    1    3    3    0    0 -0.21098837081E+02  0.51443145844E+01 -0.13459659949E+02  0.25549703421E+02  0.51100000000E-03 0. -1.
        -11    1    3    3    0    0 -0.40319669304E+01  0.19874389679E+01  0.24726510540E+01  0.51303678694E+01  0.51100000000E-03 0.  1.
         12    1    3    3    0    0 -0.10216965045E+02 -0.17367249786E+01 -0.13610795773E+02  0.17107201699E+02  0.00000000000E+00 0. -1.
</event>
<event>
 7    1  0.1418970E-010  0.4778726E+02  0.7816164E-02  0.1312668E+00
        -11   -1    0    0    0    0  0.00000000000E+00  0.00000000000E+00  0.45593999997E+02  0.45594000000E+02  0.51100000000E-03 0.  1.
         11   -1    0    0    0    0 -0.00000000000E+00 -0.00000000000E+00 -0.45593999997E+02  0.45594000000E+02  0.51100000000E-03 0. -1.
    9900012    2    1    2    0    0 -0.16342689306E+02 -0.27036531319E+02  0.29758468837E+02  0.47787262829E+02  0.19999962541E+02 0.  0.
         12    1    1    2    0    0  0.16342689306E+02  0.27036531319E+02 -0.29758468837E+02  0.43400737171E+02  0.00000000000E+00 0. -1.
         11    1    3    3    0    0  0.15017829198E+00 -0.57235345509E+01  0.10366411408E+00  0.57264428562E+01  0.51100000000E-03 0. -1.
        -11    1    3    3    0    0 -0.14765928891E+02 -0.22301728061E+02  0.23540405136E+02  0.35630750831E+02  0.51100000000E-03 0.  1.
         12    1    3    3    0    0 -0.17269387071E+01  0.98873129324E+00  0.61143995862E+01  0.64300691417E+01  0.00000000000E+00 0. -1.
</event>
<event>
 7    1  0.1418970E-010  0.4778727E+02  0.7816164E-02  0.1312668E+00
        -11   -1    0    0    0    0  0.00000000000E+00  0.00000000000E+00  0.45593999997E+02  0.45594000000E+02  0.51100000000E-03 0. -1.
         11   -1    0    0    0    0 -0.00000000000E+00 -0.00000000000E+00 -0.45593999997E+02  0.45594000000E+02  0.51100000000E-03 0.  1.
    9900012    2    1    2    0    0  0.28141923420E+02 -0.32587229982E+02 -0.54523337150E+01  0.47787270114E+02  0.19999995759E+02 0.  0.
         12    1    1    2    0    0 -0.28141923420E+02  0.32587229982E+02  0.54523337150E+01  0.43400729886E+02  0.00000000000E+00 0. -1.
         11    1    3    3    0    0  0.57454375755E+01 -0.93137045713E+01  0.57569948245E+01  0.12365198561E+02  0.51100000000E-03 0. -1.
        -11    1    3    3    0    0  0.16286426282E+02 -0.12760261558E+02 -0.33917484445E+01  0.20966065769E+02  0.51100000000E-03 0.  1.
        -12    1    3    3    0    0  0.61100595626E+01 -0.10513263853E+02 -0.78175800950E+01  0.14456005784E+02  0.00000000000E+00 0.  1.
</event>
<event>
 7    1  0.1418970E-010  0.4778727E+02  0.7816164E-02  0.1312668E+00
        -11   -1    0    0    0    0  0.00000000000E+00  0.00000000000E+00  0.45593999997E+02  0.45594000000E+02  0.51100000000E-03 0.  1.
         11   -1    0    0    0    0 -0.00000000000E+00 -0.00000000000E+00 -0.45593999997E+02  0.45594000000E+02  0.51100000000E-03 0. -1.
    9900012    2    1    2    0    0  0.27150465746E+02  0.32881826201E+02  0.80784428213E+01  0.47787268175E+02  0.19999986916E+02 0.  0.
         12    1    1    2    0    0 -0.27150465746E+02 -0.32881826201E+02 -0.80784428213E+01  0.43400731825E+02  0.00000000000E+00 0. -1.
         11    1    3    3    0    0  0.10894410338E+02  0.15662626233E+02  0.16422806490E+01  0.19149494070E+02  0.51100000000E-03 0. -1.
        -11    1    3    3    0    0  0.54164663456E+01  0.34728230555E+01  0.88758192242E+01  0.10962608030E+02  0.51100000000E-03 0.  1.
        -12    1    3    3    0    0  0.10839589063E+02  0.13746376912E+02 -0.24396570519E+01  0.17675166075E+02  0.00000000000E+00 0.  1.
</event>
<event>
 7    1  0.1418970E-010  0.4778727E+02  0.7816164E-02  0.1312668E+00
        -11   -1    0    0    0    0  0.00000000000E+00  0.00000000000E+00  0.45593999997E+02  0.45594000000E+02  0.51100000000E-03 0.  1.
         11   -1    0    0    0    0 -0.00000000000E+00 -0.00000000000E+00 -0.45593999997E+02  0.45594000000E+02  0.51100000000E-03 0. -1.
    9900012    2    1    2    0    0 -0.23444233863E+02 -0.70785707846E+01  0.35831337286E+02  0.47787274229E+02  0.20000014518E+02 0.  0.
         12    1    1    2    0    0  0.23444233863E+02  0.70785707846E+01 -0.35831337286E+02  0.43400725771E+02  0.00000000000E+00 0. -1.
         11    1    3    3    0    0 -0.11440137862E+01 -0.12220501345E+01 -0.89823386086E+00  0.18997364039E+01  0.51100000000E-03 0. -1.
        -11    1    3    3    0    0 -0.69800800037E+01 -0.72548017999E+00  0.24881715924E+02  0.25852420117E+02  0.51100000000E-03 0.  1.
        -12    1    3    3    0    0 -0.15320140073E+02 -0.51310404701E+01  0.11847855223E+02  0.20035117708E+02  0.00000000000E+00 0.  1.
</event>
<event>
 7    1  0.1418970E-010  0.4778727E+02  0.7816164E-02  0.1312668E+00
        -11   -1    0    0    0    0  0.00000000000E+00  0.00000000000E+00  0.45593999997E+02  0.45594000000E+02  0.51100000000E-03 0.  1.
         11   -1    0    0    0    0 -0.00000000000E+00 -0.00000000000E+00 -0.45593999997E+02  0.45594000000E+02  0.51100000000E-03 0. -1.
    9900012    2    1    2    0    0 -0.10755094153E+02 -0.35451901662E+02  0.22607827052E+02  0.47787271599E+02  0.20000002530E+02 0.  0.
         12    1    1    2    0    0  0.10755094153E+02  0.35451901662E+02 -0.22607827052E+02  0.43400728401E+02  0.00000000000E+00 0. -1.
         11    1    3    3    0    0 -0.26496842484E+01 -0.60248160349E+01  0.46464261707E+01  0.80565818616E+01  0.51100000000E-03 0. -1.
        -11    1    3    3    0    0 -0.13157584849E+02 -0.26469507975E+02  0.15541689967E+02  0.33396122811E+02  0.51100000000E-03 0.  1.
         12    1    3    3    0    0  0.50521749449E+01 -0.29575776524E+01  0.24197109144E+01  0.63345669271E+01  0.00000000000E+00 0. -1.
</event>
<event>
 7    1  0.1418970E-010  0.4778725E+02  0.7816164E-02  0.1312668E+00
        -11   -1    0    0    0    0  0.00000000000E+00  0.00000000000E+00  0.45593999997E+02  0.45594000000E+02  0.51100000000E-03 0.  1.
         11   -1    0    0    0    0 -0.00000000000E+00 -0.00000000000E+00 -0.45593999997E+02  0.45594000000E+02  0.51100000000E-03 0. -1.
    9900012    2    1    2    0    0  0.18948033848E+02  0.22475005650E+02  0.31929158861E+02  0.47787250569E+02  0.19999906642E+02 0.  0.
         12    1    1    2    0    0 -0.18948033848E+02 -0.22475005650E+02 -0.31929158861E+02  0.43400749431E+02  0.00000000000E+00 0. -1.
         11    1    3    3    0    0  0.15287634615E+02  0.83442949830E+01  0.15905567112E+02  0.23586566013E+02  0.51100000000E-03 0. -1.
        -11    1    3    3    0    0 -0.18583962353E+01 -0.79844327493E+00  0.79782757207E+00  0.21743222683E+01  0.51100000000E-03 0.  1.
        -12    1    3    3    0    0  0.55187954685E+01  0.14929153942E+02  0.15225764177E+02  0.22026362287E+02  0.00000000000E+00 0.  1.
</event>
<event>
 7    1  0.1418970E-010  0.4778727E+02  0.7816164E-02  0.1312668E+00
        -11   -1    0    0    0    0  0.00000000000E+00  0.00000000000E+00  0.45593999997E+02  0.45594000000E+02  0.51100000000E-03 0.  1.
         11   -1    0    0    0    0 -0.00000000000E+00 -0.00000000000E+00 -0.45593999997E+02  0.45594000000E+02  0.51100000000E-03 0. -1.
    9900012    2    1    2    0    0 -0.38469060270E+02 -0.16254733347E+02  0.11812642015E+02  0.47787268835E+02  0.19999989928E+02 0.  0.
         12    1    1    2    0    0  0.38469060270E+02  0.16254733347E+02 -0.11812642015E+02  0.43400731165E+02  0.00000000000E+00 0. -1.
         11    1    3    3    0    0 -0.27842981536E+01 -0.39061623753E+01  0.24993982360E+01  0.54090121569E+01  0.51100000000E-03 0. -1.
        -11    1    3    3    0    0 -0.36683705666E+02 -0.14082684312E+02  0.84163587608E+01  0.40185213125E+02  0.51100000000E-03 0.  1.
        -12    1    3    3    0    0  0.99894354960E+00  0.17341133405E+01  0.89688501780E+00  0.21930435536E+01  0.00000000000E+00 0.  1.
</event>
<event>
 7    1  0.1418970E-010  0.4778727E+02  0.7816164E-02  0.1312668E+00
        -11   -1    0    0    0    0  0.00000000000E+00  0.00000000000E+00  0.45593999997E+02  0.45594000000E+02  0.51100000000E-03 0.  1.
         11   -1    0    0    0    0 -0.00000000000E+00 -0.00000000000E+00 -0.45593999997E+02  0.45594000000E+02  0.51100000000E-03 0. -1.
    9900012    2    1    2    0    0  0.14080293645E+02 -0.48167459275E+01  0.40769692585E+02  0.47787267933E+02  0.19999985815E+02 0.  0.
         12    1    1    2    0    0 -0.14080293645E+02  0.48167459275E+01 -0.40769692585E+02  0.43400732067E+02  0.00000000000E+00 0. -1.
         11    1    3    3    0    0 -0.33779387423E+00 -0.30825978823E+01  0.13941471831E+01  0.34000236815E+01  0.51100000000E-03 0. -1.
        -11    1    3    3    0    0  0.50302472477E+01  0.59613327743E+01  0.20622240290E+02  0.22048076348E+02  0.51100000000E-03 0.  1.
        -12    1    3    3    0    0  0.93878402718E+01 -0.76954808195E+01  0.18753305112E+02  0.22339167904E+02  0.00000000000E+00 0.  1.
</event>
<event>
 7    1  0.1418970E-010  0.4778728E+02  0.7816164E-02  0.1312668E+00
        -11   -1    0    0    0    0  0.00000000000E+00  0.00000000000E+00  0.45593999997E+02  0.45594000000E+02  0.51100000000E-03 0. -1.
         11   -1    0    0    0    0 -0.00000000000E+00 -0.00000000000E+00 -0.45593999997E+02  0.45594000000E+02  0.51100000000E-03 0.  1.
    9900012    2    1    2    0    0 -0.29660286529E+02 -0.98349302236E+01 -0.30119163640E+02  0.47787280330E+02  0.20000042338E+02 0.  0.
         12    1    1    2    0    0  0.29660286529E+02  0.98349302236E+01  0.30119163640E+02  0.43400719670E+02  0.00000000000E+00 0. -1.
         11    1    3    3    0    0  0.16965143313E+01 -0.47425299120E+00  0.13289407161E+01  0.22066174259E+01  0.51100000000E-03 0. -1.
        -11    1    3    3    0    0 -0.84258332705E+01 -0.13101794098E+01 -0.10236130687E+02  0.13322522588E+02  0.51100000000E-03 0.  1.
         12    1    3    3    0    0 -0.22930967590E+02 -0.80504978226E+01 -0.21211973669E+02  0.32258140317E+02  0.00000000000E+00 0. -1.
</event>
<event>
 7    1  0.1418970E-010  0.4778726E+02  0.7816164E-02  0.1312668E+00
        -11   -1    0    0    0    0  0.00000000000E+00  0.00000000000E+00  0.45593999997E+02  0.45594000000E+02  0.51100000000E-03 0.  1.
         11   -1    0    0    0    0 -0.00000000000E+00 -0.00000000000E+00 -0.45593999997E+02  0.45594000000E+02  0.51100000000E-03 0. -1.
    9900012    2    1    2    0    0 -0.51246403498E+01  0.15869316939E+02  0.40069027213E+02  0.47787261520E+02  0.19999956572E+02 0.  0.
         12    1    1    2    0    0  0.51246403498E+01 -0.15869316939E+02 -0.40069027213E+02  0.43400738480E+02  0.00000000000E+00 0. -1.
         11    1    3    3    0    0  0.17038841292E+01  0.12892479179E+02  0.17644904600E+02  0.21919441122E+02  0.51100000000E-03 0. -1.
        -11    1    3    3    0    0 -0.37869741947E+00  0.57410566252E+01  0.11912633518E+02  0.13229284958E+02  0.51100000000E-03 0.  1.
        -12    1    3    3    0    0 -0.64498270596E+01 -0.27642188658E+01  0.10511489096E+02  0.12638535440E+02  0.00000000000E+00 0.  1.
</event>
<event>
 7    1  0.1418970E-010  0.4778727E+02  0.7816164E-02  0.1312668E+00
        -11   -1    0    0    0    0  0.00000000000E+00  0.00000000000E+00  0.45593999997E+02  0.45594000000E+02  0.51100000000E-03 0. -1.
         11   -1    0    0    0    0 -0.00000000000E+00 -0.00000000000E+00 -0.45593999997E+02  0.45594000000E+02  0.51100000000E-03 0.  1.
    9900012    2    1    2    0    0  0.23952117245E+02  0.15691929745E+01 -0.36158773494E+02  0.47787272037E+02  0.20000004527E+02 0.  0.
         12    1    1    2    0    0 -0.23952117245E+02 -0.15691929745E+01  0.36158773494E+02  0.43400727963E+02  0.00000000000E+00 0. -1.
         11    1    3    3    0    0  0.71879544667E+01 -0.16389631754E+01 -0.21328578293E+01  0.76747620476E+01  0.51100000000E-03 0. -1.
        -11    1    3    3    0    0 -0.65991886545E+00  0.11419433117E+01 -0.11421250713E+02  0.11497151628E+02  0.51100000000E-03 0.  1.
         12    1    3    3    0    0  0.17424081644E+02  0.20662128382E+01 -0.22604664951E+02  0.28615358362E+02  0.00000000000E+00 0. -1.
</event>
<event>
 7    1  0.1418970E-010  0.4778727E+02  0.7816164E-02  0.1312668E+00
        -11   -1    0    0    0    0  0.00000000000E+00  0.00000000000E+00  0.45593999997E+02  0.45594000000E+02  0.51100000000E-03 0. -1.
         11   -1    0    0    0    0 -0.00000000000E+00 -0.00000000000E+00 -0.45593999997E+02  0.45594000000E+02  0.51100000000E-03 0.  1.
    9900012    2    1    2    0    0  0.68357138829E+01 -0.39936340516E+02 -0.15555865924E+02  0.47787271403E+02  0.20000001633E+02 0.  0.
         12    1    1    2    0    0 -0.68357138829E+01  0.39936340516E+02  0.15555865924E+02  0.43400728597E+02  0.00000000000E+00 0. -1.
         11    1    3    3    0    0  0.30226389244E+01 -0.66589636197E+01  0.16682188005E+01  0.75007397491E+01  0.51100000000E-03 0. -1.
        -11    1    3    3    0    0  0.56702283126E+01 -0.16265874249E+02 -0.19266256115E+01  0.17333263994E+02  0.51100000000E-03 0.  1.
        -12    1    3    3    0    0 -0.18571533540E+01 -0.17011502648E+02 -0.15297459113E+02  0.22953267659E+02  0.00000000000E+00 0.  1.
</event>
<event>
 7    1  0.1418970E-010  0.4778727E+02  0.7816164E-02  0.1312668E+00
        -11   -1    0    0    0    0  0.00000000000E+00  0.00000000000E+00  0.45593999997E+02  0.45594000000E+02  0.51100000000E-03 0. -1.
         11   -1    0    0    0    0 -0.00000000000E+00 -0.00000000000E+00 -0.45593999997E+02  0.45594000000E+02  0.51100000000E-03 0.  1.
    9900012    2    1    2    0    0 -0.19366147730E+02 -0.30247111562E+02 -0.24365720128E+02  0.47787265523E+02  0.19999974826E+02 0.  0.
         12    1    1    2    0    0  0.19366147730E+02  0.30247111562E+02  0.24365720128E+02  0.43400734477E+02  0.00000000000E+00 0. -1.
         11    1    3    3    0    0 -0.15948097895E+02 -0.12728593468E+02 -0.19457158776E+02  0.28194679392E+02  0.51100000000E-03 0. -1.
        -11    1    3    3    0    0 -0.41965618447E+01 -0.90841168093E+01 -0.48549128556E+01  0.11122162048E+02  0.51100000000E-03 0.  1.
         12    1    3    3    0    0  0.77851200965E+00 -0.84344012854E+01 -0.53648497043E-01  0.84704240834E+01  0.00000000000E+00 0. -1.
</event>
<event>
 7    1  0.1418970E-010  0.4778727E+02  0.7816164E-02  0.1312668E+00
        -11   -1    0    0    0    0  0.00000000000E+00  0.00000000000E+00  0.45593999997E+02  0.45594000000E+02  0.51100000000E-03 0.  1.
         11   -1    0    0    0    0 -0.00000000000E+00 -0.00000000000E+00 -0.45593999997E+02  0.45594000000E+02  0.51100000000E-03 0. -1.
    9900012    2    1    2    0    0 -0.11861519255E+02  0.41732510797E+02 -0.11510766172E+01  0.47787273349E+02  0.20000010506E+02 0.  0.
         12    1    1    2    0    0  0.11861519255E+02 -0.41732510797E+02  0.11510766172E+01  0.43400726651E+02  0.00000000000E+00 0. -1.
         11    1    3    3    0    0 -0.40665678953E-01  0.10340958693E+02 -0.45045736604E+01  0.11279550723E+02  0.51100000000E-03 0. -1.
        -11    1    3    3    0    0 -0.53812225880E+01  0.15258227181E+02  0.86508855420E+01  0.18346903667E+02  0.51100000000E-03 0.  1.
        -12    1    3    3    0    0 -0.64396309882E+01  0.16133324923E+02 -0.52973884988E+01  0.18160818959E+02  0.00000000000E+00 0.  1.
</event>
<event>
 7    1  0.1418970E-010  0.4778727E+02  0.7816164E-02  0.1312668E+00
        -11   -1    0    0    0    0  0.00000000000E+00  0.00000000000E+00  0.45593999997E+02  0.45594000000E+02  0.51100000000E-03 0.  1.
         11   -1    0    0    0    0 -0.00000000000E+00 -0.00000000000E+00 -0.45593999997E+02  0.45594000000E+02  0.51100000000E-03 0. -1.
    9900012    2    1    2    0    0 -0.19122567913E+02 -0.28537483179E+02  0.26524755164E+02  0.47787272053E+02  0.20000004600E+02 0.  0.
         12    1    1    2    0    0  0.19122567913E+02  0.28537483179E+02 -0.26524755164E+02  0.43400727947E+02  0.00000000000E+00 0. -1.
         11    1    3    3    0    0 -0.96390039519E+01 -0.78890515204E+01  0.12264904460E+02  0.17480715453E+02  0.51100000000E-03 0. -1.
        -11    1    3    3    0    0 -0.68424972094E+01 -0.47419083667E+01  0.11100944871E+02  0.13875750081E+02  0.51100000000E-03 0.  1.
         12    1    3    3    0    0 -0.26410667521E+01 -0.15906523292E+02  0.31589058332E+01  0.16430806520E+02  0.00000000000E+00 0. -1.
</event>
<event>
 7    1  0.1418970E-010  0.4778727E+02  0.7816164E-02  0.1312668E+00
        -11   -1    0    0    0    0  0.00000000000E+00  0.00000000000E+00  0.45593999997E+02  0.45594000000E+02  0.51100000000E-03 0.  1.
         11   -1    0    0    0    0 -0.00000000000E+00 -0.00000000000E+00 -0.45593999997E+02  0.45594000000E+02  0.51100000000E-03 0. -1.
    9900012    2    1    2    0    0 -0.40459742177E+02 -0.12338177476E+02  0.97160727737E+01  0.47787269239E+02  0.19999991770E+02 0.  0.
         12    1    1    2    0    0  0.40459742177E+02  0.12338177476E+02 -0.97160727737E+01  0.43400730761E+02  0.00000000000E+00 0. -1.
         11    1    3    3    0    0 -0.11112825862E+02  0.24134769617E+01  0.10718590380E+01  0.11422287501E+02  0.51100000000E-03 0. -1.
        -11    1    3    3    0    0 -0.15048671454E+02 -0.64655154304E+00  0.55021576877E+01  0.16036030709E+02  0.51100000000E-03 0.  1.
        -12    1    3    3    0    0 -0.14298244861E+02 -0.14105102895E+02  0.31420560481E+01  0.20328951030E+02  0.00000000000E+00 0.  1.
</event>
<event>
 7    1  0.1418970E-010  0.4778725E+02  0.7816164E-02  0.1312668E+00
        -11   -1    0    0    0    0  0.00000000000E+00  0.00000000000E+00  0.45593999997E+02  0.45594000000E+02  0.51100000000E-03 0.  1.
         11   -1    0    0    0    0 -0.00000000000E+00 -0.00000000000E+00 -0.45593999997E+02  0.45594000000E+02  0.51100000000E-03 0. -1.
    9900012    2    1    2    0    0  0.13334387381E+02  0.18103674635E+02  0.37122448107E+02  0.47787250288E+02  0.19999905361E+02 0.  0.
         12    1    1    2    0    0 -0.13334387381E+02 -0.18103674635E+02 -0.37122448107E+02  0.43400749712E+02  0.00000000000E+00 0. -1.
         11    1    3    3    0    0 -0.74382710099E+00  0.34252149450E+01  0.24437910697E+01  0.42728785648E+01  0.51100000000E-03 0. -1.
        -11    1    3    3    0    0  0.14988988890E+02  0.65503109756E+01  0.29790341278E+02  0.33985891124E+02  0.51100000000E-03 0.  1.
        -12    1    3    3    0    0 -0.91077440745E+00  0.81281487144E+01  0.48883157597E+01  0.95284805983E+01  0.00000000000E+00 0.  1.
</event>
<event>
 7    1  0.1418970E-010  0.4778727E+02  0.7816164E-02  0.1312668E+00
        -11   -1    0    0    0    0  0.00000000000E+00  0.00000000000E+00  0.45593999997E+02  0.45594000000E+02  0.51100000000E-03 0.  1.
         11   -1    0    0    0    0 -0.00000000000E+00 -0.00000000000E+00 -0.45593999997E+02  0.45594000000E+02  0.51100000000E-03 0. -1.
    9900012    2    1    2    0    0  0.22048903669E+02 -0.11213806852E+02  0.35661182619E+02  0.47787267715E+02  0.19999984819E+02 0.  0.
         12    1    1    2    0    0 -0.22048903669E+02  0.11213806852E+02 -0.35661182619E+02  0.43400732285E+02  0.00000000000E+00 0. -1.
         11    1    3    3    0    0  0.19690725343E+02 -0.87863571018E+00  0.17332706464E+02  0.26247273742E+02  0.51100000000E-03 0.  1.
        -11    1    3    3    0    0 -0.18153154269E-01 -0.29485745339E+01  0.23264132551E+01  0.37558780882E+01  0.51100000000E-03 0. -1.
        -12    1    3    3    0    0  0.23763314800E+01 -0.73865966081E+01  0.16002062900E+02  0.17784115885E+02  0.00000000000E+00 0.  1.
</event>
<event>
 7    1  0.1418970E-010  0.4778727E+02  0.7816164E-02  0.1312668E+00
        -11   -1    0    0    0    0  0.00000000000E+00  0.00000000000E+00  0.45593999997E+02  0.45594000000E+02  0.51100000000E-03 0. -1.
         11   -1    0    0    0    0 -0.00000000000E+00 -0.00000000000E+00 -0.45593999997E+02  0.45594000000E+02  0.51100000000E-03 0.  1.
    9900012    2    1    2    0    0 -0.36984044684E+02 -0.19036827502E+02 -0.12385597668E+02  0.47787269682E+02  0.19999993787E+02 0.  0.
         12    1    1    2    0    0  0.36984044684E+02  0.19036827502E+02  0.12385597668E+02  0.43400730318E+02  0.00000000000E+00 0. -1.
         11    1    3    3    0    0  0.78000959375E+00  0.97010196609E+00 -0.24162056947E+00  0.12680274254E+01  0.51100000000E-03 0. -1.
        -11    1    3    3    0    0  0.84497971283E+00  0.43276520895E+00  0.45543778180E+00  0.10529483726E+01  0.51100000000E-03 0.  1.
        -12    1    3    3    0    0 -0.38609033991E+02 -0.20439694677E+02 -0.12599414881E+02  0.45466293884E+02  0.00000000000E+00 0.  1.
</event>
<event>
 7    1  0.1418970E-010  0.4778727E+02  0.7816164E-02  0.1312668E+00
        -11   -1    0    0    0    0  0.00000000000E+00  0.00000000000E+00  0.45593999997E+02  0.45594000000E+02  0.51100000000E-03 0. -1.
         11   -1    0    0    0    0 -0.00000000000E+00 -0.00000000000E+00 -0.45593999997E+02  0.45594000000E+02  0.51100000000E-03 0.  1.
    9900012    2    1    2    0    0 -0.37003241098E+02  0.14915064224E+02 -0.17085791054E+02  0.47787271336E+02  0.20000001331E+02 0.  0.
         12    1    1    2    0    0  0.37003241098E+02 -0.14915064224E+02  0.17085791054E+02  0.43400728664E+02  0.00000000000E+00 0. -1.
         11    1    3    3    0    0 -0.38311980873E+01  0.39513484708E+01  0.13127347378E+01  0.56581362899E+01  0.51100000000E-03 0. -1.
        -11    1    3    3    0    0 -0.21845354058E+02  0.85634537738E+01 -0.42476989687E+01  0.23845233931E+02  0.51100000000E-03 0.  1.
        -12    1    3    3    0    0 -0.11326688953E+02  0.24002619793E+01 -0.14150826823E+02  0.18283901115E+02  0.00000000000E+00 0.  1.
</event>
<event>
 7    1  0.1418970E-010  0.4778727E+02  0.7816164E-02  0.1312668E+00
        -11   -1    0    0    0    0  0.00000000000E+00  0.00000000000E+00  0.45593999997E+02  0.45594000000E+02  0.51100000000E-03 0.  1.
         11   -1    0    0    0    0 -0.00000000000E+00 -0.00000000000E+00 -0.45593999997E+02  0.45594000000E+02  0.51100000000E-03 0. -1.
    9900012    2    1    2    0    0  0.56392537193E+01  0.26786675028E+02  0.33679314932E+02  0.47787269639E+02  0.19999993594E+02 0.  0.
         12    1    1    2    0    0 -0.56392537193E+01 -0.26786675028E+02 -0.33679314932E+02  0.43400730361E+02  0.00000000000E+00 0. -1.
         11    1    3    3    0    0  0.29887039580E+01  0.50735114817E+01  0.59575505735E-02  0.58883703906E+01  0.51100000000E-03 0. -1.
        -11    1    3    3    0    0  0.38163513014E+01  0.41487946907E+01  0.15960257782E+02  0.16926513621E+02  0.51100000000E-03 0.  1.
        -12    1    3    3    0    0 -0.11658015401E+01  0.17564368855E+02  0.17713099599E+02  0.24972385628E+02  0.00000000000E+00 0.  1.
</event>
<event>
 7    1  0.1418970E-010  0.4778727E+02  0.7816164E-02  0.1312668E+00
        -11   -1    0    0    0    0  0.00000000000E+00  0.00000000000E+00  0.45593999997E+02  0.45594000000E+02  0.51100000000E-03 0.  1.
         11   -1    0    0    0    0 -0.00000000000E+00 -0.00000000000E+00 -0.45593999997E+02  0.45594000000E+02  0.51100000000E-03 0. -1.
    9900012    2    1    2    0    0 -0.18614745384E+02 -0.24072373639E+02  0.30945687181E+02  0.47787268746E+02  0.19999989518E+02 0.  0.
         12    1    1    2    0    0  0.18614745384E+02  0.24072373639E+02 -0.30945687181E+02  0.43400731254E+02  0.00000000000E+00 0. -1.
         11    1    3    3    0    0  0.17288489372E+01  0.67946282184E+00  0.10775486733E+01  0.21474868517E+01  0.51100000000E-03 0. -1.
        -11    1    3    3    0    0 -0.14325090799E+02 -0.11734286135E+02  0.23575652271E+02  0.29978543624E+02  0.51100000000E-03 0.  1.
        -12    1    3    3    0    0 -0.60185035220E+01 -0.13017550326E+02  0.62924862363E+01  0.15661238270E+02  0.00000000000E+00 0.  1.
</event>
<event>
 7    1  0.1618225E-010  0.4778727E+02  0.7816164E-02  0.1312668E+00
        -11   -1    0    0    0    0  0.00000000000E+00  0.00000000000E+00  0.45593999997E+02  0.45594000000E+02  0.51100000000E-03 0. -1.
         11   -1    0    0    0    0 -0.00000000000E+00 -0.00000000000E+00 -0.45593999997E+02  0.45594000000E+02  0.51100000000E-03 0.  1.
    9900012    2    1    2    0    0 -0.43144636053E+02 -0.45875756592E+01 -0.10572800092E+01  0.47787270610E+02  0.19999998019E+02 0.  0.
         12    1    1    2    0    0  0.43144636053E+02  0.45875756592E+01  0.10572800092E+01  0.43400729390E+02  0.00000000000E+00 0. -1.
         11    1    3    3    0    0 -0.98386226173E+01 -0.54248707179E+01  0.43560869049E+01  0.12050029489E+02  0.51100000000E-03 0. -1.
        -11    1    3    3    0    0 -0.39617231595E+01  0.11342756843E+01 -0.48792070875E+01  0.63865870216E+01  0.51100000000E-03 0.  1.
        -12    1    3    3    0    0 -0.29344290276E+02 -0.29698062563E+00 -0.53415982659E+00  0.29350654099E+02  0.00000000000E+00 0.  1.
</event>
<event>
 7    1  0.1418970E-010  0.4778727E+02  0.7816164E-02  0.1312668E+00
        -11   -1    0    0    0    0  0.00000000000E+00  0.00000000000E+00  0.45593999997E+02  0.45594000000E+02  0.51100000000E-03 0. -1.
         11   -1    0    0    0    0 -0.00000000000E+00 -0.00000000000E+00 -0.45593999997E+02  0.45594000000E+02  0.51100000000E-03 0.  1.
    9900012    2    1    2    0    0 -0.39748932765E+02 -0.70207167327E+00 -0.17411281879E+02  0.47787270775E+02  0.19999998770E+02 0.  0.
         12    1    1    2    0    0  0.39748932765E+02  0.70207167327E+00  0.17411281879E+02  0.43400729225E+02  0.00000000000E+00 0. -1.
         11    1    3    3    0    0 -0.38273212682E+01  0.36281666945E+01  0.25190779927E+01  0.58444619810E+01  0.51100000000E-03 0. -1.
        -11    1    3    3    0    0 -0.14747136798E+02 -0.39995304214E+01 -0.51759360875E+01  0.16132718369E+02  0.51100000000E-03 0.  1.
         12    1    3    3    0    0 -0.21174474700E+02 -0.33070794641E+00 -0.14754423784E+02  0.25810090425E+02  0.00000000000E+00 0. -1.
</event>
<event>
 7    1  0.1418970E-010  0.4778727E+02  0.7816164E-02  0.1312668E+00
        -11   -1    0    0    0    0  0.00000000000E+00  0.00000000000E+00  0.45593999997E+02  0.45594000000E+02  0.51100000000E-03 0. -1.
         11   -1    0    0    0    0 -0.00000000000E+00 -0.00000000000E+00 -0.45593999997E+02  0.45594000000E+02  0.51100000000E-03 0.  1.
    9900012    2    1    2    0    0  0.33847521106E+02 -0.26858434551E+02  0.40734822408E+01  0.47787269026E+02  0.19999990797E+02 0.  0.
         12    1    1    2    0    0 -0.33847521106E+02  0.26858434551E+02 -0.40734822408E+01  0.43400730974E+02  0.00000000000E+00 0. -1.
         11    1    3    3    0    0  0.92836316062E+01 -0.40700147553E+01  0.18161303425E+01  0.10298017556E+02  0.51100000000E-03 0. -1.
        -11    1    3    3    0    0  0.59312253735E+01 -0.96602595401E+01 -0.65053496234E+01  0.13069798116E+02  0.51100000000E-03 0.  1.
        -12    1    3    3    0    0  0.18632664126E+02 -0.13128160255E+02  0.87627015218E+01  0.24419453353E+02  0.00000000000E+00 0.  1.
</event>
<event>
 7    1  0.1736335E-010  0.4778728E+02  0.7816164E-02  0.1312668E+00
        -11   -1    0    0    0    0  0.00000000000E+00  0.00000000000E+00  0.45593999997E+02  0.45594000000E+02  0.51100000000E-03 0.  1.
         11   -1    0    0    0    0 -0.00000000000E+00 -0.00000000000E+00 -0.45593999997E+02  0.45594000000E+02  0.51100000000E-03 0. -1.
    9900012    2    1    2    0    0  0.60641100054E+01  0.42680151724E+02 -0.50252939118E+01  0.47787281570E+02  0.20000047991E+02 0.  0.
         12    1    1    2    0    0 -0.60641100054E+01 -0.42680151724E+02  0.50252939118E+01  0.43400718430E+02  0.00000000000E+00 0. -1.
         11    1    3    3    0    0  0.22246258616E+00  0.82962198331E+01  0.53196899963E+01  0.98577814461E+01  0.51100000000E-03 0. -1.
        -11    1    3    3    0    0 -0.20244359697E+01  0.19393689804E+02 -0.44191950540E+01  0.19993569726E+02  0.51100000000E-03 0.  1.
         12    1    3    3    0    0  0.78660833889E+01  0.14990242086E+02 -0.59257888541E+01  0.17935930398E+02  0.00000000000E+00 0. -1.
</event>
<event>
 7    1  0.1418970E-010  0.4778726E+02  0.7816164E-02  0.1312668E+00
        -11   -1    0    0    0    0  0.00000000000E+00  0.00000000000E+00  0.45593999997E+02  0.45594000000E+02  0.51100000000E-03 0. -1.
         11   -1    0    0    0    0 -0.00000000000E+00 -0.00000000000E+00 -0.45593999997E+02  0.45594000000E+02  0.51100000000E-03 0.  1.
    9900012    2    1    2    0    0  0.35364195925E+02  0.25138022000E+02 -0.10381978766E+01  0.47787258551E+02  0.19999943040E+02 0.  0.
         12    1    1    2    0    0 -0.35364195925E+02 -0.25138022000E+02  0.10381978766E+01  0.43400741449E+02  0.00000000000E+00 0. -1.
         11    1    3    3    0    0  0.26025689410E+02  0.13389449543E+02 -0.39737131845E+01  0.29536490398E+02  0.51100000000E-03 0. -1.
        -11    1    3    3    0    0  0.10141542821E+02  0.77359498961E+01  0.49594055261E+01  0.13685449025E+02  0.51100000000E-03 0.  1.
         12    1    3    3    0    0 -0.80303630657E+00  0.40126225604E+01 -0.20238902183E+01  0.45653191277E+01  0.00000000000E+00 0. -1.
</event>
<event>
 7    1  0.1418970E-010  0.4778728E+02  0.7816164E-02  0.1312668E+00
        -11   -1    0    0    0    0  0.00000000000E+00  0.00000000000E+00  0.45593999997E+02  0.45594000000E+02  0.51100000000E-03 0.  1.
         11   -1    0    0    0    0 -0.00000000000E+00 -0.00000000000E+00 -0.45593999997E+02  0.45594000000E+02  0.51100000000E-03 0. -1.
    9900012    2    1    2    0    0 -0.22335130971E+02  0.13058742260E+01  0.37189500543E+02  0.47787281877E+02  0.20000049388E+02 0.  0.
         12    1    1    2    0    0  0.22335130971E+02 -0.13058742260E+01 -0.37189500543E+02  0.43400718123E+02  0.00000000000E+00 0. -1.
         11    1    3    3    0    0  0.13495393932E+01 -0.43071319874E+01  0.45550220736E+01  0.64125555657E+01  0.51100000000E-03 0. -1.
        -11    1    3    3    0    0 -0.11501334128E+01  0.13786353520E+01  0.58356048963E+01  0.61055488752E+01  0.51100000000E-03 0.  1.
        -12    1    3    3    0    0 -0.22534536952E+02  0.42343708614E+01  0.26798873573E+02  0.35269177436E+02  0.00000000000E+00 0.  1.
</event>
<event>
 7    1  0.1418970E-010  0.4778727E+02  0.7816164E-02  0.1312668E+00
        -11   -1    0    0    0    0  0.00000000000E+00  0.00000000000E+00  0.45593999997E+02  0.45594000000E+02  0.51100000000E-03 0.  1.
         11   -1    0    0    0    0 -0.00000000000E+00 -0.00000000000E+00 -0.45593999997E+02  0.45594000000E+02  0.51100000000E-03 0. -1.
    9900012    2    1    2    0    0  0.32979170753E+02 -0.25781518388E+02 -0.11459098887E+02  0.47787270268E+02  0.19999996460E+02 0.  0.
         12    1    1    2    0    0 -0.32979170753E+02  0.25781518388E+02  0.11459098887E+02  0.43400729732E+02  0.00000000000E+00 0. -1.
         11    1    3    3    0    0  0.24483979321E+01  0.14423062856E+01 -0.34960453092E+01  0.45052450455E+01  0.51100000000E-03 0. -1.
        -11    1    3    3    0    0  0.21011831053E+02 -0.12676653581E+02 -0.82665430967E+01  0.25894600311E+02  0.51100000000E-03 0.  1.
        -12    1    3    3    0    0  0.95189417685E+01 -0.14547171092E+02  0.30348951895E+00  0.17387424912E+02  0.00000000000E+00 0.  1.
</event>
<event>
 7    1  0.1418970E-010  0.4778727E+02  0.7816164E-02  0.1312668E+00
        -11   -1    0    0    0    0  0.00000000000E+00  0.00000000000E+00  0.45593999997E+02  0.45594000000E+02  0.51100000000E-03 0.  1.
         11   -1    0    0    0    0 -0.00000000000E+00 -0.00000000000E+00 -0.45593999997E+02  0.45594000000E+02  0.51100000000E-03 0. -1.
    9900012    2    1    2    0    0 -0.34176293130E+02 -0.26681597456E+02 -0.19226496439E+01  0.47787271474E+02  0.20000001960E+02 0.  0.
         12    1    1    2    0    0  0.34176293130E+02  0.26681597456E+02  0.19226496439E+01  0.43400728526E+02  0.00000000000E+00 0. -1.
         11    1    3    3    0    0 -0.12029151642E+02 -0.15412431469E+02  0.62152823023E+01  0.20515196011E+02  0.51100000000E-03 0.  1.
        -11    1    3    3    0    0 -0.86733869578E+01 -0.47400362268E+00 -0.17338545545E+01  0.88576843832E+01  0.51100000000E-03 0. -1.
        -12    1    3    3    0    0 -0.13473754530E+02 -0.10795162365E+02 -0.64040773917E+01  0.18414391080E+02  0.00000000000E+00 0.  1.
</event>
<event>
 7    1  0.1418970E-010  0.4778727E+02  0.7816164E-02  0.1312668E+00
        -11   -1    0    0    0    0  0.00000000000E+00  0.00000000000E+00  0.45593999997E+02  0.45594000000E+02  0.51100000000E-03 0.  1.
         11   -1    0    0    0    0 -0.00000000000E+00 -0.00000000000E+00 -0.45593999997E+02  0.45594000000E+02  0.51100000000E-03 0. -1.
    9900012    2    1    2    0    0 -0.99752902455E+01  0.23300598997E+01  0.42174489426E+02  0.47787272438E+02  0.20000006353E+02 0.  0.
         12    1    1    2    0    0  0.99752902455E+01 -0.23300598997E+01 -0.42174489426E+02  0.43400727562E+02  0.00000000000E+00 0. -1.
         11    1    3    3    0    0 -0.55422172450E+01  0.82404054915E+01  0.32887814205E+02  0.34354457907E+02  0.51100000000E-03 0.  1.
        -11    1    3    3    0    0 -0.50642151494E+01 -0.15730228581E+01  0.55080980921E+01  0.76459022257E+01  0.51100000000E-03 0. -1.
        -12    1    3    3    0    0  0.63114214888E+00 -0.43373227337E+01  0.37785771287E+01  0.57869123051E+01  0.00000000000E+00 0.  1.
</event>
<event>
 7    1  0.1418970E-010  0.4778727E+02  0.7816164E-02  0.1312668E+00
        -11   -1    0    0    0    0  0.00000000000E+00  0.00000000000E+00  0.45593999997E+02  0.45594000000E+02  0.51100000000E-03 0.  1.
         11   -1    0    0    0    0 -0.00000000000E+00 -0.00000000000E+00 -0.45593999997E+02  0.45594000000E+02  0.51100000000E-03 0. -1.
    9900012    2    1    2    0    0  0.22730258057E+02  0.35424450276E+02  0.10586154682E+02  0.47787274434E+02  0.20000015456E+02 0.  0.
         12    1    1    2    0    0 -0.22730258057E+02 -0.35424450276E+02 -0.10586154682E+02  0.43400725566E+02  0.00000000000E+00 0. -1.
         11    1    3    3    0    0  0.23563239422E+01  0.10061755767E+02 -0.93888698945E+00  0.10376545701E+02  0.51100000000E-03 0. -1.
        -11    1    3    3    0    0  0.21914567109E+02  0.25711973260E+02  0.11842490248E+02  0.35799418934E+02  0.51100000000E-03 0.  1.
         12    1    3    3    0    0 -0.15406329943E+01 -0.34927875188E+00 -0.31744857635E+00  0.16113097990E+01  0.00000000000E+00 0. -1.
</event>
<event>
 7    1  0.1418970E-010  0.4778726E+02  0.7816164E-02  0.1312668E+00
        -11   -1    0    0    0    0  0.00000000000E+00  0.00000000000E+00  0.45593999997E+02  0.45594000000E+02  0.51100000000E-03 0.  1.
         11   -1    0    0    0    0 -0.00000000000E+00 -0.00000000000E+00 -0.45593999997E+02  0.45594000000E+02  0.51100000000E-03 0. -1.
    9900012    2    1    2    0    0 -0.38492830192E+01  0.27613159477E+02  0.33261395209E+02  0.47787263056E+02  0.19999963576E+02 0.  0.
         12    1    1    2    0    0  0.38492830192E+01 -0.27613159477E+02 -0.33261395209E+02  0.43400736944E+02  0.00000000000E+00 0. -1.
         11    1    3    3    0    0 -0.59335582594E+01  0.14418337500E+02  0.21539574499E+02  0.26590389989E+02  0.51100000000E-03 0. -1.
        -11    1    3    3    0    0 -0.47715000630E+01  0.49934100410E+01  0.54960318794E+01  0.88265351849E+01  0.51100000000E-03 0.  1.
         12    1    3    3    0    0  0.68557753032E+01  0.82014119364E+01  0.62257888303E+01  0.12370337882E+02  0.00000000000E+00 0. -1.
</event>
<event>
 7    1  0.1418970E-010  0.4778727E+02  0.7816164E-02  0.1312668E+00
        -11   -1    0    0    0    0  0.00000000000E+00  0.00000000000E+00  0.45593999997E+02  0.45594000000E+02  0.51100000000E-03 0. -1.
         11   -1    0    0    0    0 -0.00000000000E+00 -0.00000000000E+00 -0.45593999997E+02  0.45594000000E+02  0.51100000000E-03 0.  1.
    9900012    2    1    2    0    0 -0.32233689044E+02  0.27961342730E+02  0.79231120128E+01  0.47787273040E+02  0.20000009100E+02 0.  0.
         12    1    1    2    0    0  0.32233689044E+02 -0.27961342730E+02 -0.79231120128E+01  0.43400726960E+02  0.00000000000E+00 0. -1.
         11    1    3    3    0    0 -0.43132301238E+01 -0.10998589537E+00 -0.10395540715E+01  0.44380991344E+01  0.51100000000E-03 0. -1.
        -11    1    3    3    0    0 -0.25059638895E+02  0.24728580682E+02  0.21920349158E+01  0.35274540698E+02  0.51100000000E-03 0.  1.
        -12    1    3    3    0    0 -0.28608200254E+01  0.33427479433E+01  0.67706311686E+01  0.80746332085E+01  0.00000000000E+00 0.  1.
</event>
<event>
 7    1  0.1418970E-010  0.4778727E+02  0.7816164E-02  0.1312668E+00
        -11   -1    0    0    0    0  0.00000000000E+00  0.00000000000E+00  0.45593999997E+02  0.45594000000E+02  0.51100000000E-03 0. -1.
         11   -1    0    0    0    0 -0.00000000000E+00 -0.00000000000E+00 -0.45593999997E+02  0.45594000000E+02  0.51100000000E-03 0.  1.
    9900012    2    1    2    0    0 -0.27307374722E+02  0.31244705222E+02 -0.12716085332E+02  0.47787272532E+02  0.20000006783E+02 0.  0.
         12    1    1    2    0    0  0.27307374722E+02 -0.31244705222E+02  0.12716085332E+02  0.43400727468E+02  0.00000000000E+00 0. -1.
         11    1    3    3    0    0 -0.11196599831E+02  0.17562845144E+02  0.24852954518E+01  0.20976035637E+02  0.51100000000E-03 0. -1.
        -11    1    3    3    0    0 -0.26365643874E+01 -0.11079998470E+00 -0.29892031180E+01  0.39873655398E+01  0.51100000000E-03 0.  1.
         12    1    3    3    0    0 -0.13474210503E+02  0.13792660062E+02 -0.12212177666E+02  0.22823871355E+02  0.00000000000E+00 0. -1.
</event>
<event>
 7    1  0.1418970E-010  0.4778726E+02  0.7816164E-02  0.1312668E+00
        -11   -1    0    0    0    0  0.00000000000E+00  0.00000000000E+00  0.45593999997E+02  0.45594000000E+02  0.51100000000E-03 0.  1.
         11   -1    0    0    0    0 -0.00000000000E+00 -0.00000000000E+00 -0.45593999997E+02  0.45594000000E+02  0.51100000000E-03 0. -1.
    9900012    2    1    2    0    0 -0.11649240954E+02  0.40073127472E+02 -0.11919038569E+02  0.47787264515E+02  0.19999970231E+02 0.  0.
         12    1    1    2    0    0  0.11649240954E+02 -0.40073127472E+02  0.11919038569E+02  0.43400735485E+02  0.00000000000E+00 0. -1.
         11    1    3    3    0    0 -0.32781425692E+01  0.11958011559E+02  0.16197998138E+01  0.12504559602E+02  0.51100000000E-03 0. -1.
        -11    1    3    3    0    0  0.10826162210E+01  0.41488217484E+01  0.24722017142E+01  0.49494001009E+01  0.51100000000E-03 0.  1.
        -12    1    3    3    0    0 -0.94537146057E+01  0.23966294165E+02 -0.16011040097E+02  0.30333304812E+02  0.00000000000E+00 0.  1.
</event>
<event>
 7    1  0.1418970E-010  0.4778727E+02  0.7816164E-02  0.1312668E+00
        -11   -1    0    0    0    0  0.00000000000E+00  0.00000000000E+00  0.45593999997E+02  0.45594000000E+02  0.51100000000E-03 0.  1.
         11   -1    0    0    0    0 -0.00000000000E+00 -0.00000000000E+00 -0.45593999997E+02  0.45594000000E+02  0.51100000000E-03 0. -1.
    9900012    2    1    2    0    0  0.23452340763E+02 -0.35262556547E+02  0.94954325987E+01  0.47787269341E+02  0.19999992232E+02 0.  0.
         12    1    1    2    0    0 -0.23452340763E+02  0.35262556547E+02 -0.94954325987E+01  0.43400730659E+02  0.00000000000E+00 0. -1.
         11    1    3    3    0    0 -0.36606031931E+00 -0.70531529298E+01  0.20912464775E+01  0.73657503691E+01  0.51100000000E-03 0. -1.
        -11    1    3    3    0    0  0.14210769313E+02 -0.87425004137E+01  0.84204375882E+01  0.18689062239E+02  0.51100000000E-03 0.  1.
        -12    1    3    3    0    0  0.96076317693E+01 -0.19466903204E+02 -0.10162514669E+01  0.21732456732E+02  0.00000000000E+00 0.  1.
</event>
<event>
 7    1  0.1418970E-010  0.4778726E+02  0.7816164E-02  0.1312668E+00
        -11   -1    0    0    0    0  0.00000000000E+00  0.00000000000E+00  0.45593999997E+02  0.45594000000E+02  0.51100000000E-03 0.  1.
         11   -1    0    0    0    0 -0.00000000000E+00 -0.00000000000E+00 -0.45593999997E+02  0.45594000000E+02  0.51100000000E-03 0. -1.
    9900012    2    1    2    0    0  0.27356940935E+02  0.22461219766E+02  0.25114048035E+02  0.47787262456E+02  0.19999960840E+02 0.  0.
         12    1    1    2    0    0 -0.27356940935E+02 -0.22461219766E+02 -0.25114048035E+02  0.43400737544E+02  0.00000000000E+00 0. -1.
         11    1    3    3    0    0  0.78613812742E+01 -0.24997193176E+01  0.45980231634E+01  0.94441373072E+01  0.51100000000E-03 0. -1.
        -11    1    3    3    0    0  0.83346240778E+01  0.95230721775E+01  0.12128121106E+02  0.17528439293E+02  0.51100000000E-03 0.  1.
         12    1    3    3    0    0  0.11160935583E+02  0.15437866906E+02  0.83879037659E+01  0.20814685856E+02  0.00000000000E+00 0. -1.
</event>
<event>
 7    1  0.1418970E-010  0.4778730E+02  0.7816164E-02  0.1312668E+00
        -11   -1    0    0    0    0  0.00000000000E+00  0.00000000000E+00  0.45593999997E+02  0.45594000000E+02  0.51100000000E-03 0.  1.
         11   -1    0    0    0    0 -0.00000000000E+00 -0.00000000000E+00 -0.45593999997E+02  0.45594000000E+02  0.51100000000E-03 0. -1.
    9900012    2    1    2    0    0  0.56539258974E+01 -0.42864094032E+02  0.37846696099E+01  0.47787295406E+02  0.20000111072E+02 0.  0.
         12    1    1    2    0    0 -0.56539258974E+01  0.42864094032E+02 -0.37846696099E+01  0.43400704594E+02  0.00000000000E+00 0. -1.
         11    1    3    3    0    0 -0.70057157359E+00 -0.48944708073E+01  0.42466746111E+01  0.65177366107E+01  0.51100000000E-03 0. -1.
        -11    1    3    3    0    0  0.11081317200E+02 -0.25117987285E+02  0.11739524025E+01  0.27478847149E+02  0.51100000000E-03 0.  1.
        -12    1    3    3    0    0 -0.47268197287E+01 -0.12851635939E+02 -0.16359574037E+01  0.13790711646E+02  0.00000000000E+00 0.  1.
</event>
<event>
 7    1  0.1418970E-010  0.4778725E+02  0.7816164E-02  0.1312668E+00
        -11   -1    0    0    0    0  0.00000000000E+00  0.00000000000E+00  0.45593999997E+02  0.45594000000E+02  0.51100000000E-03 0.  1.
         11   -1    0    0    0    0 -0.00000000000E+00 -0.00000000000E+00 -0.45593999997E+02  0.45594000000E+02  0.51100000000E-03 0. -1.
    9900012    2    1    2    0    0  0.23881098268E+02 -0.82948724735E+01  0.35277657630E+02  0.47787252406E+02  0.19999915020E+02 0.  0.
         12    1    1    2    0    0 -0.23881098268E+02  0.82948724735E+01 -0.35277657630E+02  0.43400747594E+02  0.00000000000E+00 0. -1.
         11    1    3    3    0    0 -0.29580655181E+01  0.27559779308E-01  0.56295252992E+01  0.63594391660E+01  0.51100000000E-03 0. -1.
        -11    1    3    3    0    0  0.88598596352E+01 -0.13208348063E+01  0.54745174858E+01  0.10498193145E+02  0.51100000000E-03 0.  1.
        -12    1    3    3    0    0  0.17979304151E+02 -0.70015974465E+01  0.24173614845E+02  0.30929620095E+02  0.00000000000E+00 0.  1.
</event>
<event>
 7    1  0.1418970E-010  0.4778727E+02  0.7816164E-02  0.1312668E+00
        -11   -1    0    0    0    0  0.00000000000E+00  0.00000000000E+00  0.45593999997E+02  0.45594000000E+02  0.51100000000E-03 0.  1.
         11   -1    0    0    0    0 -0.00000000000E+00 -0.00000000000E+00 -0.45593999997E+02  0.45594000000E+02  0.51100000000E-03 0. -1.
    9900012    2    1    2    0    0  0.24150051419E+02  0.20120166285E+02  0.29926197426E+02  0.47787269969E+02  0.19999995095E+02 0.  0.
         12    1    1    2    0    0 -0.24150051419E+02 -0.20120166285E+02 -0.29926197426E+02  0.43400730031E+02  0.00000000000E+00 0. -1.
         11    1    3    3    0    0  0.98848452438E+01  0.81294360430E+01  0.24310025567E+02  0.27473173082E+02  0.51100000000E-03 0.  1.
        -11    1    3    3    0    0  0.62707175671E+01  0.87942885557E+01  0.41986614772E+01  0.11588363494E+02  0.51100000000E-03 0. -1.
        -12    1    3    3    0    0  0.79944886082E+01  0.31964416862E+01  0.14175103820E+01  0.87257333929E+01  0.00000000000E+00 0.  1.
</event>
<event>
 7    1  0.1418970E-010  0.4778727E+02  0.7816164E-02  0.1312668E+00
        -11   -1    0    0    0    0  0.00000000000E+00  0.00000000000E+00  0.45593999997E+02  0.45594000000E+02  0.51100000000E-03 0. -1.
         11   -1    0    0    0    0 -0.00000000000E+00 -0.00000000000E+00 -0.45593999997E+02  0.45594000000E+02  0.51100000000E-03 0.  1.
    9900012    2    1    2    0    0  0.29801571625E+02  0.28628061188E+02 -0.13263634528E+02  0.47787267752E+02  0.19999984989E+02 0.  0.
         12    1    1    2    0    0 -0.29801571625E+02 -0.28628061188E+02  0.13263634528E+02  0.43400732248E+02  0.00000000000E+00 0. -1.
         11    1    3    3    0    0  0.12328621374E+02  0.47729865486E+01  0.17304064343E+01  0.13333064624E+02  0.51100000000E-03 0. -1.
        -11    1    3    3    0    0  0.12961352325E+02  0.10509998913E+02 -0.10279748820E+02  0.19599233845E+02  0.51100000000E-03 0.  1.
         12    1    3    3    0    0  0.45115979261E+01  0.13345075726E+02 -0.47142921427E+01  0.14854969283E+02  0.00000000000E+00 0. -1.
</event>
<event>
 7    1  0.1418970E-010  0.4778727E+02  0.7816164E-02  0.1312668E+00
        -11   -1    0    0    0    0  0.00000000000E+00  0.00000000000E+00  0.45593999997E+02  0.45594000000E+02  0.51100000000E-03 0.  1.
         11   -1    0    0    0    0 -0.00000000000E+00 -0.00000000000E+00 -0.45593999997E+02  0.45594000000E+02  0.51100000000E-03 0. -1.
    9900012    2    1    2    0    0 -0.23106520115E+02 -0.36628320131E+02  0.28422353425E+01  0.47787269486E+02  0.19999992892E+02 0.  0.
         12    1    1    2    0    0  0.23106520115E+02  0.36628320131E+02 -0.28422353425E+01  0.43400730514E+02  0.00000000000E+00 0. -1.
         11    1    3    3    0    0 -0.75297789307E+01 -0.95391165917E+01 -0.36662320690E+01  0.12693840000E+02  0.51100000000E-03 0. -1.
        -11    1    3    3    0    0 -0.16217105942E+02 -0.25730760223E+02  0.21583764798E+01  0.30491394460E+02  0.51100000000E-03 0.  1.
         12    1    3    3    0    0  0.64036475837E+00 -0.13584433166E+01  0.43500909317E+01  0.46020350262E+01  0.00000000000E+00 0. -1.
</event>
<event>
 7    1  0.1418970E-010  0.4778727E+02  0.7816164E-02  0.1312668E+00
        -11   -1    0    0    0    0  0.00000000000E+00  0.00000000000E+00  0.45593999997E+02  0.45594000000E+02  0.51100000000E-03 0.  1.
         11   -1    0    0    0    0 -0.00000000000E+00 -0.00000000000E+00 -0.45593999997E+02  0.45594000000E+02  0.51100000000E-03 0. -1.
    9900012    2    1    2    0    0  0.20380806054E+02 -0.28497735360E+02  0.25614941803E+02  0.47787269365E+02  0.19999992344E+02 0.  0.
         12    1    1    2    0    0 -0.20380806054E+02  0.28497735360E+02 -0.25614941803E+02  0.43400730635E+02  0.00000000000E+00 0. -1.
         11    1    3    3    0    0  0.79708712818E+01 -0.77300978083E+01 -0.58019527746E+00  0.11118715211E+02  0.51100000000E-03 0. -1.
        -11    1    3    3    0    0  0.10222781753E+02 -0.94089733338E+01  0.12010412752E+02  0.18365295007E+02  0.51100000000E-03 0.  1.
        -12    1    3    3    0    0  0.21871530190E+01 -0.11358664218E+02  0.14184724328E+02  0.18303259147E+02  0.00000000000E+00 0.  1.
</event>
<event>
 7    1  0.1418970E-010  0.4778727E+02  0.7816164E-02  0.1312668E+00
        -11   -1    0    0    0    0  0.00000000000E+00  0.00000000000E+00  0.45593999997E+02  0.45594000000E+02  0.51100000000E-03 0.  1.
         11   -1    0    0    0    0 -0.00000000000E+00 -0.00000000000E+00 -0.45593999997E+02  0.45594000000E+02  0.51100000000E-03 0. -1.
    9900012    2    1    2    0    0 -0.27480829201E+02 -0.85234643796E+01  0.32492733224E+02  0.47787272691E+02  0.20000007508E+02 0.  0.
         12    1    1    2    0    0  0.27480829201E+02  0.85234643796E+01 -0.32492733224E+02  0.43400727309E+02  0.00000000000E+00 0. -1.
         11    1    3    3    0    0 -0.56335786419E+01 -0.44653392548E+00  0.50418887625E+01  0.75734565038E+01  0.51100000000E-03 0. -1.
        -11    1    3    3    0    0 -0.98392503828E+01  0.31824887581E+01  0.19183605492E+02  0.21793343082E+02  0.51100000000E-03 0.  1.
         12    1    3    3    0    0 -0.12008000176E+02 -0.11259419212E+02  0.82672389699E+01  0.18420473105E+02  0.00000000000E+00 0. -1.
</event>
<event>
 7    1  0.1418970E-010  0.4778724E+02  0.7816164E-02  0.1312668E+00
        -11   -1    0    0    0    0  0.00000000000E+00  0.00000000000E+00  0.45593999997E+02  0.45594000000E+02  0.51100000000E-03 0.  1.
         11   -1    0    0    0    0 -0.00000000000E+00 -0.00000000000E+00 -0.45593999997E+02  0.45594000000E+02  0.51100000000E-03 0. -1.
    9900012    2    1    2    0    0  0.20191583528E+02 -0.31256699622E+02  0.22337072294E+02  0.47787238310E+02  0.19999850749E+02 0.  0.
         12    1    1    2    0    0 -0.20191583528E+02  0.31256699622E+02 -0.22337072294E+02  0.43400761690E+02  0.00000000000E+00 0. -1.
         11    1    3    3    0    0 -0.15749474244E+01 -0.42184979140E+01  0.13038208107E+01  0.46878708395E+01  0.51100000000E-03 0. -1.
        -11    1    3    3    0    0  0.15508222469E+02 -0.27192293086E+02  0.18373778283E+02  0.36297678935E+02  0.51100000000E-03 0.  1.
         12    1    3    3    0    0  0.62583084834E+01  0.15409137785E+00  0.26594731998E+01  0.68016885349E+01  0.00000000000E+00 0. -1.
</event>
<event>
 7    1  0.1418970E-010  0.4778727E+02  0.7816164E-02  0.1312668E+00
        -11   -1    0    0    0    0  0.00000000000E+00  0.00000000000E+00  0.45593999997E+02  0.45594000000E+02  0.51100000000E-03 0.  1.
         11   -1    0    0    0    0 -0.00000000000E+00 -0.00000000000E+00 -0.45593999997E+02  0.45594000000E+02  0.51100000000E-03 0. -1.
    9900012    2    1    2    0    0  0.11350847007E+01  0.13177887166E+02  0.41336160694E+02  0.47787270647E+02  0.19999998188E+02 0.  0.
         12    1    1    2    0    0 -0.11350847007E+01 -0.13177887166E+02 -0.41336160694E+02  0.43400729353E+02  0.00000000000E+00 0. -1.
         11    1    3    3    0    0 -0.31182719237E+01  0.36339623359E+01  0.20062472893E+02  0.20626005937E+02  0.51100000000E-03 0. -1.
        -11    1    3    3    0    0  0.50819574603E+01  0.11109057398E+02  0.22065404811E+02  0.25221410302E+02  0.51100000000E-03 0.  1.
         12    1    3    3    0    0 -0.82860083592E+00 -0.15651325677E+01 -0.79171701013E+00  0.19398544079E+01  0.00000000000E+00 0. -1.
</event>
<event>
 7    1  0.1418970E-010  0.4778728E+02  0.7816164E-02  0.1312668E+00
        -11   -1    0    0    0    0  0.00000000000E+00  0.00000000000E+00  0.45593999997E+02  0.45594000000E+02  0.51100000000E-03 0.  1.
         11   -1    0    0    0    0 -0.00000000000E+00 -0.00000000000E+00 -0.45593999997E+02  0.45594000000E+02  0.51100000000E-03 0. -1.
    9900012    2    1    2    0    0 -0.38440380515E+02 -0.17663647319E+02 -0.96930391613E+01  0.47787282276E+02  0.20000051208E+02 0.  0.
         12    1    1    2    0    0  0.38440380515E+02  0.17663647319E+02  0.96930391613E+01  0.43400717724E+02  0.00000000000E+00 0. -1.
         11    1    3    3    0    0 -0.34512286525E+02 -0.95566712707E+01 -0.31648428110E+01  0.35950578816E+02  0.51100000000E-03 0.  1.
        -11    1    3    3    0    0 -0.41405228740E+01 -0.69628505829E+01 -0.39597065800E+01  0.90169004858E+01  0.51100000000E-03 0. -1.
        -12    1    3    3    0    0  0.21242888319E+00 -0.11441254658E+01 -0.25684897703E+01  0.28198029740E+01  0.00000000000E+00 0.  1.
</event>
<event>
 7    1  0.1418970E-010  0.4778727E+02  0.7816164E-02  0.1312668E+00
        -11   -1    0    0    0    0  0.00000000000E+00  0.00000000000E+00  0.45593999997E+02  0.45594000000E+02  0.51100000000E-03 0.  1.
         11   -1    0    0    0    0 -0.00000000000E+00 -0.00000000000E+00 -0.45593999997E+02  0.45594000000E+02  0.51100000000E-03 0. -1.
    9900012    2    1    2    0    0  0.33516891773E+01 -0.88516410274E+01  0.42356082169E+02  0.47787273440E+02  0.20000010924E+02 0.  0.
         12    1    1    2    0    0 -0.33516891773E+01  0.88516410274E+01 -0.42356082169E+02  0.43400726560E+02  0.00000000000E+00 0. -1.
         11    1    3    3    0    0 -0.39170688440E+01 -0.43147750640E+01  0.62296787565E+01  0.85305105270E+01  0.51100000000E-03 0. -1.
        -11    1    3    3    0    0  0.71446211731E+01 -0.70216567642E+01  0.15334578378E+02  0.18316620041E+02  0.51100000000E-03 0.  1.
         12    1    3    3    0    0  0.12413684819E+00  0.24847908007E+01  0.20791825034E+02  0.20940142872E+02  0.00000000000E+00 0. -1.
</event>
<event>
 7    1  0.1418970E-010  0.4778727E+02  0.7816164E-02  0.1312668E+00
        -11   -1    0    0    0    0  0.00000000000E+00  0.00000000000E+00  0.45593999997E+02  0.45594000000E+02  0.51100000000E-03 0. -1.
         11   -1    0    0    0    0 -0.00000000000E+00 -0.00000000000E+00 -0.45593999997E+02  0.45594000000E+02  0.51100000000E-03 0.  1.
    9900012    2    1    2    0    0  0.92157734480E+01  0.37672182144E+02 -0.19480743070E+02  0.47787272606E+02  0.20000007120E+02 0.  0.
         12    1    1    2    0    0 -0.92157734480E+01 -0.37672182144E+02  0.19480743070E+02  0.43400727394E+02  0.00000000000E+00 0. -1.
         11    1    3    3    0    0 -0.27702561496E+01  0.37377633401E+01 -0.12576820410E+01  0.48194354751E+01  0.51100000000E-03 0. -1.
        -11    1    3    3    0    0  0.10492607592E+02  0.35337225538E+02 -0.17335249719E+02  0.40734815648E+02  0.51100000000E-03 0.  1.
         12    1    3    3    0    0  0.14934220060E+01 -0.14028067339E+01 -0.88781131051E+00  0.22330214830E+01  0.00000000000E+00 0. -1.
</event>
<event>
 7    1  0.1418970E-010  0.4778727E+02  0.7816164E-02  0.1312668E+00
        -11   -1    0    0    0    0  0.00000000000E+00  0.00000000000E+00  0.45593999997E+02  0.45594000000E+02  0.51100000000E-03 0. -1.
         11   -1    0    0    0    0 -0.00000000000E+00 -0.00000000000E+00 -0.45593999997E+02  0.45594000000E+02  0.51100000000E-03 0.  1.
    9900012    2    1    2    0    0 -0.33540277814E+02  0.26503822729E+02 -0.74980510040E+01  0.47787267011E+02  0.19999981610E+02 0.  0.
         12    1    1    2    0    0  0.33540277814E+02 -0.26503822729E+02  0.74980510040E+01  0.43400732989E+02  0.00000000000E+00 0. -1.
         11    1    3    3    0    0 -0.20302554248E+02  0.24225308836E+02 -0.39303694255E+01  0.31851328093E+02  0.51100000000E-03 0. -1.
        -11    1    3    3    0    0  0.32364950551E+00  0.35438523705E+00 -0.21071292362E+01  0.21610950414E+01  0.51100000000E-03 0.  1.
         12    1    3    3    0    0 -0.13561373072E+02  0.19241286560E+01 -0.14605523422E+01  0.13774843877E+02  0.00000000000E+00 0. -1.
</event>
<event>
 7    1  0.1418970E-010  0.4778728E+02  0.7816164E-02  0.1312668E+00
        -11   -1    0    0    0    0  0.00000000000E+00  0.00000000000E+00  0.45593999997E+02  0.45594000000E+02  0.51100000000E-03 0.  1.
         11   -1    0    0    0    0 -0.00000000000E+00 -0.00000000000E+00 -0.45593999997E+02  0.45594000000E+02  0.51100000000E-03 0. -1.
    9900012    2    1    2    0    0  0.13471432720E+02  0.24234867865E+02  0.33388829205E+02  0.47787283005E+02  0.20000054535E+02 0.  0.
         12    1    1    2    0    0 -0.13471432720E+02 -0.24234867865E+02 -0.33388829205E+02  0.43400716995E+02  0.00000000000E+00 0. -1.
         11    1    3    3    0    0  0.15056364502E+02  0.12323003968E+02  0.12928675347E+02  0.23360247972E+02  0.51100000000E-03 0. -1.
        -11    1    3    3    0    0  0.18963526046E+01  0.74256662335E+01  0.11933873411E+02  0.14182877249E+02  0.51100000000E-03 0.  1.
        -12    1    3    3    0    0 -0.34812843867E+01  0.44861976637E+01  0.85262804470E+01  0.10244157785E+02  0.00000000000E+00 0.  1.
</event>
<event>
 7    1  0.1418970E-010  0.4778727E+02  0.7816164E-02  0.1312668E+00
        -11   -1    0    0    0    0  0.00000000000E+00  0.00000000000E+00  0.45593999997E+02  0.45594000000E+02  0.51100000000E-03 0.  1.
         11   -1    0    0    0    0 -0.00000000000E+00 -0.00000000000E+00 -0.45593999997E+02  0.45594000000E+02  0.51100000000E-03 0. -1.
    9900012    2    1    2    0    0 -0.16824321675E+02  0.17709152992E+02  0.35874102450E+02  0.47787272746E+02  0.20000007760E+02 0.  0.
         12    1    1    2    0    0  0.16824321675E+02 -0.17709152992E+02 -0.35874102450E+02  0.43400727254E+02  0.00000000000E+00 0. -1.
         11    1    3    3    0    0  0.41884375920E+01  0.53020246339E+01  0.54453084601E+01  0.86778948580E+01  0.51100000000E-03 0. -1.
        -11    1    3    3    0    0 -0.87014968354E+01  0.35809472223E+01  0.12235600547E+02  0.15435321544E+02  0.51100000000E-03 0.  1.
         12    1    3    3    0    0 -0.12311262431E+02  0.88261811362E+01  0.18193193444E+02  0.23674056344E+02  0.00000000000E+00 0. -1.
</event>
<event>
 7    1  0.1418970E-010  0.4778726E+02  0.7816164E-02  0.1312668E+00
        -11   -1    0    0    0    0  0.00000000000E+00  0.00000000000E+00  0.45593999997E+02  0.45594000000E+02  0.51100000000E-03 0.  1.
         11   -1    0    0    0    0 -0.00000000000E+00 -0.00000000000E+00 -0.45593999997E+02  0.45594000000E+02  0.51100000000E-03 0. -1.
    9900012    2    1    2    0    0 -0.77335965280E+01  0.17645629026E+02  0.38890198094E+02  0.47787259836E+02  0.19999948895E+02 0.  0.
         12    1    1    2    0    0  0.77335965280E+01 -0.17645629026E+02 -0.38890198094E+02  0.43400740164E+02  0.00000000000E+00 0. -1.
         11    1    3    3    0    0 -0.70227031610E+01  0.93198392455E+01  0.99388863200E+01  0.15328379718E+02  0.51100000000E-03 0. -1.
        -11    1    3    3    0    0 -0.32728439583E+01  0.99329334493E+01  0.26739868836E+02  0.28712284132E+02  0.51100000000E-03 0.  1.
        -12    1    3    3    0    0  0.25619505914E+01 -0.16071436685E+01  0.22114429388E+01  0.37465959851E+01  0.00000000000E+00 0.  1.
</event>
<event>
 7    1  0.1418970E-010  0.4778727E+02  0.7816164E-02  0.1312668E+00
        -11   -1    0    0    0    0  0.00000000000E+00  0.00000000000E+00  0.45593999997E+02  0.45594000000E+02  0.51100000000E-03 0. -1.
         11   -1    0    0    0    0 -0.00000000000E+00 -0.00000000000E+00 -0.45593999997E+02  0.45594000000E+02  0.51100000000E-03 0.  1.
    9900012    2    1    2    0    0 -0.40228493649E+01  0.25103428907E+02 -0.35174681242E+02  0.47787266591E+02  0.19999979697E+02 0.  0.
         12    1    1    2    0    0  0.40228493649E+01 -0.25103428907E+02  0.35174681242E+02  0.43400733409E+02  0.00000000000E+00 0. -1.
         11    1    3    3    0    0  0.16441897328E+01 -0.11638355540E+01 -0.34030412317E+01  0.39545622969E+01  0.51100000000E-03 0. -1.
        -11    1    3    3    0    0  0.19115162686E+01  0.20622815698E+02 -0.20805137385E+02  0.29356569344E+02  0.51100000000E-03 0.  1.
         12    1    3    3    0    0 -0.75785553663E+01  0.56444487632E+01 -0.10966502625E+02  0.14476134951E+02  0.00000000000E+00 0. -1.
</event>
<event>
 7    1  0.1418970E-010  0.4778727E+02  0.7816164E-02  0.1312668E+00
        -11   -1    0    0    0    0  0.00000000000E+00  0.00000000000E+00  0.45593999997E+02  0.45594000000E+02  0.51100000000E-03 0. -1.
         11   -1    0    0    0    0 -0.00000000000E+00 -0.00000000000E+00 -0.45593999997E+02  0.45594000000E+02  0.51100000000E-03 0.  1.
    9900012    2    1    2    0    0 -0.28163420163E+02  0.32612415243E+02 -0.51841532780E+01  0.47787270646E+02  0.19999998182E+02 0.  0.
         12    1    1    2    0    0  0.28163420163E+02 -0.32612415243E+02  0.51841532780E+01  0.43400729354E+02  0.00000000000E+00 0. -1.
         11    1    3    3    0    0 -0.55593675449E+01  0.94717510394E+00 -0.55926975814E-01  0.56397549827E+01  0.51100000000E-03 0.  1.
        -11    1    3    3    0    0 -0.77484270801E+01  0.23731136365E+02 -0.38271183230E+01  0.25255727872E+02  0.51100000000E-03 0. -1.
         12    1    3    3    0    0 -0.14855625538E+02  0.79341037739E+01 -0.13011079792E+01  0.16891787792E+02  0.00000000000E+00 0. -1.
</event>
<event>
 7    1  0.1418970E-010  0.4778725E+02  0.7816164E-02  0.1312668E+00
        -11   -1    0    0    0    0  0.00000000000E+00  0.00000000000E+00  0.45593999997E+02  0.45594000000E+02  0.51100000000E-03 0. -1.
         11   -1    0    0    0    0 -0.00000000000E+00 -0.00000000000E+00 -0.45593999997E+02  0.45594000000E+02  0.51100000000E-03 0.  1.
    9900012    2    1    2    0    0  0.24485129609E+02  0.34836103234E+02  0.83993498534E+01  0.47787254172E+02  0.19999923070E+02 0.  0.
         12    1    1    2    0    0 -0.24485129609E+02 -0.34836103234E+02 -0.83993498534E+01  0.43400745828E+02  0.00000000000E+00 0. -1.
         11    1    3    3    0    0  0.30401688239E+01  0.43422187370E+01  0.79638392596E+01  0.95666204091E+01  0.51100000000E-03 0.  1.
        -11    1    3    3    0    0 -0.24601543290E+00  0.36713464973E+00 -0.97534834438E+00  0.10708016148E+01  0.51100000000E-03 0. -1.
        -12    1    3    3    0    0  0.21690976218E+02  0.30126749847E+02  0.14108589382E+01  0.37149832148E+02  0.00000000000E+00 0.  1.
</event>
<event>
 7    1  0.1418970E-010  0.4778727E+02  0.7816164E-02  0.1312668E+00
        -11   -1    0    0    0    0  0.00000000000E+00  0.00000000000E+00  0.45593999997E+02  0.45594000000E+02  0.51100000000E-03 0. -1.
         11   -1    0    0    0    0 -0.00000000000E+00 -0.00000000000E+00 -0.45593999997E+02  0.45594000000E+02  0.51100000000E-03 0.  1.
    9900012    2    1    2    0    0 -0.20354946689E+02 -0.17611528750E+02 -0.34046047378E+02  0.47787272567E+02  0.20000006943E+02 0.  0.
         12    1    1    2    0    0  0.20354946689E+02  0.17611528750E+02  0.34046047378E+02  0.43400727433E+02  0.00000000000E+00 0. -1.
         11    1    3    3    0    0 -0.93144272048E+01 -0.52701336853E+01 -0.47090611994E+01  0.11692224804E+02  0.51100000000E-03 0. -1.
        -11    1    3    3    0    0 -0.10267560797E+02 -0.10981262510E+02 -0.30594003826E+02  0.34088179790E+02  0.51100000000E-03 0.  1.
         12    1    3    3    0    0 -0.77295868668E+00 -0.13601325550E+01  0.12570176473E+01  0.20068679737E+01  0.00000000000E+00 0. -1.
</event>
<event>
 7    1  0.1657764E-010  0.4778727E+02  0.7816164E-02  0.1312668E+00
        -11   -1    0    0    0    0  0.00000000000E+00  0.00000000000E+00  0.45593999997E+02  0.45594000000E+02  0.51100000000E-03 0.  1.
         11   -1    0    0    0    0 -0.00000000000E+00 -0.00000000000E+00 -0.45593999997E+02  0.45594000000E+02  0.51100000000E-03 0. -1.
    9900012    2    1    2    0    0 -0.30031549134E+02  0.28969969257E+02  0.11936094213E+02  0.47787269509E+02  0.19999992998E+02 0.  0.
         12    1    1    2    0    0  0.30031549134E+02 -0.28969969257E+02 -0.11936094213E+02  0.43400730491E+02  0.00000000000E+00 0. -1.
         11    1    3    3    0    0  0.49106266524E+00  0.32187881702E+01 -0.22824627007E+01  0.39763521055E+01  0.51100000000E-03 0. -1.
        -11    1    3    3    0    0 -0.12394214552E+02  0.39638028842E+01  0.57780696741E+01  0.14237779922E+02  0.51100000000E-03 0.  1.
        -12    1    3    3    0    0 -0.18128397246E+02  0.21787378203E+02  0.84404872394E+01  0.29573137482E+02  0.00000000000E+00 0.  1.
</event>
<event>
 7    1  0.1418970E-010  0.4778728E+02  0.7816164E-02  0.1312668E+00
        -11   -1    0    0    0    0  0.00000000000E+00  0.00000000000E+00  0.45593999997E+02  0.45594000000E+02  0.51100000000E-03 0.  1.
         11   -1    0    0    0    0 -0.00000000000E+00 -0.00000000000E+00 -0.45593999997E+02  0.45594000000E+02  0.51100000000E-03 0. -1.
    9900012    2    1    2    0    0  0.13099188552E+02 -0.13127102807E+02  0.39239174900E+02  0.47787280932E+02  0.20000045080E+02 0.  0.
         12    1    1    2    0    0 -0.13099188552E+02  0.13127102807E+02 -0.39239174900E+02  0.43400719068E+02  0.00000000000E+00 0. -1.
         11    1    3    3    0    0  0.42908445280E-01 -0.30240447786E+01  0.10590011486E+02  0.11013402358E+02  0.51100000000E-03 0. -1.
        -11    1    3    3    0    0  0.66090824301E+00 -0.95263950799E+01  0.18193813620E+02  0.20547599793E+02  0.51100000000E-03 0.  1.
         12    1    3    3    0    0  0.12395371864E+02 -0.57666294883E+00  0.10455349793E+02  0.16226278781E+02  0.00000000000E+00 0. -1.
</event>
<event>
 7    1  0.1418970E-010  0.4778727E+02  0.7816164E-02  0.1312668E+00
        -11   -1    0    0    0    0  0.00000000000E+00  0.00000000000E+00  0.45593999997E+02  0.45594000000E+02  0.51100000000E-03 0.  1.
         11   -1    0    0    0    0 -0.00000000000E+00 -0.00000000000E+00 -0.45593999997E+02  0.45594000000E+02  0.51100000000E-03 0. -1.
    9900012    2    1    2    0    0  0.27631840174E+02  0.12064792877E+01  0.33446208032E+02  0.47787274023E+02  0.20000013580E+02 0.  0.
         12    1    1    2    0    0 -0.27631840174E+02 -0.12064792877E+01 -0.33446208032E+02  0.43400725977E+02  0.00000000000E+00 0. -1.
         11    1    3    3    0    0  0.58274967587E+01 -0.45987670317E+01  0.10744346169E+02  0.13059454489E+02  0.51100000000E-03 0. -1.
        -11    1    3    3    0    0  0.13934635186E+02  0.90420331769E+00  0.21125838736E+02  0.25323757698E+02  0.51100000000E-03 0.  1.
         12    1    3    3    0    0  0.78697082291E+01  0.49010430018E+01  0.15760231269E+01  0.94040618359E+01  0.00000000000E+00 0. -1.
</event>
<event>
 7    1  0.1418970E-010  0.4778726E+02  0.7816164E-02  0.1312668E+00
        -11   -1    0    0    0    0  0.00000000000E+00  0.00000000000E+00  0.45593999997E+02  0.45594000000E+02  0.51100000000E-03 0. -1.
         11   -1    0    0    0    0 -0.00000000000E+00 -0.00000000000E+00 -0.45593999997E+02  0.45594000000E+02  0.51100000000E-03 0.  1.
    9900012    2    1    2    0    0 -0.32895526881E+02 -0.26587635464E+02  0.97265548126E+01  0.47787263637E+02  0.19999966225E+02 0.  0.
         12    1    1    2    0    0  0.32895526881E+02  0.26587635464E+02 -0.97265548126E+01  0.43400736363E+02  0.00000000000E+00 0. -1.
         11    1    3    3    0    0 -0.17300394307E+02 -0.17878550860E+02  0.17882806972E+01  0.24942818048E+02  0.51100000000E-03 0.  1.
        -11    1    3    3    0    0  0.18799209514E+01 -0.18426396741E+01  0.72018706312E+00  0.27291195318E+01  0.51100000000E-03 0. -1.
        -12    1    3    3    0    0 -0.17475053525E+02 -0.68664449297E+01  0.72180870523E+01  0.20115326057E+02  0.00000000000E+00 0.  1.
</event>
<event>
 7    1  0.1418970E-010  0.4778727E+02  0.7816164E-02  0.1312668E+00
        -11   -1    0    0    0    0  0.00000000000E+00  0.00000000000E+00  0.45593999997E+02  0.45594000000E+02  0.51100000000E-03 0. -1.
         11   -1    0    0    0    0 -0.00000000000E+00 -0.00000000000E+00 -0.45593999997E+02  0.45594000000E+02  0.51100000000E-03 0.  1.
    9900012    2    1    2    0    0 -0.15451688765E+02  0.23394931201E+02 -0.33129232085E+02  0.47787268323E+02  0.19999987592E+02 0.  0.
         12    1    1    2    0    0  0.15451688765E+02 -0.23394931201E+02  0.33129232085E+02  0.43400731677E+02  0.00000000000E+00 0. -1.
         11    1    3    3    0    0 -0.77788564020E+01  0.19313353037E+02 -0.16616006536E+02  0.26638466283E+02  0.51100000000E-03 0. -1.
        -11    1    3    3    0    0 -0.48459060364E+01  0.53887398879E+01 -0.16514063536E+02  0.18034290051E+02  0.51100000000E-03 0.  1.
        -12    1    3    3    0    0 -0.28269263262E+01 -0.13071617244E+01  0.83798748834E-03  0.31145119890E+01  0.00000000000E+00 0.  1.
</event>
<event>
 7    1  0.1418970E-010  0.4778727E+02  0.7816164E-02  0.1312668E+00
        -11   -1    0    0    0    0  0.00000000000E+00  0.00000000000E+00  0.45593999997E+02  0.45594000000E+02  0.51100000000E-03 0.  1.
         11   -1    0    0    0    0 -0.00000000000E+00 -0.00000000000E+00 -0.45593999997E+02  0.45594000000E+02  0.51100000000E-03 0. -1.
    9900012    2    1    2    0    0  0.32101138273E+02  0.18392238709E+02  0.22690647423E+02  0.47787274159E+02  0.20000014198E+02 0.  0.
         12    1    1    2    0    0 -0.32101138273E+02 -0.18392238709E+02 -0.22690647423E+02  0.43400725841E+02  0.00000000000E+00 0. -1.
         11    1    3    3    0    0  0.19222715025E+02  0.55289925783E+01  0.15906543291E+02  0.25555834003E+02  0.51100000000E-03 0. -1.
        -11    1    3    3    0    0  0.11331996593E+02  0.50994561686E+01  0.10784336181E+01  0.12473236121E+02  0.51100000000E-03 0.  1.
         12    1    3    3    0    0  0.15464266544E+01  0.77637899617E+01  0.57056705132E+01  0.97582040342E+01  0.00000000000E+00 0. -1.
</event>
<event>
 7    1  0.1418970E-010  0.4778728E+02  0.7816164E-02  0.1312668E+00
        -11   -1    0    0    0    0  0.00000000000E+00  0.00000000000E+00  0.45593999997E+02  0.45594000000E+02  0.51100000000E-03 0.  1.
         11   -1    0    0    0    0 -0.00000000000E+00 -0.00000000000E+00 -0.45593999997E+02  0.45594000000E+02  0.51100000000E-03 0. -1.
    9900012    2    1    2    0    0 -0.38830683454E+02 -0.10149231728E+02  0.16516473795E+02  0.47787276633E+02  0.20000025479E+02 0.  0.
         12    1    1    2    0    0  0.38830683454E+02  0.10149231728E+02 -0.16516473795E+02  0.43400723367E+02  0.00000000000E+00 0. -1.
         11    1    3    3    0    0 -0.23090308303E+01 -0.57256874438E+01 -0.79991896083E-01  0.61742626316E+01  0.51100000000E-03 0. -1.
        -11    1    3    3    0    0 -0.24162531206E+02 -0.50284048849E+01  0.61893372064E+01  0.25444462369E+02  0.51100000000E-03 0.  1.
        -12    1    3    3    0    0 -0.12359121418E+02  0.60486060051E+00  0.10407128484E+02  0.16168551632E+02  0.00000000000E+00 0.  1.
</event>
<event>
 7    1  0.1418970E-010  0.4778727E+02  0.7816164E-02  0.1312668E+00
        -11   -1    0    0    0    0  0.00000000000E+00  0.00000000000E+00  0.45593999997E+02  0.45594000000E+02  0.51100000000E-03 0. -1.
         11   -1    0    0    0    0 -0.00000000000E+00 -0.00000000000E+00 -0.45593999997E+02  0.45594000000E+02  0.51100000000E-03 0.  1.
    9900012    2    1    2    0    0 -0.38257582156E+02 -0.22508906065E+01 -0.20369453667E+02  0.47787265632E+02  0.19999975323E+02 0.  0.
         12    1    1    2    0    0  0.38257582156E+02  0.22508906065E+01  0.20369453667E+02  0.43400734368E+02  0.00000000000E+00 0. -1.
         11    1    3    3    0    0 -0.20669287313E+02  0.20646321439E+01 -0.57204953157E+01  0.21545445246E+02  0.51100000000E-03 0. -1.
        -11    1    3    3    0    0 -0.42925171882E+01  0.21440960857E+01 -0.94033127740E+01  0.10556758178E+02  0.51100000000E-03 0.  1.
         12    1    3    3    0    0 -0.13295777655E+02 -0.64596188362E+01 -0.52456455776E+01  0.15685062208E+02  0.00000000000E+00 0. -1.
</event>
<event>
 7    1  0.1418970E-010  0.4778727E+02  0.7816164E-02  0.1312668E+00
        -11   -1    0    0    0    0  0.00000000000E+00  0.00000000000E+00  0.45593999997E+02  0.45594000000E+02  0.51100000000E-03 0. -1.
         11   -1    0    0    0    0 -0.00000000000E+00 -0.00000000000E+00 -0.45593999997E+02  0.45594000000E+02  0.51100000000E-03 0.  1.
    9900012    2    1    2    0    0 -0.10278650355E+02  0.33847376522E+02 -0.25146123217E+02  0.47787273469E+02  0.20000011056E+02 0.  0.
         12    1    1    2    0    0  0.10278650355E+02 -0.33847376522E+02  0.25146123217E+02  0.43400726531E+02  0.00000000000E+00 0. -1.
         11    1    3    3    0    0  0.79360673379E+00 -0.11270212785E+01  0.17344694296E+01  0.22154848394E+01  0.51100000000E-03 0. -1.
        -11    1    3    3    0    0 -0.32615461702E+01  0.13559542018E+02 -0.89654234077E+01  0.16579435464E+02  0.51100000000E-03 0.  1.
         12    1    3    3    0    0 -0.78107109188E+01  0.21414855782E+02 -0.17915169239E+02  0.28992353166E+02  0.00000000000E+00 0. -1.
</event>
<event>
 7    1  0.1418970E-010  0.4778727E+02  0.7816164E-02  0.1312668E+00
        -11   -1    0    0    0    0  0.00000000000E+00  0.00000000000E+00  0.45593999997E+02  0.45594000000E+02  0.51100000000E-03 0. -1.
         11   -1    0    0    0    0 -0.00000000000E+00 -0.00000000000E+00 -0.45593999997E+02  0.45594000000E+02  0.51100000000E-03 0.  1.
    9900012    2    1    2    0    0  0.15883826692E+01 -0.30654314182E+02 -0.30682455079E+02  0.47787274348E+02  0.20000015061E+02 0.  0.
         12    1    1    2    0    0 -0.15883826692E+01  0.30654314182E+02  0.30682455079E+02  0.43400725652E+02  0.00000000000E+00 0. -1.
         11    1    3    3    0    0 -0.57002850710E+01 -0.73210778676E+01 -0.44025010249E+01  0.10270026610E+02  0.51100000000E-03 0. -1.
        -11    1    3    3    0    0  0.20255100555E+01 -0.20716175838E+02 -0.21667295367E+02  0.30045537457E+02  0.51100000000E-03 0.  1.
        -12    1    3    3    0    0  0.52631576847E+01 -0.26170604766E+01 -0.46126586870E+01  0.74717102804E+01  0.00000000000E+00 0.  1.
</event>
<event>
 7    1  0.1418970E-010  0.4778727E+02  0.7816164E-02  0.1312668E+00
        -11   -1    0    0    0    0  0.00000000000E+00  0.00000000000E+00  0.45593999997E+02  0.45594000000E+02  0.51100000000E-03 0. -1.
         11   -1    0    0    0    0 -0.00000000000E+00 -0.00000000000E+00 -0.45593999997E+02  0.45594000000E+02  0.51100000000E-03 0.  1.
    9900012    2    1    2    0    0 -0.25850110272E+02  0.34695537488E+02  0.34080648686E+01  0.47787269259E+02  0.19999991862E+02 0.  0.
         12    1    1    2    0    0  0.25850110272E+02 -0.34695537488E+02 -0.34080648686E+01  0.43400730741E+02  0.00000000000E+00 0. -1.
         11    1    3    3    0    0 -0.18070557440E+02  0.23203324640E+02 -0.57233050618E+01  0.29961567743E+02  0.51100000000E-03 0. -1.
        -11    1    3    3    0    0  0.51403619604E+00  0.33807697432E+01  0.71541454251E+00  0.34936593274E+01  0.51100000000E-03 0.  1.
        -12    1    3    3    0    0 -0.82935890281E+01  0.81114431047E+01  0.84159553879E+01  0.14332042189E+02  0.00000000000E+00 0.  1.
</event>
<event>
 7    1  0.1418970E-010  0.4778723E+02  0.7816164E-02  0.1312668E+00
        -11   -1    0    0    0    0  0.00000000000E+00  0.00000000000E+00  0.45593999997E+02  0.45594000000E+02  0.51100000000E-03 0.  1.
         11   -1    0    0    0    0 -0.00000000000E+00 -0.00000000000E+00 -0.45593999997E+02  0.45594000000E+02  0.51100000000E-03 0. -1.
    9900012    2    1    2    0    0 -0.26127700979E+02  0.34477700056E+02 -0.35011339111E+01  0.47787233898E+02  0.19999830633E+02 0.  0.
         12    1    1    2    0    0  0.26127700979E+02 -0.34477700056E+02  0.35011339111E+01  0.43400766102E+02  0.00000000000E+00 0. -1.
         11    1    3    3    0    0 -0.10595410437E+01  0.48237719543E+01  0.17203283598E+01  0.52298119485E+01  0.51100000000E-03 0. -1.
        -11    1    3    3    0    0 -0.16804516354E+02  0.28113876146E+02 -0.17656682254E+00  0.32753823868E+02  0.51100000000E-03 0.  1.
         12    1    3    3    0    0 -0.82636435814E+01  0.15400519555E+01 -0.50448954483E+01  0.98035980818E+01  0.00000000000E+00 0. -1.
</event>
<event>
 7    1  0.1418970E-010  0.4778727E+02  0.7816164E-02  0.1312668E+00
        -11   -1    0    0    0    0  0.00000000000E+00  0.00000000000E+00  0.45593999997E+02  0.45594000000E+02  0.51100000000E-03 0.  1.
         11   -1    0    0    0    0 -0.00000000000E+00 -0.00000000000E+00 -0.45593999997E+02  0.45594000000E+02  0.51100000000E-03 0. -1.
    9900012    2    1    2    0    0  0.41746164775E+02  0.13787652226E-02  0.11869337212E+02  0.47787269117E+02  0.19999991212E+02 0.  0.
         12    1    1    2    0    0 -0.41746164775E+02 -0.13787652226E-02 -0.11869337212E+02  0.43400730883E+02  0.00000000000E+00 0. -1.
         11    1    3    3    0    0  0.87913998141E+01 -0.58787960369E+01  0.70126416621E+01  0.12689605860E+02  0.51100000000E-03 0. -1.
        -11    1    3    3    0    0  0.87394089857E+01  0.22933360222E+01 -0.27821369498E+01  0.94539381106E+01  0.51100000000E-03 0.  1.
        -12    1    3    3    0    0  0.24215355975E+02  0.35868387800E+01  0.76388325000E+01  0.25643725147E+02  0.00000000000E+00 0.  1.
</event>
<event>
 7    1  0.1418970E-010  0.4778730E+02  0.7816164E-02  0.1312668E+00
        -11   -1    0    0    0    0  0.00000000000E+00  0.00000000000E+00  0.45593999997E+02  0.45594000000E+02  0.51100000000E-03 0.  1.
         11   -1    0    0    0    0 -0.00000000000E+00 -0.00000000000E+00 -0.45593999997E+02  0.45594000000E+02  0.51100000000E-03 0. -1.
    9900012    2    1    2    0    0 -0.36671661671E+02 -0.54793700064E+01  0.22556304133E+02  0.47787295841E+02  0.20000113057E+02 0.  0.
         12    1    1    2    0    0  0.36671661671E+02  0.54793700064E+01 -0.22556304133E+02  0.43400704159E+02  0.00000000000E+00 0. -1.
         11    1    3    3    0    0 -0.42911902139E+00 -0.24679144749E+01  0.25809012892E+01  0.35966368618E+01  0.51100000000E-03 0. -1.
        -11    1    3    3    0    0 -0.69553916591E+01  0.94716251293E+00  0.11452820790E+02  0.13432858752E+02  0.51100000000E-03 0.  1.
         12    1    3    3    0    0 -0.29287150990E+02 -0.39586180444E+01  0.85225820543E+01  0.30757800227E+02  0.00000000000E+00 0. -1.
</event>
<event>
 7    1  0.1418970E-010  0.4778727E+02  0.7816164E-02  0.1312668E+00
        -11   -1    0    0    0    0  0.00000000000E+00  0.00000000000E+00  0.45593999997E+02  0.45594000000E+02  0.51100000000E-03 0.  1.
         11   -1    0    0    0    0 -0.00000000000E+00 -0.00000000000E+00 -0.45593999997E+02  0.45594000000E+02  0.51100000000E-03 0. -1.
    9900012    2    1    2    0    0 -0.38822107670E+02  0.19306637143E+02  0.19290331009E+01  0.47787269011E+02  0.19999990728E+02 0.  0.
         12    1    1    2    0    0  0.38822107670E+02 -0.19306637143E+02 -0.19290331009E+01  0.43400730989E+02  0.00000000000E+00 0. -1.
         11    1    3    3    0    0 -0.84714478661E+01  0.20863660211E+01 -0.56878570405E+01  0.10414896548E+02  0.51100000000E-03 0. -1.
        -11    1    3    3    0    0 -0.85710651636E+01  0.17863967444E+01  0.60312820546E+01  0.10631591360E+02  0.51100000000E-03 0.  1.
        -12    1    3    3    0    0 -0.21779594640E+02  0.15433874378E+02  0.15856080868E+01  0.26740781103E+02  0.00000000000E+00 0.  1.
</event>
<event>
 7    1  0.1418970E-010  0.4778728E+02  0.7816164E-02  0.1312668E+00
        -11   -1    0    0    0    0  0.00000000000E+00  0.00000000000E+00  0.45593999997E+02  0.45594000000E+02  0.51100000000E-03 0.  1.
         11   -1    0    0    0    0 -0.00000000000E+00 -0.00000000000E+00 -0.45593999997E+02  0.45594000000E+02  0.51100000000E-03 0. -1.
    9900012    2    1    2    0    0 -0.71905075584E+01  0.40795241866E+02  0.12948636751E+02  0.47787281670E+02  0.20000048447E+02 0.  0.
         12    1    1    2    0    0  0.71905075584E+01 -0.40795241866E+02 -0.12948636751E+02  0.43400718330E+02  0.00000000000E+00 0. -1.
         11    1    3    3    0    0  0.25778153030E+01  0.27346893367E+01  0.18157724077E+01  0.41738096749E+01  0.51100000000E-03 0. -1.
        -11    1    3    3    0    0 -0.12488604249E+02  0.37184036883E+02  0.96551206300E+01  0.40396029379E+02  0.51100000000E-03 0.  1.
        -12    1    3    3    0    0  0.27202813875E+01  0.87651564634E+00  0.14777437130E+01  0.32174426159E+01  0.00000000000E+00 0.  1.
</event>
<event>
 7    1  0.1418970E-010  0.4778727E+02  0.7816164E-02  0.1312668E+00
        -11   -1    0    0    0    0  0.00000000000E+00  0.00000000000E+00  0.45593999997E+02  0.45594000000E+02  0.51100000000E-03 0.  1.
         11   -1    0    0    0    0 -0.00000000000E+00 -0.00000000000E+00 -0.45593999997E+02  0.45594000000E+02  0.51100000000E-03 0. -1.
    9900012    2    1    2    0    0 -0.94970687434E+01  0.37933044033E+02  0.18828511340E+02  0.47787274388E+02  0.20000015246E+02 0.  0.
         12    1    1    2    0    0  0.94970687434E+01 -0.37933044033E+02 -0.18828511340E+02  0.43400725612E+02  0.00000000000E+00 0. -1.
         11    1    3    3    0    0  0.32330399904E+01  0.40868127408E+01  0.88599254214E+00  0.52857893454E+01  0.51100000000E-03 0. -1.
        -11    1    3    3    0    0 -0.91698840741E+01  0.23548986709E+02  0.18910244280E+02  0.31563252176E+02  0.51100000000E-03 0.  1.
        -12    1    3    3    0    0 -0.35602246598E+01  0.10297244583E+02 -0.96772548220E+00  0.10938232866E+02  0.00000000000E+00 0.  1.
</event>
<event>
 7    1  0.1418970E-010  0.4778727E+02  0.7816164E-02  0.1312668E+00
        -11   -1    0    0    0    0  0.00000000000E+00  0.00000000000E+00  0.45593999997E+02  0.45594000000E+02  0.51100000000E-03 0.  1.
         11   -1    0    0    0    0 -0.00000000000E+00 -0.00000000000E+00 -0.45593999997E+02  0.45594000000E+02  0.51100000000E-03 0. -1.
    9900012    2    1    2    0    0  0.39398223089E+02  0.14165354804E+02  0.11434415408E+02  0.47787272874E+02  0.20000008342E+02 0.  0.
         12    1    1    2    0    0 -0.39398223089E+02 -0.14165354804E+02 -0.11434415408E+02  0.43400727126E+02  0.00000000000E+00 0. -1.
         11    1    3    3    0    0 -0.38831480162E+00 -0.86538895123E+00  0.23714188195E+01  0.25540778964E+01  0.51100000000E-03 0. -1.
        -11    1    3    3    0    0  0.17981863577E+02  0.92604362414E+01 -0.15900558169E+01  0.20288700669E+02  0.51100000000E-03 0.  1.
        -12    1    3    3    0    0  0.21804674314E+02  0.57703075143E+01  0.10653052406E+02  0.24944494308E+02  0.00000000000E+00 0.  1.
</event>
<event>
 7    1  0.1418970E-010  0.4778727E+02  0.7816164E-02  0.1312668E+00
        -11   -1    0    0    0    0  0.00000000000E+00  0.00000000000E+00  0.45593999997E+02  0.45594000000E+02  0.51100000000E-03 0.  1.
         11   -1    0    0    0    0 -0.00000000000E+00 -0.00000000000E+00 -0.45593999997E+02  0.45594000000E+02  0.51100000000E-03 0. -1.
    9900012    2    1    2    0    0  0.19773011897E+02 -0.36485557605E+02  0.12706513171E+02  0.47787269704E+02  0.19999993891E+02 0.  0.
         12    1    1    2    0    0 -0.19773011897E+02  0.36485557605E+02 -0.12706513171E+02  0.43400730296E+02  0.00000000000E+00 0. -1.
         11    1    3    3    0    0  0.67541938898E+01 -0.53313980109E+01  0.64693483159E+01  0.10765472946E+02  0.51100000000E-03 0. -1.
        -11    1    3    3    0    0  0.67589850181E+01 -0.24862808635E+02  0.96502227385E+01  0.27513086538E+02  0.51100000000E-03 0.  1.
        -12    1    3    3    0    0  0.62598329893E+01 -0.62913509588E+01 -0.34130578834E+01  0.95087102205E+01  0.00000000000E+00 0.  1.
</event>
<event>
 7    1  0.1418970E-010  0.4778727E+02  0.7816164E-02  0.1312668E+00
        -11   -1    0    0    0    0  0.00000000000E+00  0.00000000000E+00  0.45593999997E+02  0.45594000000E+02  0.51100000000E-03 0.  1.
         11   -1    0    0    0    0 -0.00000000000E+00 -0.00000000000E+00 -0.45593999997E+02  0.45594000000E+02  0.51100000000E-03 0. -1.
    9900012    2    1    2    0    0  0.34510552864E+02 -0.21317349913E+02  0.15434228555E+02  0.47787273308E+02  0.20000010322E+02 0.  0.
         12    1    1    2    0    0 -0.34510552864E+02  0.21317349913E+02 -0.15434228555E+02  0.43400726692E+02  0.00000000000E+00 0. -1.
         11    1    3    3    0    0  0.18055916159E+02 -0.11007890707E+02  0.49221584490E+00  0.21152589507E+02  0.51100000000E-03 0.  1.
        -11    1    3    3    0    0  0.44381581476E+01 -0.24150303186E+01 -0.10172753564E+01  0.51540730102E+01  0.51100000000E-03 0. -1.
        -12    1    3    3    0    0  0.12016478558E+02 -0.78944288875E+01  0.15959288066E+02  0.21480610791E+02  0.00000000000E+00 0.  1.
</event>
<event>
 7    1  0.1418970E-010  0.4778725E+02  0.7816164E-02  0.1312668E+00
        -11   -1    0    0    0    0  0.00000000000E+00  0.00000000000E+00  0.45593999997E+02  0.45594000000E+02  0.51100000000E-03 0. -1.
         11   -1    0    0    0    0 -0.00000000000E+00 -0.00000000000E+00 -0.45593999997E+02  0.45594000000E+02  0.51100000000E-03 0.  1.
    9900012    2    1    2    0    0 -0.14408167492E+02 -0.37358469007E+02 -0.16744392959E+02  0.47787248940E+02  0.19999899217E+02 0.  0.
         12    1    1    2    0    0  0.14408167492E+02  0.37358469007E+02  0.16744392959E+02  0.43400751060E+02  0.00000000000E+00 0. -1.
         11    1    3    3    0    0 -0.20634014197E+01 -0.38896998818E+01  0.28597844853E+01  0.52503102910E+01  0.51100000000E-03 0. -1.
        -11    1    3    3    0    0 -0.12546910292E+01 -0.21029424988E+02 -0.10290452523E+02  0.23445775276E+02  0.51100000000E-03 0.  1.
         12    1    3    3    0    0 -0.11090075043E+02 -0.12439344137E+02 -0.93137249212E+01  0.19091163373E+02  0.00000000000E+00 0. -1.
</event>
<event>
 7    1  0.1418970E-010  0.4778728E+02  0.7816164E-02  0.1312668E+00
        -11   -1    0    0    0    0  0.00000000000E+00  0.00000000000E+00  0.45593999997E+02  0.45594000000E+02  0.51100000000E-03 0. -1.
         11   -1    0    0    0    0 -0.00000000000E+00 -0.00000000000E+00 -0.45593999997E+02  0.45594000000E+02  0.51100000000E-03 0.  1.
    9900012    2    1    2    0    0 -0.40442983399E+02 -0.58379441711E+00 -0.15736805208E+02  0.47787276961E+02  0.20000026977E+02 0.  0.
         12    1    1    2    0    0  0.40442983399E+02  0.58379441711E+00  0.15736805208E+02  0.43400723039E+02  0.00000000000E+00 0. -1.
         11    1    3    3    0    0 -0.16367639106E+02 -0.65057849919E+01 -0.59092217405E+01  0.18578044841E+02  0.51100000000E-03 0. -1.
        -11    1    3    3    0    0 -0.20571540158E+02  0.24205625073E+01 -0.11844578172E+02  0.23860876339E+02  0.51100000000E-03 0.  1.
         12    1    3    3    0    0 -0.35038041347E+01  0.35014280675E+01  0.20169947045E+01  0.53483557814E+01  0.00000000000E+00 0. -1.
</event>
<event>
 7    1  0.1418970E-010  0.4778727E+02  0.7816164E-02  0.1312668E+00
        -11   -1    0    0    0    0  0.00000000000E+00  0.00000000000E+00  0.45593999997E+02  0.45594000000E+02  0.51100000000E-03 0.  1.
         11   -1    0    0    0    0 -0.00000000000E+00 -0.00000000000E+00 -0.45593999997E+02  0.45594000000E+02  0.51100000000E-03 0. -1.
    9900012    2    1    2    0    0 -0.94531505538E+01  0.10500956154E+02  0.41036463181E+02  0.47787269062E+02  0.19999990963E+02 0.  0.
         12    1    1    2    0    0  0.94531505538E+01 -0.10500956154E+02 -0.41036463181E+02  0.43400730938E+02  0.00000000000E+00 0. -1.
         11    1    3    3    0    0 -0.70842356506E+01  0.39418660844E+01  0.12024958279E+02  0.14502562699E+02  0.51100000000E-03 0. -1.
        -11    1    3    3    0    0 -0.94099295965E+00 -0.43133409699E+01  0.14101424477E+02  0.14776351059E+02  0.51100000000E-03 0.  1.
         12    1    3    3    0    0 -0.14279219435E+01  0.10872431039E+02  0.14910080425E+02  0.18508355304E+02  0.00000000000E+00 0. -1.
</event>
<event>
 7    1  0.1418970E-010  0.4778728E+02  0.7816164E-02  0.1312668E+00
        -11   -1    0    0    0    0  0.00000000000E+00  0.00000000000E+00  0.45593999997E+02  0.45594000000E+02  0.51100000000E-03 0. -1.
         11   -1    0    0    0    0 -0.00000000000E+00 -0.00000000000E+00 -0.45593999997E+02  0.45594000000E+02  0.51100000000E-03 0.  1.
    9900012    2    1    2    0    0  0.38786745207E+02 -0.19324556200E+02 -0.24025575965E+01  0.47787281583E+02  0.20000048049E+02 0.  0.
         12    1    1    2    0    0 -0.38786745207E+02  0.19324556200E+02  0.24025575965E+01  0.43400718417E+02  0.00000000000E+00 0. -1.
         11    1    3    3    0    0  0.19621174426E+01  0.19099131354E+01 -0.26151908564E+01  0.37864094495E+01  0.51100000000E-03 0. -1.
        -11    1    3    3    0    0  0.96990162423E+01 -0.10117081846E+02  0.36551249933E+01  0.14483998071E+02  0.51100000000E-03 0.  1.
        -12    1    3    3    0    0  0.27125611523E+02 -0.11117387489E+02 -0.34424917334E+01  0.29516874062E+02  0.00000000000E+00 0.  1.
</event>
<event>
 7    1  0.1418970E-010  0.4778727E+02  0.7816164E-02  0.1312668E+00
        -11   -1    0    0    0    0  0.00000000000E+00  0.00000000000E+00  0.45593999997E+02  0.45594000000E+02  0.51100000000E-03 0.  1.
         11   -1    0    0    0    0 -0.00000000000E+00 -0.00000000000E+00 -0.45593999997E+02  0.45594000000E+02  0.51100000000E-03 0. -1.
    9900012    2    1    2    0    0  0.32856374248E+02  0.17641349019E+02  0.22200564983E+02  0.47787267178E+02  0.19999982371E+02 0.  0.
         12    1    1    2    0    0 -0.32856374248E+02 -0.17641349019E+02 -0.22200564983E+02  0.43400732822E+02  0.00000000000E+00 0. -1.
         11    1    3    3    0    0  0.31866518990E+02  0.16305909610E+02  0.25449842369E+02  0.43920976738E+02  0.51100000000E-03 0.  1.
        -11    1    3    3    0    0  0.47676948642E+00  0.12869191545E+01 -0.14578301648E+01  0.20021835840E+01  0.51100000000E-03 0. -1.
        -12    1    3    3    0    0  0.51308577189E+00  0.48520254400E-01 -0.17914472212E+01  0.18641068560E+01  0.00000000000E+00 0.  1.
</event>
<event>
 7    1  0.1418970E-010  0.4778727E+02  0.7816164E-02  0.1312668E+00
        -11   -1    0    0    0    0  0.00000000000E+00  0.00000000000E+00  0.45593999997E+02  0.45594000000E+02  0.51100000000E-03 0. -1.
         11   -1    0    0    0    0 -0.00000000000E+00 -0.00000000000E+00 -0.45593999997E+02  0.45594000000E+02  0.51100000000E-03 0.  1.
    9900012    2    1    2    0    0 -0.13270947975E+02 -0.46035461227E+01 -0.41064735966E+02  0.47787271470E+02  0.20000001938E+02 0.  0.
         12    1    1    2    0    0  0.13270947975E+02  0.46035461227E+01  0.41064735966E+02  0.43400728530E+02  0.00000000000E+00 0. -1.
         11    1    3    3    0    0  0.47157188395E+01 -0.30306434949E+00 -0.12111615037E+02  0.13000810407E+02  0.51100000000E-03 0. -1.
        -11    1    3    3    0    0 -0.73967524826E+01 -0.45005881223E+01 -0.12025749435E+02  0.14818430769E+02  0.51100000000E-03 0.  1.
         12    1    3    3    0    0 -0.10589914332E+02  0.20010634911E+00 -0.16927371494E+02  0.19968030293E+02  0.00000000000E+00 0. -1.
</event>
<event>
 7    1  0.1737129E-010  0.4778729E+02  0.7816164E-02  0.1312668E+00
        -11   -1    0    0    0    0  0.00000000000E+00  0.00000000000E+00  0.45593999997E+02  0.45594000000E+02  0.51100000000E-03 0. -1.
         11   -1    0    0    0    0 -0.00000000000E+00 -0.00000000000E+00 -0.45593999997E+02  0.45594000000E+02  0.51100000000E-03 0.  1.
    9900012    2    1    2    0    0  0.37677102066E+02  0.54511399938E+01 -0.20840897365E+02  0.47787286293E+02  0.20000069523E+02 0.  0.
         12    1    1    2    0    0 -0.37677102066E+02 -0.54511399938E+01  0.20840897365E+02  0.43400713707E+02  0.00000000000E+00 0. -1.
         11    1    3    3    0    0  0.12261849732E+02 -0.31296727836E+01 -0.54498483975E+01  0.13778557922E+02  0.51100000000E-03 0.  1.
        -11    1    3    3    0    0  0.22645107491E+02  0.22920802247E+01 -0.14716111773E+02  0.27103846056E+02  0.51100000000E-03 0. -1.
         12    1    3    3    0    0  0.27701448425E+01  0.62887325526E+01 -0.67493719464E+00  0.69048823150E+01  0.00000000000E+00 0. -1.
</event>
<event>
 7    1  0.1418970E-010  0.4778726E+02  0.7816164E-02  0.1312668E+00
        -11   -1    0    0    0    0  0.00000000000E+00  0.00000000000E+00  0.45593999997E+02  0.45594000000E+02  0.51100000000E-03 0.  1.
         11   -1    0    0    0    0 -0.00000000000E+00 -0.00000000000E+00 -0.45593999997E+02  0.45594000000E+02  0.51100000000E-03 0. -1.
    9900012    2    1    2    0    0 -0.17961485026E+02  0.22936218512E+02  0.32170466846E+02  0.47787262666E+02  0.19999961801E+02 0.  0.
         12    1    1    2    0    0  0.17961485026E+02 -0.22936218512E+02 -0.32170466846E+02  0.43400737334E+02  0.00000000000E+00 0. -1.
         11    1    3    3    0    0 -0.15055693142E+02  0.11376930910E+02  0.21530789095E+02  0.28630112333E+02  0.51100000000E-03 0. -1.
        -11    1    3    3    0    0 -0.60579476654E+01  0.29095333001E+01  0.47089152968E+01  0.82059732802E+01  0.51100000000E-03 0.  1.
         12    1    3    3    0    0  0.31521557805E+01  0.86497543022E+01  0.59307624547E+01  0.10951177053E+02  0.00000000000E+00 0. -1.
</event>
<event>
 7    1  0.1418970E-010  0.4778727E+02  0.7816164E-02  0.1312668E+00
        -11   -1    0    0    0    0  0.00000000000E+00  0.00000000000E+00  0.45593999997E+02  0.45594000000E+02  0.51100000000E-03 0.  1.
         11   -1    0    0    0    0 -0.00000000000E+00 -0.00000000000E+00 -0.45593999997E+02  0.45594000000E+02  0.51100000000E-03 0. -1.
    9900012    2    1    2    0    0 -0.24041667269E+02  0.13295531944E+02  0.33598370315E+02  0.47787269332E+02  0.19999992191E+02 0.  0.
         12    1    1    2    0    0  0.24041667269E+02 -0.13295531944E+02 -0.33598370315E+02  0.43400730668E+02  0.00000000000E+00 0. -1.
         11    1    3    3    0    0 -0.35083101148E+01 -0.37094661141E+01  0.30298246606E+01  0.59370208394E+01  0.51100000000E-03 0. -1.
        -11    1    3    3    0    0 -0.16697192053E+02  0.83487260081E+01  0.16636601945E+02  0.25005478859E+02  0.51100000000E-03 0.  1.
         12    1    3    3    0    0 -0.38361651004E+01  0.86562720499E+01  0.13931943709E+02  0.16844769633E+02  0.00000000000E+00 0. -1.
</event>
<event>
 7    1  0.1418970E-010  0.4778727E+02  0.7816164E-02  0.1312668E+00
        -11   -1    0    0    0    0  0.00000000000E+00  0.00000000000E+00  0.45593999997E+02  0.45594000000E+02  0.51100000000E-03 0.  1.
         11   -1    0    0    0    0 -0.00000000000E+00 -0.00000000000E+00 -0.45593999997E+02  0.45594000000E+02  0.51100000000E-03 0. -1.
    9900012    2    1    2    0    0 -0.59875269228E+01 -0.11866005250E+02  0.41315498118E+02  0.47787274845E+02  0.20000017329E+02 0.  0.
         12    1    1    2    0    0  0.59875269228E+01  0.11866005250E+02 -0.41315498118E+02  0.43400725155E+02  0.00000000000E+00 0. -1.
         11    1    3    3    0    0 -0.46730563491E+01 -0.16833985561E+01  0.51028588746E+01  0.71211273894E+01  0.51100000000E-03 0. -1.
        -11    1    3    3    0    0  0.17467398435E+01 -0.10478426620E+02  0.36054178400E+02  0.37586597410E+02  0.51100000000E-03 0.  1.
        -12    1    3    3    0    0 -0.30612104172E+01  0.29581992573E+00  0.15846084352E+00  0.30795500460E+01  0.00000000000E+00 0.  1.
</event>
<event>
 7    1  0.1418970E-010  0.4778725E+02  0.7816164E-02  0.1312668E+00
        -11   -1    0    0    0    0  0.00000000000E+00  0.00000000000E+00  0.45593999997E+02  0.45594000000E+02  0.51100000000E-03 0. -1.
         11   -1    0    0    0    0 -0.00000000000E+00 -0.00000000000E+00 -0.45593999997E+02  0.45594000000E+02  0.51100000000E-03 0.  1.
    9900012    2    1    2    0    0 -0.90807737779E+01 -0.42292005570E+02  0.35427408384E+01  0.47787248852E+02  0.19999898818E+02 0.  0.
         12    1    1    2    0    0  0.90807737779E+01  0.42292005570E+02 -0.35427408384E+01  0.43400751148E+02  0.00000000000E+00 0. -1.
         11    1    3    3    0    0 -0.38064024077E+01 -0.11196287080E+02 -0.34163422617E+01  0.12309221681E+02  0.51100000000E-03 0. -1.
        -11    1    3    3    0    0 -0.17789463219E+01 -0.89847685211E+01 -0.46383230141E+01  0.10266681842E+02  0.51100000000E-03 0.  1.
         12    1    3    3    0    0 -0.34954250482E+01 -0.22110949968E+02  0.11597406114E+02  0.25211345330E+02  0.00000000000E+00 0. -1.
</event>
<event>
 7    1  0.1418970E-010  0.4778727E+02  0.7816164E-02  0.1312668E+00
        -11   -1    0    0    0    0  0.00000000000E+00  0.00000000000E+00  0.45593999997E+02  0.45594000000E+02  0.51100000000E-03 0. -1.
         11   -1    0    0    0    0 -0.00000000000E+00 -0.00000000000E+00 -0.45593999997E+02  0.45594000000E+02  0.51100000000E-03 0.  1.
    9900012    2    1    2    0    0  0.39694097737E+02 -0.11891224239E+02 -0.12907383626E+02  0.47787272343E+02  0.20000005922E+02 0.  0.
         12    1    1    2    0    0 -0.39694097737E+02  0.11891224239E+02  0.12907383626E+02  0.43400727657E+02  0.00000000000E+00 0. -1.
         11    1    3    3    0    0  0.20932090908E+02 -0.47633595894E+01  0.17165597232E+01  0.21535751715E+02  0.51100000000E-03 0. -1.
        -11    1    3    3    0    0  0.10651752759E+02 -0.37021010334E+01 -0.29986042914E+01  0.11668633890E+02  0.51100000000E-03 0.  1.
        -12    1    3    3    0    0  0.81102540697E+01 -0.34257636159E+01 -0.11625339057E+02  0.14582886739E+02  0.00000000000E+00 0.  1.
</event>
<event>
 7    1  0.1418970E-010  0.4778727E+02  0.7816164E-02  0.1312668E+00
        -11   -1    0    0    0    0  0.00000000000E+00  0.00000000000E+00  0.45593999997E+02  0.45594000000E+02  0.51100000000E-03 0. -1.
         11   -1    0    0    0    0 -0.00000000000E+00 -0.00000000000E+00 -0.45593999997E+02  0.45594000000E+02  0.51100000000E-03 0.  1.
    9900012    2    1    2    0    0  0.17115862845E+02 -0.26936643300E+02 -0.29412377443E+02  0.47787268899E+02  0.19999990219E+02 0.  0.
         12    1    1    2    0    0 -0.17115862845E+02  0.26936643300E+02  0.29412377443E+02  0.43400731101E+02  0.00000000000E+00 0. -1.
         11    1    3    3    0    0  0.24512145844E+01 -0.19042883704E+02 -0.10161164874E+02  0.21723009565E+02  0.51100000000E-03 0. -1.
        -11    1    3    3    0    0  0.79437915372E+01 -0.67060311907E+01 -0.90086647452E+01  0.13756115697E+02  0.51100000000E-03 0.  1.
         12    1    3    3    0    0  0.67208567237E+01 -0.11877284054E+01 -0.10242547824E+02  0.12308143637E+02  0.00000000000E+00 0. -1.
</event>
<event>
 7    1  0.1418970E-010  0.4778727E+02  0.7816164E-02  0.1312668E+00
        -11   -1    0    0    0    0  0.00000000000E+00  0.00000000000E+00  0.45593999997E+02  0.45594000000E+02  0.51100000000E-03 0. -1.
         11   -1    0    0    0    0 -0.00000000000E+00 -0.00000000000E+00 -0.45593999997E+02  0.45594000000E+02  0.51100000000E-03 0.  1.
    9900012    2    1    2    0    0 -0.28232279795E+02  0.16784041815E+02 -0.28370017564E+02  0.47787267533E+02  0.19999983990E+02 0.  0.
         12    1    1    2    0    0  0.28232279795E+02 -0.16784041815E+02  0.28370017564E+02  0.43400732467E+02  0.00000000000E+00 0. -1.
         11    1    3    3    0    0 -0.16364968239E+02  0.81828321540E+01 -0.80073002034E+01  0.19972175253E+02  0.51100000000E-03 0. -1.
        -11    1    3    3    0    0 -0.12178852608E+02  0.10976308553E+02 -0.18847595924E+02  0.24980706008E+02  0.51100000000E-03 0.  1.
         12    1    3    3    0    0  0.31154105183E+00 -0.23750988915E+01 -0.15151214369E+01  0.28343862721E+01  0.00000000000E+00 0. -1.
</event>
<event>
 7    1  0.1418970E-010  0.4778727E+02  0.7816164E-02  0.1312668E+00
        -11   -1    0    0    0    0  0.00000000000E+00  0.00000000000E+00  0.45593999997E+02  0.45594000000E+02  0.51100000000E-03 0. -1.
         11   -1    0    0    0    0 -0.00000000000E+00 -0.00000000000E+00 -0.45593999997E+02  0.45594000000E+02  0.51100000000E-03 0.  1.
    9900012    2    1    2    0    0  0.41255980752E+02 -0.18755640483E+01 -0.13343520351E+02  0.47787271623E+02  0.20000002639E+02 0.  0.
         12    1    1    2    0    0 -0.41255980752E+02  0.18755640483E+01  0.13343520351E+02  0.43400728377E+02  0.00000000000E+00 0. -1.
         11    1    3    3    0    0  0.42953278989E+01  0.21801896229E+01  0.17879638215E+01  0.51380816887E+01  0.51100000000E-03 0. -1.
        -11    1    3    3    0    0  0.10881149000E+02  0.14451470410E+00  0.21370452951E+01  0.11089961719E+02  0.51100000000E-03 0.  1.
        -12    1    3    3    0    0  0.26079503852E+02 -0.42002683753E+01 -0.17268529467E+02  0.31559228216E+02  0.00000000000E+00 0.  1.
</event>
<event>
 7    1  0.1418970E-010  0.4778726E+02  0.7816164E-02  0.1312668E+00
        -11   -1    0    0    0    0  0.00000000000E+00  0.00000000000E+00  0.45593999997E+02  0.45594000000E+02  0.51100000000E-03 0.  1.
         11   -1    0    0    0    0 -0.00000000000E+00 -0.00000000000E+00 -0.45593999997E+02  0.45594000000E+02  0.51100000000E-03 0. -1.
    9900012    2    1    2    0    0 -0.35320413228E+02  0.14305354425E+01  0.25180277936E+02  0.47787257849E+02  0.19999939839E+02 0.  0.
         12    1    1    2    0    0  0.35320413228E+02 -0.14305354425E+01 -0.25180277936E+02  0.43400742151E+02  0.00000000000E+00 0. -1.
         11    1    3    3    0    0 -0.32180800591E+01 -0.26163407726E+01  0.72596112666E+01  0.83608154093E+01  0.51100000000E-03 0. -1.
        -11    1    3    3    0    0 -0.35399538927E+01 -0.40291688155E+01  0.18533127425E+01  0.56745258207E+01  0.51100000000E-03 0.  1.
         12    1    3    3    0    0 -0.28562379277E+02  0.80760450306E+01  0.16067353927E+02  0.33751916619E+02  0.00000000000E+00 0. -1.
</event>
<event>
 7    1  0.1418970E-010  0.4778728E+02  0.7816164E-02  0.1312668E+00
        -11   -1    0    0    0    0  0.00000000000E+00  0.00000000000E+00  0.45593999997E+02  0.45594000000E+02  0.51100000000E-03 0. -1.
         11   -1    0    0    0    0 -0.00000000000E+00 -0.00000000000E+00 -0.45593999997E+02  0.45594000000E+02  0.51100000000E-03 0.  1.
    9900012    2    1    2    0    0  0.29809092045E+02 -0.17675731007E+02  0.26126790386E+02  0.47787278681E+02  0.20000034817E+02 0.  0.
         12    1    1    2    0    0 -0.29809092045E+02  0.17675731007E+02 -0.26126790386E+02  0.43400721319E+02  0.00000000000E+00 0. -1.
         11    1    3    3    0    0  0.10254078712E+02 -0.91490053708E+01  0.12256553358E+02  0.18413949332E+02  0.51100000000E-03 0. -1.
        -11    1    3    3    0    0  0.16507395760E+02  0.26503844425E+00  0.77667645819E+01  0.18245190942E+02  0.51100000000E-03 0.  1.
         12    1    3    3    0    0  0.30476175721E+01 -0.87917640802E+01  0.61034724460E+01  0.11128138407E+02  0.00000000000E+00 0. -1.
</event>
<event>
 7    1  0.1418970E-010  0.4778727E+02  0.7816164E-02  0.1312668E+00
        -11   -1    0    0    0    0  0.00000000000E+00  0.00000000000E+00  0.45593999997E+02  0.45594000000E+02  0.51100000000E-03 0.  1.
         11   -1    0    0    0    0 -0.00000000000E+00 -0.00000000000E+00 -0.45593999997E+02  0.45594000000E+02  0.51100000000E-03 0. -1.
    9900012    2    1    2    0    0 -0.15238813669E+02  0.19396755484E+02  0.35709490470E+02  0.47787271032E+02  0.19999999945E+02 0.  0.
         12    1    1    2    0    0  0.15238813669E+02 -0.19396755484E+02 -0.35709490470E+02  0.43400728968E+02  0.00000000000E+00 0. -1.
         11    1    3    3    0    0  0.59089008721E-01 -0.10805825550E+01  0.64845187529E+01  0.65742021484E+01  0.51100000000E-03 0. -1.
        -11    1    3    3    0    0 -0.56963693356E+01  0.11744445916E+02  0.54885698922E+01  0.14159979986E+02  0.51100000000E-03 0.  1.
        -12    1    3    3    0    0 -0.96015333418E+01  0.87328921225E+01  0.23736401824E+02  0.27053088898E+02  0.00000000000E+00 0.  1.
</event>
<event>
 7    1  0.1418970E-010  0.4778728E+02  0.7816164E-02  0.1312668E+00
        -11   -1    0    0    0    0  0.00000000000E+00  0.00000000000E+00  0.45593999997E+02  0.45594000000E+02  0.51100000000E-03 0.  1.
         11   -1    0    0    0    0 -0.00000000000E+00 -0.00000000000E+00 -0.45593999997E+02  0.45594000000E+02  0.51100000000E-03 0. -1.
    9900012    2    1    2    0    0 -0.33393709259E+02  0.14362463647E+02  0.23710807414E+02  0.47787279172E+02  0.20000037058E+02 0.  0.
         12    1    1    2    0    0  0.33393709259E+02 -0.14362463647E+02 -0.23710807414E+02  0.43400720828E+02  0.00000000000E+00 0. -1.
         11    1    3    3    0    0 -0.18134196403E+02  0.63274305284E+01  0.18269569625E+02  0.26507784344E+02  0.51100000000E-03 0.  1.
        -11    1    3    3    0    0 -0.10717590998E+02 -0.59876622791E+00  0.19005964471E+01  0.10901263455E+02  0.51100000000E-03 0. -1.
        -12    1    3    3    0    0 -0.45419218582E+01  0.86337993469E+01  0.35406413421E+01  0.10378231374E+02  0.00000000000E+00 0.  1.
</event>
<event>
 7    1  0.1418970E-010  0.4778727E+02  0.7816164E-02  0.1312668E+00
        -11   -1    0    0    0    0  0.00000000000E+00  0.00000000000E+00  0.45593999997E+02  0.45594000000E+02  0.51100000000E-03 0. -1.
         11   -1    0    0    0    0 -0.00000000000E+00 -0.00000000000E+00 -0.45593999997E+02  0.45594000000E+02  0.51100000000E-03 0.  1.
    9900012    2    1    2    0    0  0.25622421737E+02  0.24446328109E+02 -0.25089670376E+02  0.47787274047E+02  0.20000013689E+02 0.  0.
         12    1    1    2    0    0 -0.25622421737E+02 -0.24446328109E+02  0.25089670376E+02  0.43400725953E+02  0.00000000000E+00 0. -1.
         11    1    3    3    0    0 -0.13020675608E+01 -0.51596066393E-01  0.51254122346E+00  0.14002645656E+01  0.51100000000E-03 0. -1.
        -11    1    3    3    0    0  0.17418447557E+02  0.15587434162E+02 -0.23579176421E+02  0.33201626165E+02  0.51100000000E-03 0.  1.
         12    1    3    3    0    0  0.95060417413E+01  0.89104900133E+01 -0.20230351784E+01  0.13185383316E+02  0.00000000000E+00 0. -1.
</event>
<event>
 7    1  0.1418970E-010  0.4778728E+02  0.7816164E-02  0.1312668E+00
        -11   -1    0    0    0    0  0.00000000000E+00  0.00000000000E+00  0.45593999997E+02  0.45594000000E+02  0.51100000000E-03 0.  1.
         11   -1    0    0    0    0 -0.00000000000E+00 -0.00000000000E+00 -0.45593999997E+02  0.45594000000E+02  0.51100000000E-03 0. -1.
    9900012    2    1    2    0    0  0.27116193026E+02 -0.33008483732E+02  0.76664850838E+01  0.47787275167E+02  0.20000018797E+02 0.  0.
         12    1    1    2    0    0 -0.27116193026E+02  0.33008483732E+02 -0.76664850838E+01  0.43400724833E+02  0.00000000000E+00 0. -1.
         11    1    3    3    0    0  0.16662639074E+02 -0.23335555611E+02  0.59247869026E+01  0.29279596935E+02  0.51100000000E-03 0.  1.
        -11    1    3    3    0    0  0.67933987277E+01 -0.11793189724E+02 -0.69220795019E+00  0.13627499486E+02  0.51100000000E-03 0. -1.
        -12    1    3    3    0    0  0.36601552241E+01  0.21202616036E+01  0.24339061314E+01  0.48801787455E+01  0.00000000000E+00 0.  1.
</event>
<event>
 7    1  0.1418970E-010  0.4778727E+02  0.7816164E-02  0.1312668E+00
        -11   -1    0    0    0    0  0.00000000000E+00  0.00000000000E+00  0.45593999997E+02  0.45594000000E+02  0.51100000000E-03 0. -1.
         11   -1    0    0    0    0 -0.00000000000E+00 -0.00000000000E+00 -0.45593999997E+02  0.45594000000E+02  0.51100000000E-03 0.  1.
    9900012    2    1    2    0    0  0.42454089210E+02 -0.25114982627E+01 -0.86582845593E+01  0.47787271830E+02  0.20000003582E+02 0.  0.
         12    1    1    2    0    0 -0.42454089210E+02  0.25114982627E+01  0.86582845593E+01  0.43400728170E+02  0.00000000000E+00 0. -1.
         11    1    3    3    0    0  0.10389117479E+02 -0.88916137064E+01 -0.51975686874E+01  0.14629055910E+02  0.51100000000E-03 0. -1.
        -11    1    3    3    0    0  0.93918660668E+01  0.38399223371E+01 -0.59468312664E+00  0.10163946087E+02  0.51100000000E-03 0.  1.
         12    1    3    3    0    0  0.22673105664E+02  0.25401931067E+01 -0.28660327453E+01  0.22994269834E+02  0.00000000000E+00 0. -1.
</event>
<event>
 7    1  0.1418970E-010  0.4778728E+02  0.7816164E-02  0.1312668E+00
        -11   -1    0    0    0    0  0.00000000000E+00  0.00000000000E+00  0.45593999997E+02  0.45594000000E+02  0.51100000000E-03 0.  1.
         11   -1    0    0    0    0 -0.00000000000E+00 -0.00000000000E+00 -0.45593999997E+02  0.45594000000E+02  0.51100000000E-03 0. -1.
    9900012    2    1    2    0    0 -0.13277146001E+02  0.26904052646E+02  0.31360991362E+02  0.47787280721E+02  0.20000044120E+02 0.  0.
         12    1    1    2    0    0  0.13277146001E+02 -0.26904052646E+02 -0.31360991362E+02  0.43400719279E+02  0.00000000000E+00 0. -1.
         11    1    3    3    0    0 -0.14736268579E+02  0.22664665276E+02  0.17408017848E+02  0.32154062720E+02  0.51100000000E-03 0. -1.
        -11    1    3    3    0    0  0.50432823939E+00 -0.10637117772E+01  0.81111386849E+00  0.14295928395E+01  0.51100000000E-03 0.  1.
        -12    1    3    3    0    0  0.95479433857E+00  0.53030991463E+01  0.13141859646E+02  0.14203625162E+02  0.00000000000E+00 0.  1.
</event>
<event>
 7    1  0.1418970E-010  0.4778727E+02  0.7816164E-02  0.1312668E+00
        -11   -1    0    0    0    0  0.00000000000E+00  0.00000000000E+00  0.45593999997E+02  0.45594000000E+02  0.51100000000E-03 0.  1.
         11   -1    0    0    0    0 -0.00000000000E+00 -0.00000000000E+00 -0.45593999997E+02  0.45594000000E+02  0.51100000000E-03 0. -1.
    9900012    2    1    2    0    0  0.25265234224E+02  0.30755865872E+02  0.17302248667E+02  0.47787272416E+02  0.20000006252E+02 0.  0.
         12    1    1    2    0    0 -0.25265234224E+02 -0.30755865872E+02 -0.17302248667E+02  0.43400727584E+02  0.00000000000E+00 0. -1.
         11    1    3    3    0    0  0.11017260860E+02  0.20054070737E+02  0.71306901763E+01  0.23966487699E+02  0.51100000000E-03 0. -1.
        -11    1    3    3    0    0  0.73707352138E+01  0.75859369510E+01  0.12056889701E+02  0.16038789435E+02  0.51100000000E-03 0.  1.
         12    1    3    3    0    0  0.68772381496E+01  0.31158581839E+01 -0.18853312100E+01  0.77819952814E+01  0.00000000000E+00 0. -1.
</event>
<event>
 7    1  0.1418970E-010  0.4778726E+02  0.7816164E-02  0.1312668E+00
        -11   -1    0    0    0    0  0.00000000000E+00  0.00000000000E+00  0.45593999997E+02  0.45594000000E+02  0.51100000000E-03 0.  1.
         11   -1    0    0    0    0 -0.00000000000E+00 -0.00000000000E+00 -0.45593999997E+02  0.45594000000E+02  0.51100000000E-03 0. -1.
    9900012    2    1    2    0    0  0.20798901195E+01  0.34495364272E+02  0.26255817973E+02  0.47787261797E+02  0.19999957837E+02 0.  0.
         12    1    1    2    0    0 -0.20798901195E+01 -0.34495364272E+02 -0.26255817973E+02  0.43400738203E+02  0.00000000000E+00 0. -1.
         11    1    3    3    0    0 -0.14695149840E+01 -0.77966704645E+00  0.81312963276E+00  0.18516303768E+01  0.51100000000E-03 0. -1.
        -11    1    3    3    0    0 -0.22302850084E+01  0.26537274117E+02  0.22977029418E+02  0.35173071659E+02  0.51100000000E-03 0.  1.
         12    1    3    3    0    0  0.57796901118E+01  0.87377572011E+01  0.24656589224E+01  0.10762559761E+02  0.00000000000E+00 0. -1.
</event>
<event>
 7    1  0.1418970E-010  0.4778728E+02  0.7816164E-02  0.1312668E+00
        -11   -1    0    0    0    0  0.00000000000E+00  0.00000000000E+00  0.45593999997E+02  0.45594000000E+02  0.51100000000E-03 0.  1.
         11   -1    0    0    0    0 -0.00000000000E+00 -0.00000000000E+00 -0.45593999997E+02  0.45594000000E+02  0.51100000000E-03 0. -1.
    9900012    2    1    2    0    0 -0.40139621694E+02 -0.15819160866E+02  0.47103863370E+01  0.47787276277E+02  0.20000023857E+02 0.  0.
         12    1    1    2    0    0  0.40139621694E+02  0.15819160866E+02 -0.47103863370E+01  0.43400723723E+02  0.00000000000E+00 0. -1.
         11    1    3    3    0    0 -0.17975987547E+02 -0.12334469106E+02  0.57285814688E+00  0.21808333800E+02  0.51100000000E-03 0. -1.
        -11    1    3    3    0    0 -0.22930293511E+02 -0.33228542681E+01  0.60206954464E+01  0.23939266799E+02  0.51100000000E-03 0.  1.
        -12    1    3    3    0    0  0.76665936390E+00 -0.16183749210E+00 -0.18831672562E+01  0.20396756774E+01  0.00000000000E+00 0.  1.
</event>
<event>
 7    1  0.1418970E-010  0.4778727E+02  0.7816164E-02  0.1312668E+00
        -11   -1    0    0    0    0  0.00000000000E+00  0.00000000000E+00  0.45593999997E+02  0.45594000000E+02  0.51100000000E-03 0.  1.
         11   -1    0    0    0    0 -0.00000000000E+00 -0.00000000000E+00 -0.45593999997E+02  0.45594000000E+02  0.51100000000E-03 0. -1.
    9900012    2    1    2    0    0 -0.19421122499E+02  0.35157977043E+02  0.16442640138E+02  0.47787265403E+02  0.19999974278E+02 0.  0.
         12    1    1    2    0    0  0.19421122499E+02 -0.35157977043E+02 -0.16442640138E+02  0.43400734597E+02  0.00000000000E+00 0. -1.
         11    1    3    3    0    0 -0.13574936254E+01  0.37892562118E+01 -0.22285137700E+01  0.46008179127E+01  0.51100000000E-03 0. -1.
        -11    1    3    3    0    0  0.24057765450E+01  0.30678388129E+01  0.91490640139E+00  0.40045536270E+01  0.51100000000E-03 0.  1.
        -12    1    3    3    0    0 -0.20469405418E+02  0.28300882018E+02  0.17756247507E+02  0.39181893863E+02  0.00000000000E+00 0.  1.
</event>
<event>
 7    1  0.1418970E-010  0.4778727E+02  0.7816164E-02  0.1312668E+00
        -11   -1    0    0    0    0  0.00000000000E+00  0.00000000000E+00  0.45593999997E+02  0.45594000000E+02  0.51100000000E-03 0.  1.
         11   -1    0    0    0    0 -0.00000000000E+00 -0.00000000000E+00 -0.45593999997E+02  0.45594000000E+02  0.51100000000E-03 0. -1.
    9900012    2    1    2    0    0  0.28507940460E+02 -0.31570433520E+02  0.86155714625E+01  0.47787274043E+02  0.20000013673E+02 0.  0.
         12    1    1    2    0    0 -0.28507940460E+02  0.31570433520E+02 -0.86155714625E+01  0.43400725957E+02  0.00000000000E+00 0. -1.
         11    1    3    3    0    0  0.10353170817E+02 -0.12257932390E+02 -0.32698742083E+01  0.16374893283E+02  0.51100000000E-03 0. -1.
        -11    1    3    3    0    0  0.12580850234E+02 -0.82195998885E+01  0.12760646282E+01  0.15082040848E+02  0.51100000000E-03 0.  1.
        -12    1    3    3    0    0  0.55739194088E+01 -0.11092901242E+02  0.10609381043E+02  0.16330339912E+02  0.00000000000E+00 0.  1.
</event>
<event>
 7    1  0.1418970E-010  0.4778727E+02  0.7816164E-02  0.1312668E+00
        -11   -1    0    0    0    0  0.00000000000E+00  0.00000000000E+00  0.45593999997E+02  0.45594000000E+02  0.51100000000E-03 0.  1.
         11   -1    0    0    0    0 -0.00000000000E+00 -0.00000000000E+00 -0.45593999997E+02  0.45594000000E+02  0.51100000000E-03 0. -1.
    9900012    2    1    2    0    0  0.25229142801E+02  0.24934756454E+02  0.25007430065E+02  0.47787270924E+02  0.19999999450E+02 0.  0.
         12    1    1    2    0    0 -0.25229142801E+02 -0.24934756454E+02 -0.25007430065E+02  0.43400729076E+02  0.00000000000E+00 0. -1.
         11    1    3    3    0    0  0.14754535648E+02  0.32599372787E+01  0.44056842319E+01  0.15739554221E+02  0.51100000000E-03 0. -1.
        -11    1    3    3    0    0  0.39917500082E+01  0.80643523491E+01  0.10838191386E+02  0.14086668865E+02  0.51100000000E-03 0.  1.
        -12    1    3    3    0    0  0.64828571443E+01  0.13610466827E+02  0.97635544472E+01  0.17961047838E+02  0.00000000000E+00 0.  1.
</event>
<event>
 7    1  0.1418970E-010  0.4778725E+02  0.7816164E-02  0.1312668E+00
        -11   -1    0    0    0    0  0.00000000000E+00  0.00000000000E+00  0.45593999997E+02  0.45594000000E+02  0.51100000000E-03 0.  1.
         11   -1    0    0    0    0 -0.00000000000E+00 -0.00000000000E+00 -0.45593999997E+02  0.45594000000E+02  0.51100000000E-03 0. -1.
    9900012    2    1    2    0    0  0.23221981167E+02  0.36665566924E+02 -0.28633990522E-01  0.47787250847E+02  0.19999907909E+02 0.  0.
         12    1    1    2    0    0 -0.23221981167E+02 -0.36665566924E+02  0.28633990522E-01  0.43400749153E+02  0.00000000000E+00 0. -1.
         11    1    3    3    0    0 -0.56301690859E+00  0.69655687150E+01  0.49623457813E+01  0.85709399413E+01  0.51100000000E-03 0. -1.
        -11    1    3    3    0    0  0.10766816440E+02  0.73811986320E+01 -0.13656049147E+01  0.13125216437E+02  0.51100000000E-03 0.  1.
        -12    1    3    3    0    0  0.13018181636E+02  0.22318799577E+02 -0.36253748571E+01  0.26091094468E+02  0.00000000000E+00 0.  1.
</event>
<event>
 7    1  0.1418970E-010  0.4778727E+02  0.7816164E-02  0.1312668E+00
        -11   -1    0    0    0    0  0.00000000000E+00  0.00000000000E+00  0.45593999997E+02  0.45594000000E+02  0.51100000000E-03 0. -1.
         11   -1    0    0    0    0 -0.00000000000E+00 -0.00000000000E+00 -0.45593999997E+02  0.45594000000E+02  0.51100000000E-03 0.  1.
    9900012    2    1    2    0    0 -0.50568657208E+00 -0.39398742458E+02 -0.18196340389E+02  0.47787269249E+02  0.19999991812E+02 0.  0.
         12    1    1    2    0    0  0.50568657208E+00  0.39398742458E+02  0.18196340389E+02  0.43400730751E+02  0.00000000000E+00 0. -1.
         11    1    3    3    0    0  0.58359727916E+01 -0.15643920270E+02 -0.79917704163E+01  0.18511056547E+02  0.51100000000E-03 0. -1.
        -11    1    3    3    0    0 -0.66480378953E+01 -0.22352639843E+02 -0.12582858446E+02  0.26498400758E+02  0.51100000000E-03 0.  1.
         12    1    3    3    0    0  0.30637853161E+00 -0.14021823454E+01  0.23782884728E+01  0.27778119436E+01  0.00000000000E+00 0. -1.
</event>
<event>
 7    1  0.1418970E-010  0.4778726E+02  0.7816164E-02  0.1312668E+00
        -11   -1    0    0    0    0  0.00000000000E+00  0.00000000000E+00  0.45593999997E+02  0.45594000000E+02  0.51100000000E-03 0.  1.
         11   -1    0    0    0    0 -0.00000000000E+00 -0.00000000000E+00 -0.45593999997E+02  0.45594000000E+02  0.51100000000E-03 0. -1.
    9900012    2    1    2    0    0  0.62467247555E+01 -0.57119500539E+01  0.42567315255E+02  0.47787259550E+02  0.19999947592E+02 0.  0.
         12    1    1    2    0    0 -0.62467247555E+01  0.57119500539E+01 -0.42567315255E+02  0.43400740450E+02  0.00000000000E+00 0. -1.
         11    1    3    3    0    0 -0.36149646475E+01 -0.52556939010E+01  0.13312689495E+02  0.14762045577E+02  0.51100000000E-03 0. -1.
        -11    1    3    3    0    0  0.24846931402E+01 -0.33632017010E+01  0.21610915146E+02  0.22011735038E+02  0.51100000000E-03 0.  1.
         12    1    3    3    0    0  0.73769962628E+01  0.29069455481E+01  0.76437106147E+01  0.11013478935E+02  0.00000000000E+00 0. -1.
</event>
<event>
 7    1  0.1418970E-010  0.4778727E+02  0.7816164E-02  0.1312668E+00
        -11   -1    0    0    0    0  0.00000000000E+00  0.00000000000E+00  0.45593999997E+02  0.45594000000E+02  0.51100000000E-03 0. -1.
         11   -1    0    0    0    0 -0.00000000000E+00 -0.00000000000E+00 -0.45593999997E+02  0.45594000000E+02  0.51100000000E-03 0.  1.
    9900012    2    1    2    0    0 -0.43278051883E+02 -0.21251233864E+00  0.32539835333E+01  0.47787270223E+02  0.19999996257E+02 0.  0.
         12    1    1    2    0    0  0.43278051883E+02  0.21251233864E+00 -0.32539835333E+01  0.43400729777E+02  0.00000000000E+00 0. -1.
         11    1    3    3    0    0 -0.23125222841E+02  0.59238582029E+01  0.44511203787E+00  0.23876058143E+02  0.51100000000E-03 0. -1.
        -11    1    3    3    0    0 -0.17430984724E+02 -0.45215601680E+01 -0.20377350784E+01  0.18122806055E+02  0.51100000000E-03 0.  1.
         12    1    3    3    0    0 -0.27218443182E+01 -0.16148103736E+01  0.48466065738E+01  0.57884060255E+01  0.00000000000E+00 0. -1.
</event>
<event>
 7    1  0.1418970E-010  0.4778727E+02  0.7816164E-02  0.1312668E+00
        -11   -1    0    0    0    0  0.00000000000E+00  0.00000000000E+00  0.45593999997E+02  0.45594000000E+02  0.51100000000E-03 0.  1.
         11   -1    0    0    0    0 -0.00000000000E+00 -0.00000000000E+00 -0.45593999997E+02  0.45594000000E+02  0.51100000000E-03 0. -1.
    9900012    2    1    2    0    0 -0.30527436457E+02  0.11546296851E+02  0.28607378218E+02  0.47787269175E+02  0.19999991477E+02 0.  0.
         12    1    1    2    0    0  0.30527436457E+02 -0.11546296851E+02 -0.28607378218E+02  0.43400730825E+02  0.00000000000E+00 0. -1.
         11    1    3    3    0    0 -0.63762126653E+01 -0.87687731915E+00  0.69331336701E+01  0.94600922054E+01  0.51100000000E-03 0. -1.
        -11    1    3    3    0    0 -0.10955026261E+02 -0.10126104715E+01  0.14438908732E+02  0.18152687569E+02  0.51100000000E-03 0.  1.
         12    1    3    3    0    0 -0.13196197530E+02  0.13435784642E+02  0.72353358162E+01  0.20174489401E+02  0.00000000000E+00 0. -1.
</event>
<event>
 7    1  0.1418970E-010  0.4778727E+02  0.7816164E-02  0.1312668E+00
        -11   -1    0    0    0    0  0.00000000000E+00  0.00000000000E+00  0.45593999997E+02  0.45594000000E+02  0.51100000000E-03 0.  1.
         11   -1    0    0    0    0 -0.00000000000E+00 -0.00000000000E+00 -0.45593999997E+02  0.45594000000E+02  0.51100000000E-03 0. -1.
    9900012    2    1    2    0    0 -0.27092636890E+02  0.25061915452E+02  0.22836656365E+02  0.47787268972E+02  0.19999990553E+02 0.  0.
         12    1    1    2    0    0  0.27092636890E+02 -0.25061915452E+02 -0.22836656365E+02  0.43400731028E+02  0.00000000000E+00 0. -1.
         11    1    3    3    0    0 -0.91319722851E+00 -0.60432528096E+00 -0.99205186194E+00  0.14776012254E+01  0.51100000000E-03 0. -1.
        -11    1    3    3    0    0 -0.16928575397E+02  0.25302483697E+02  0.18647403464E+02  0.35700392189E+02  0.51100000000E-03 0.  1.
        -12    1    3    3    0    0 -0.92508642641E+01  0.36375703558E+00  0.51813047630E+01  0.10609275558E+02  0.00000000000E+00 0.  1.
</event>
<event>
 7    1  0.1418970E-010  0.4778727E+02  0.7816164E-02  0.1312668E+00
        -11   -1    0    0    0    0  0.00000000000E+00  0.00000000000E+00  0.45593999997E+02  0.45594000000E+02  0.51100000000E-03 0.  1.
         11   -1    0    0    0    0 -0.00000000000E+00 -0.00000000000E+00 -0.45593999997E+02  0.45594000000E+02  0.51100000000E-03 0. -1.
    9900012    2    1    2    0    0  0.45841662588E+01  0.42738698245E+02  0.60010282666E+01  0.47787271340E+02  0.20000001347E+02 0.  0.
         12    1    1    2    0    0 -0.45841662588E+01 -0.42738698245E+02 -0.60010282666E+01  0.43400728660E+02  0.00000000000E+00 0. -1.
         11    1    3    3    0    0  0.35042261076E+01  0.33403627380E+02 -0.32479225229E+01  0.33743605671E+02  0.51100000000E-03 0. -1.
        -11    1    3    3    0    0  0.50286845359E+00  0.89921732836E+01  0.62300915163E+01  0.10951077463E+02  0.51100000000E-03 0.  1.
         12    1    3    3    0    0  0.57707169768E+00  0.34289758171E+00  0.30188592732E+01  0.30925882052E+01  0.00000000000E+00 0. -1.
</event>
<event>
 7    1  0.1418970E-010  0.4778731E+02  0.7816164E-02  0.1312668E+00
        -11   -1    0    0    0    0  0.00000000000E+00  0.00000000000E+00  0.45593999997E+02  0.45594000000E+02  0.51100000000E-03 0.  1.
         11   -1    0    0    0    0 -0.00000000000E+00 -0.00000000000E+00 -0.45593999997E+02  0.45594000000E+02  0.51100000000E-03 0. -1.
    9900012    2    1    2    0    0  0.73559723777E+01  0.56748761140E+01  0.42394638369E+02  0.47787309787E+02  0.20000176642E+02 0.  0.
         12    1    1    2    0    0 -0.73559723777E+01 -0.56748761140E+01 -0.42394638369E+02  0.43400690213E+02  0.00000000000E+00 0. -1.
         11    1    3    3    0    0 -0.39955019885E+01 -0.22352077778E+01  0.27771269649E+01  0.53546824733E+01  0.51100000000E-03 0. -1.
        -11    1    3    3    0    0  0.75060954483E+01  0.36102101659E+01  0.15091974217E+02  0.17237829688E+02  0.51100000000E-03 0.  1.
        -12    1    3    3    0    0  0.38453789179E+01  0.42998737259E+01  0.24525537187E+02  0.25194797625E+02  0.00000000000E+00 0.  1.
</event>
<event>
 7    1  0.1418970E-010  0.4778729E+02  0.7816164E-02  0.1312668E+00
        -11   -1    0    0    0    0  0.00000000000E+00  0.00000000000E+00  0.45593999997E+02  0.45594000000E+02  0.51100000000E-03 0.  1.
         11   -1    0    0    0    0 -0.00000000000E+00 -0.00000000000E+00 -0.45593999997E+02  0.45594000000E+02  0.51100000000E-03 0. -1.
    9900012    2    1    2    0    0  0.46026719751E+01 -0.31553504325E+02  0.29441697283E+02  0.47787288446E+02  0.20000079341E+02 0.  0.
         12    1    1    2    0    0 -0.46026719751E+01  0.31553504325E+02 -0.29441697283E+02  0.43400711554E+02  0.00000000000E+00 0. -1.
         11    1    3    3    0    0  0.87851797964E+01 -0.14526008523E+02  0.12711075767E+02  0.21207445746E+02  0.51100000000E-03 0. -1.
        -11    1    3    3    0    0 -0.16601889917E+01 -0.14390788161E+02  0.17633564896E+02  0.22820903194E+02  0.51100000000E-03 0.  1.
        -12    1    3    3    0    0 -0.25223188296E+01 -0.26367076407E+01 -0.90294337999E+00  0.37589395058E+01  0.00000000000E+00 0.  1.
</event>
<event>
 7    1  0.1418970E-010  0.4778727E+02  0.7816164E-02  0.1312668E+00
        -11   -1    0    0    0    0  0.00000000000E+00  0.00000000000E+00  0.45593999997E+02  0.45594000000E+02  0.51100000000E-03 0.  1.
         11   -1    0    0    0    0 -0.00000000000E+00 -0.00000000000E+00 -0.45593999997E+02  0.45594000000E+02  0.51100000000E-03 0. -1.
    9900012    2    1    2    0    0  0.14096310425E+02 -0.11464169807E+02  0.39414342050E+02  0.47787268253E+02  0.19999987273E+02 0.  0.
         12    1    1    2    0    0 -0.14096310425E+02  0.11464169807E+02 -0.39414342050E+02  0.43400731747E+02  0.00000000000E+00 0. -1.
         11    1    3    3    0    0  0.50255041476E+01  0.12184319940E+01  0.23264306314E+01  0.56703217021E+01  0.51100000000E-03 0. -1.
        -11    1    3    3    0    0  0.79140901718E+01 -0.43794530368E+01  0.29336440221E+02  0.30699171931E+02  0.51100000000E-03 0.  1.
        -12    1    3    3    0    0  0.11567161053E+01 -0.83031487643E+01  0.77514711971E+01  0.11417774620E+02  0.00000000000E+00 0.  1.
</event>
<event>
 7    1  0.1418970E-010  0.4778727E+02  0.7816164E-02  0.1312668E+00
        -11   -1    0    0    0    0  0.00000000000E+00  0.00000000000E+00  0.45593999997E+02  0.45594000000E+02  0.51100000000E-03 0. -1.
         11   -1    0    0    0    0 -0.00000000000E+00 -0.00000000000E+00 -0.45593999997E+02  0.45594000000E+02  0.51100000000E-03 0.  1.
    9900012    2    1    2    0    0 -0.10727614928E+01 -0.11730966190E+02 -0.41771483463E+02  0.47787271715E+02  0.20000003057E+02 0.  0.
         12    1    1    2    0    0  0.10727614928E+01  0.11730966190E+02  0.41771483463E+02  0.43400728285E+02  0.00000000000E+00 0. -1.
         11    1    3    3    0    0 -0.92885987281E+01 -0.93842082208E+01 -0.17503727995E+02  0.21925371702E+02  0.51100000000E-03 0. -1.
        -11    1    3    3    0    0  0.31671060526E+01 -0.16887127252E+01 -0.71087059395E+01  0.79634170939E+01  0.51100000000E-03 0.  1.
         12    1    3    3    0    0  0.50487311827E+01 -0.65804524365E+00 -0.17159049529E+02  0.17898482920E+02  0.00000000000E+00 0. -1.
</event>
<event>
 7    1  0.1418970E-010  0.4778727E+02  0.7816164E-02  0.1312668E+00
        -11   -1    0    0    0    0  0.00000000000E+00  0.00000000000E+00  0.45593999997E+02  0.45594000000E+02  0.51100000000E-03 0. -1.
         11   -1    0    0    0    0 -0.00000000000E+00 -0.00000000000E+00 -0.45593999997E+02  0.45594000000E+02  0.51100000000E-03 0.  1.
    9900012    2    1    2    0    0  0.12531288413E+02  0.30786724878E+02  0.27906412010E+02  0.47787269024E+02  0.19999990787E+02 0.  0.
         12    1    1    2    0    0 -0.12531288413E+02 -0.30786724878E+02 -0.27906412010E+02  0.43400730976E+02  0.00000000000E+00 0. -1.
         11    1    3    3    0    0 -0.84125436177E+00 -0.65329850267E+00  0.74027713172E+00  0.12971192419E+01  0.51100000000E-03 0. -1.
        -11    1    3    3    0    0  0.13531980774E+02  0.26043482650E+02  0.28520172035E+02  0.40924048008E+02  0.51100000000E-03 0.  1.
         12    1    3    3    0    0 -0.15943799940E+00  0.53965407305E+01 -0.13540371566E+01  0.55661017735E+01  0.00000000000E+00 0. -1.
</event>
<event>
 7    1  0.1418970E-010  0.4778727E+02  0.7816164E-02  0.1312668E+00
        -11   -1    0    0    0    0  0.00000000000E+00  0.00000000000E+00  0.45593999997E+02  0.45594000000E+02  0.51100000000E-03 0.  1.
         11   -1    0    0    0    0 -0.00000000000E+00 -0.00000000000E+00 -0.45593999997E+02  0.45594000000E+02  0.51100000000E-03 0. -1.
    9900012    2    1    2    0    0  0.36300576620E+02  0.18198714813E+02  0.15319862235E+02  0.47787271173E+02  0.20000000587E+02 0.  0.
         12    1    1    2    0    0 -0.36300576620E+02 -0.18198714813E+02 -0.15319862235E+02  0.43400728827E+02  0.00000000000E+00 0. -1.
         11    1    3    3    0    0  0.35385035372E+01  0.71384591949E+00  0.80331350558E+01  0.88069201407E+01  0.51100000000E-03 0. -1.
        -11    1    3    3    0    0  0.21271167172E+02  0.92727768654E+01  0.87095651502E+01  0.24785146137E+02  0.51100000000E-03 0.  1.
        -12    1    3    3    0    0  0.11490905911E+02  0.82120920286E+01 -0.14228379711E+01  0.14195204896E+02  0.00000000000E+00 0.  1.
</event>
<event>
 7    1  0.1418970E-010  0.4778727E+02  0.7816164E-02  0.1312668E+00
        -11   -1    0    0    0    0  0.00000000000E+00  0.00000000000E+00  0.45593999997E+02  0.45594000000E+02  0.51100000000E-03 0.  1.
         11   -1    0    0    0    0 -0.00000000000E+00 -0.00000000000E+00 -0.45593999997E+02  0.45594000000E+02  0.51100000000E-03 0. -1.
    9900012    2    1    2    0    0  0.65707131009E+01 -0.12042833804E+02  0.41175464435E+02  0.47787274336E+02  0.20000015009E+02 0.  0.
         12    1    1    2    0    0 -0.65707131009E+01  0.12042833804E+02 -0.41175464435E+02  0.43400725664E+02  0.00000000000E+00 0. -1.
         11    1    3    3    0    0  0.57883923845E+01 -0.96044454516E+01  0.19296206280E+02  0.22318029391E+02  0.51100000000E-03 0. -1.
        -11    1    3    3    0    0  0.83555412110E+00 -0.73945638124E+01  0.90551946386E+01  0.11720677236E+02  0.51100000000E-03 0.  1.
        -12    1    3    3    0    0 -0.53233404759E-01  0.49561754602E+01  0.12824063516E+02  0.13748567709E+02  0.00000000000E+00 0.  1.
</event>
<event>
 7    1  0.1418970E-010  0.4778725E+02  0.7816164E-02  0.1312668E+00
        -11   -1    0    0    0    0  0.00000000000E+00  0.00000000000E+00  0.45593999997E+02  0.45594000000E+02  0.51100000000E-03 0.  1.
         11   -1    0    0    0    0 -0.00000000000E+00 -0.00000000000E+00 -0.45593999997E+02  0.45594000000E+02  0.51100000000E-03 0. -1.
    9900012    2    1    2    0    0  0.39945910071E+02  0.38629972743E+01  0.16523526756E+02  0.47787246368E+02  0.19999887491E+02 0.  0.
         12    1    1    2    0    0 -0.39945910071E+02 -0.38629972743E+01 -0.16523526756E+02  0.43400753632E+02  0.00000000000E+00 0. -1.
         11    1    3    3    0    0  0.55701392023E+01 -0.48151818556E+01  0.61684797090E+01  0.96053406612E+01  0.51100000000E-03 0. -1.
        -11    1    3    3    0    0  0.89610918057E+01  0.59624628554E+01  0.45774577790E+00  0.10773191779E+02  0.51100000000E-03 0.  1.
        -12    1    3    3    0    0  0.25414679063E+02  0.27157162745E+01  0.98973012686E+01  0.27408713928E+02  0.00000000000E+00 0.  1.
</event>
<event>
 7    1  0.1418970E-010  0.4778727E+02  0.7816164E-02  0.1312668E+00
        -11   -1    0    0    0    0  0.00000000000E+00  0.00000000000E+00  0.45593999997E+02  0.45594000000E+02  0.51100000000E-03 0. -1.
         11   -1    0    0    0    0 -0.00000000000E+00 -0.00000000000E+00 -0.45593999997E+02  0.45594000000E+02  0.51100000000E-03 0.  1.
    9900012    2    1    2    0    0  0.24577002333E+02 -0.35125090219E+02  0.67691991291E+01  0.47787273469E+02  0.20000011056E+02 0.  0.
         12    1    1    2    0    0 -0.24577002333E+02  0.35125090219E+02 -0.67691991291E+01  0.43400726531E+02  0.00000000000E+00 0. -1.
         11    1    3    3    0    0  0.42986015671E+01 -0.99345424837E+01  0.71510429271E+01  0.12973454629E+02  0.51100000000E-03 0.  1.
        -11    1    3    3    0    0  0.19901941197E+00 -0.21944083946E+00  0.26145455508E+01  0.26312756805E+01  0.51100000000E-03 0. -1.
        -12    1    3    3    0    0  0.20079381354E+02 -0.24971106895E+02 -0.29963893489E+01  0.32182543160E+02  0.00000000000E+00 0.  1.
</event>
<event>
 7    1  0.1418970E-010  0.4778727E+02  0.7816164E-02  0.1312668E+00
        -11   -1    0    0    0    0  0.00000000000E+00  0.00000000000E+00  0.45593999997E+02  0.45594000000E+02  0.51100000000E-03 0. -1.
         11   -1    0    0    0    0 -0.00000000000E+00 -0.00000000000E+00 -0.45593999997E+02  0.45594000000E+02  0.51100000000E-03 0.  1.
    9900012    2    1    2    0    0 -0.15187339840E+02 -0.11200792105E+02 -0.39083376846E+02  0.47787269812E+02  0.19999994380E+02 0.  0.
         12    1    1    2    0    0  0.15187339840E+02  0.11200792105E+02  0.39083376846E+02  0.43400730188E+02  0.00000000000E+00 0. -1.
         11    1    3    3    0    0  0.75236275645E+00 -0.44237236501E+01 -0.70850657850E+01  0.83865092911E+01  0.51100000000E-03 0.  1.
        -11    1    3    3    0    0 -0.67265822285E+01  0.43601011701E+01 -0.76217360649E+01  0.11061114392E+02  0.51100000000E-03 0. -1.
         12    1    3    3    0    0 -0.92131203681E+01 -0.11137169625E+02 -0.24376574996E+02  0.28339646129E+02  0.00000000000E+00 0. -1.
</event>
<event>
 7    1  0.1418970E-010  0.4778727E+02  0.7816164E-02  0.1312668E+00
        -11   -1    0    0    0    0  0.00000000000E+00  0.00000000000E+00  0.45593999997E+02  0.45594000000E+02  0.51100000000E-03 0. -1.
         11   -1    0    0    0    0 -0.00000000000E+00 -0.00000000000E+00 -0.45593999997E+02  0.45594000000E+02  0.51100000000E-03 0.  1.
    9900012    2    1    2    0    0  0.55606631570E+01  0.43015849183E+02 -0.15293934656E+01  0.47787270743E+02  0.19999998624E+02 0.  0.
         12    1    1    2    0    0 -0.55606631570E+01 -0.43015849183E+02  0.15293934656E+01  0.43400729257E+02  0.00000000000E+00 0. -1.
         11    1    3    3    0    0 -0.47985502271E+01  0.12991480466E+02 -0.30177841954E+01  0.14174331402E+02  0.51100000000E-03 0. -1.
        -11    1    3    3    0    0 -0.35354239042E+00  0.10908324156E+02  0.38493026788E+01  0.11572971075E+02  0.51100000000E-03 0.  1.
         12    1    3    3    0    0  0.10712755775E+02  0.19116044561E+02 -0.23609119489E+01  0.22039968266E+02  0.00000000000E+00 0. -1.
</event>
<event>
 7    1  0.1418970E-010  0.4778727E+02  0.7816164E-02  0.1312668E+00
        -11   -1    0    0    0    0  0.00000000000E+00  0.00000000000E+00  0.45593999997E+02  0.45594000000E+02  0.51100000000E-03 0.  1.
         11   -1    0    0    0    0 -0.00000000000E+00 -0.00000000000E+00 -0.45593999997E+02  0.45594000000E+02  0.51100000000E-03 0. -1.
    9900012    2    1    2    0    0  0.14778527981E+00 -0.18588774700E+02  0.39218090794E+02  0.47787273844E+02  0.20000012766E+02 0.  0.
         12    1    1    2    0    0 -0.14778527981E+00  0.18588774700E+02 -0.39218090794E+02  0.43400726156E+02  0.00000000000E+00 0. -1.
         11    1    3    3    0    0 -0.34903119579E+01 -0.10195237976E+02  0.16458206943E+02  0.19672257903E+02  0.51100000000E-03 0.  1.
        -11    1    3    3    0    0  0.80465663071E+01 -0.23110412102E+01  0.81332900242E+01  0.11672126957E+02  0.51100000000E-03 0. -1.
         12    1    3    3    0    0 -0.44084690694E+01 -0.60824955138E+01  0.14626593826E+02  0.16442888985E+02  0.00000000000E+00 0. -1.
</event>
<event>
 7    1  0.1418970E-010  0.4778728E+02  0.7816164E-02  0.1312668E+00
        -11   -1    0    0    0    0  0.00000000000E+00  0.00000000000E+00  0.45593999997E+02  0.45594000000E+02  0.51100000000E-03 0.  1.
         11   -1    0    0    0    0 -0.00000000000E+00 -0.00000000000E+00 -0.45593999997E+02  0.45594000000E+02  0.51100000000E-03 0. -1.
    9900012    2    1    2    0    0 -0.51681209212E+01  0.19622075400E+02  0.38365179146E+02  0.47787282405E+02  0.20000051799E+02 0.  0.
         12    1    1    2    0    0  0.51681209212E+01 -0.19622075400E+02 -0.38365179146E+02  0.43400717595E+02  0.00000000000E+00 0. -1.
         11    1    3    3    0    0 -0.82757374457E+01  0.14349022414E+02  0.11691321484E+02  0.20274843348E+02  0.51100000000E-03 0. -1.
        -11    1    3    3    0    0  0.22431981490E+01  0.32796125454E+01  0.11140865018E+02  0.11828214996E+02  0.51100000000E-03 0.  1.
         12    1    3    3    0    0  0.86441837552E+00  0.19934404406E+01  0.15532992644E+02  0.15684224061E+02  0.00000000000E+00 0. -1.
</event>
<event>
 7    1  0.1418970E-010  0.4778727E+02  0.7816164E-02  0.1312668E+00
        -11   -1    0    0    0    0  0.00000000000E+00  0.00000000000E+00  0.45593999997E+02  0.45594000000E+02  0.51100000000E-03 0. -1.
         11   -1    0    0    0    0 -0.00000000000E+00 -0.00000000000E+00 -0.45593999997E+02  0.45594000000E+02  0.51100000000E-03 0.  1.
    9900012    2    1    2    0    0 -0.24950174634E+02  0.77293599051E+01  0.34660767343E+02  0.47787274065E+02  0.20000013774E+02 0.  0.
         12    1    1    2    0    0  0.24950174634E+02 -0.77293599051E+01 -0.34660767343E+02  0.43400725935E+02  0.00000000000E+00 0. -1.
         11    1    3    3    0    0 -0.56170721387E+01 -0.41816813185E+01  0.13148009871E+02  0.14896580879E+02  0.51100000000E-03 0. -1.
        -11    1    3    3    0    0 -0.16525950651E+02  0.79459929739E+01  0.21188983481E+02  0.28021757091E+02  0.51100000000E-03 0.  1.
         12    1    3    3    0    0 -0.28071518443E+01  0.39650482497E+01  0.32377399144E+00  0.48689360950E+01  0.00000000000E+00 0. -1.
</event>
<event>
 7    1  0.1418970E-010  0.4778727E+02  0.7816164E-02  0.1312668E+00
        -11   -1    0    0    0    0  0.00000000000E+00  0.00000000000E+00  0.45593999997E+02  0.45594000000E+02  0.51100000000E-03 0. -1.
         11   -1    0    0    0    0 -0.00000000000E+00 -0.00000000000E+00 -0.45593999997E+02  0.45594000000E+02  0.51100000000E-03 0.  1.
    9900012    2    1    2    0    0 -0.17212124270E+02  0.19922680581E+02 -0.34502937462E+02  0.47787272853E+02  0.20000008245E+02 0.  0.
         12    1    1    2    0    0  0.17212124270E+02 -0.19922680581E+02  0.34502937462E+02  0.43400727147E+02  0.00000000000E+00 0. -1.
         11    1    3    3    0    0 -0.42160246692E+01  0.92366108941E+01 -0.46383882004E+01  0.11162638137E+02  0.51100000000E-03 0. -1.
        -11    1    3    3    0    0 -0.49745724825E+01  0.11113232768E+02 -0.23143169294E+02  0.26150651983E+02  0.51100000000E-03 0.  1.
         12    1    3    3    0    0 -0.80215271181E+01 -0.42716308157E+00 -0.67213799679E+01  0.10473982732E+02  0.00000000000E+00 0. -1.
</event>
<event>
 7    1  0.1418970E-010  0.4778727E+02  0.7816164E-02  0.1312668E+00
        -11   -1    0    0    0    0  0.00000000000E+00  0.00000000000E+00  0.45593999997E+02  0.45594000000E+02  0.51100000000E-03 0. -1.
         11   -1    0    0    0    0 -0.00000000000E+00 -0.00000000000E+00 -0.45593999997E+02  0.45594000000E+02  0.51100000000E-03 0.  1.
    9900012    2    1    2    0    0  0.11645761335E+02 -0.15959618735E+01 -0.41778611768E+02  0.47787271289E+02  0.20000001117E+02 0.  0.
         12    1    1    2    0    0 -0.11645761335E+02  0.15959618735E+01  0.41778611768E+02  0.43400728711E+02  0.00000000000E+00 0. -1.
         11    1    3    3    0    0 -0.31722559130E-01  0.22293412368E+01 -0.70668889198E+00  0.23388839479E+01  0.51100000000E-03 0. -1.
        -11    1    3    3    0    0  0.88974205567E+00  0.51865648195E+01 -0.13749323616E+02  0.14721956246E+02  0.51100000000E-03 0.  1.
         12    1    3    3    0    0  0.10787741838E+02 -0.90118679298E+01 -0.27322599260E+02  0.30726431096E+02  0.00000000000E+00 0. -1.
</event>
<event>
 7    1  0.1418970E-010  0.4778726E+02  0.7816164E-02  0.1312668E+00
        -11   -1    0    0    0    0  0.00000000000E+00  0.00000000000E+00  0.45593999997E+02  0.45594000000E+02  0.51100000000E-03 0.  1.
         11   -1    0    0    0    0 -0.00000000000E+00 -0.00000000000E+00 -0.45593999997E+02  0.45594000000E+02  0.51100000000E-03 0. -1.
    9900012    2    1    2    0    0 -0.24914873577E+02  0.35503765305E+02 -0.15349955474E+01  0.47787257063E+02  0.19999936251E+02 0.  0.
         12    1    1    2    0    0  0.24914873577E+02 -0.35503765305E+02  0.15349955474E+01  0.43400742937E+02  0.00000000000E+00 0. -1.
         11    1    3    3    0    0  0.14870537538E+01  0.22042693966E+01 -0.11684480944E+01  0.29043766370E+01  0.51100000000E-03 0. -1.
        -11    1    3    3    0    0 -0.22215802553E+02  0.24341057249E+02  0.54622191905E+01  0.33404562410E+02  0.51100000000E-03 0.  1.
         12    1    3    3    0    0 -0.41861247775E+01  0.89584386595E+01 -0.58287666435E+01  0.11478318015E+02  0.00000000000E+00 0. -1.
</event>
<event>
 7    1  0.1418970E-010  0.4778727E+02  0.7816164E-02  0.1312668E+00
        -11   -1    0    0    0    0  0.00000000000E+00  0.00000000000E+00  0.45593999997E+02  0.45594000000E+02  0.51100000000E-03 0.  1.
         11   -1    0    0    0    0 -0.00000000000E+00 -0.00000000000E+00 -0.45593999997E+02  0.45594000000E+02  0.51100000000E-03 0. -1.
    9900012    2    1    2    0    0 -0.20233036049E+02 -0.38177208590E+02  0.40924479398E+01  0.47787272660E+02  0.20000007366E+02 0.  0.
         12    1    1    2    0    0  0.20233036049E+02  0.38177208590E+02 -0.40924479398E+01  0.43400727340E+02  0.00000000000E+00 0. -1.
         11    1    3    3    0    0  0.11828735015E+01 -0.32544867825E-01  0.14191146872E+01  0.18477379808E+01  0.51100000000E-03 0. -1.
        -11    1    3    3    0    0 -0.10959130721E+02 -0.19079937600E+02 -0.55497810369E+01  0.22692435630E+02  0.51100000000E-03 0.  1.
        -12    1    3    3    0    0 -0.10456778829E+02 -0.19064726122E+02  0.82231142896E+01  0.23247099049E+02  0.00000000000E+00 0.  1.
</event>
<event>
 7    1  0.1418970E-010  0.4778727E+02  0.7816164E-02  0.1312668E+00
        -11   -1    0    0    0    0  0.00000000000E+00  0.00000000000E+00  0.45593999997E+02  0.45594000000E+02  0.51100000000E-03 0.  1.
         11   -1    0    0    0    0 -0.00000000000E+00 -0.00000000000E+00 -0.45593999997E+02  0.45594000000E+02  0.51100000000E-03 0. -1.
    9900012    2    1    2    0    0 -0.37532199005E+02  0.21230050289E+02 -0.49236755189E+01  0.47787267540E+02  0.19999984023E+02 0.  0.
         12    1    1    2    0    0  0.37532199005E+02 -0.21230050289E+02  0.49236755189E+01  0.43400732460E+02  0.00000000000E+00 0. -1.
         11    1    3    3    0    0 -0.12372451691E+01  0.39473743672E+01  0.62369890445E+00  0.41834842641E+01  0.51100000000E-03 0. -1.
        -11    1    3    3    0    0 -0.39573406034E+01  0.72158711250E+01 -0.51976070782E+01  0.97336766099E+01  0.51100000000E-03 0.  1.
         12    1    3    3    0    0 -0.32337613233E+02  0.10066804797E+02 -0.34976734513E+00  0.33870106666E+02  0.00000000000E+00 0. -1.
</event>
<event>
 7    1  0.1418970E-010  0.4778728E+02  0.7816164E-02  0.1312668E+00
        -11   -1    0    0    0    0  0.00000000000E+00  0.00000000000E+00  0.45593999997E+02  0.45594000000E+02  0.51100000000E-03 0.  1.
         11   -1    0    0    0    0 -0.00000000000E+00 -0.00000000000E+00 -0.45593999997E+02  0.45594000000E+02  0.51100000000E-03 0. -1.
    9900012    2    1    2    0    0 -0.40123023900E+02  0.15463405452E+02  0.58863135081E+01  0.47787278326E+02  0.20000033202E+02 0.  0.
         12    1    1    2    0    0  0.40123023900E+02 -0.15463405452E+02 -0.58863135081E+01  0.43400721674E+02  0.00000000000E+00 0. -1.
         11    1    3    3    0    0 -0.71091716747E+01  0.34540536878E+01  0.29923368983E+01  0.84513246981E+01  0.51100000000E-03 0. -1.
        -11    1    3    3    0    0 -0.16177596605E+02  0.91131691728E+01  0.96972613896E+01  0.20947586090E+02  0.51100000000E-03 0.  1.
         12    1    3    3    0    0 -0.16836255620E+02  0.28961825913E+01 -0.68032847799E+01  0.18388367538E+02  0.00000000000E+00 0. -1.
</event>
<event>
 7    1  0.1418970E-010  0.4778727E+02  0.7816164E-02  0.1312668E+00
        -11   -1    0    0    0    0  0.00000000000E+00  0.00000000000E+00  0.45593999997E+02  0.45594000000E+02  0.51100000000E-03 0. -1.
         11   -1    0    0    0    0 -0.00000000000E+00 -0.00000000000E+00 -0.45593999997E+02  0.45594000000E+02  0.51100000000E-03 0.  1.
    9900012    2    1    2    0    0  0.20036671841E+02 -0.37688883931E+02 -0.78551412472E+01  0.47787269194E+02  0.19999991564E+02 0.  0.
         12    1    1    2    0    0 -0.20036671841E+02  0.37688883931E+02  0.78551412472E+01  0.43400730806E+02  0.00000000000E+00 0. -1.
         11    1    3    3    0    0  0.81753726437E+00  0.51461085827E+00 -0.22897802091E+01  0.24852133069E+01  0.51100000000E-03 0. -1.
        -11    1    3    3    0    0  0.93987722141E+01 -0.31894060443E+02 -0.49151537267E+01  0.33611407990E+02  0.51100000000E-03 0.  1.
         12    1    3    3    0    0  0.98203623625E+01 -0.63094343470E+01 -0.65020731146E+00  0.11690647897E+02  0.00000000000E+00 0. -1.
</event>
<event>
 7    1  0.1418970E-010  0.4778727E+02  0.7816164E-02  0.1312668E+00
        -11   -1    0    0    0    0  0.00000000000E+00  0.00000000000E+00  0.45593999997E+02  0.45594000000E+02  0.51100000000E-03 0.  1.
         11   -1    0    0    0    0 -0.00000000000E+00 -0.00000000000E+00 -0.45593999997E+02  0.45594000000E+02  0.51100000000E-03 0. -1.
    9900012    2    1    2    0    0 -0.29312749286E+02 -0.30689210716E+02  0.90861650556E+01  0.47787270508E+02  0.19999997553E+02 0.  0.
         12    1    1    2    0    0  0.29312749286E+02  0.30689210716E+02 -0.90861650556E+01  0.43400729492E+02  0.00000000000E+00 0. -1.
         11    1    3    3    0    0 -0.11684056970E+02 -0.10565715264E+02 -0.45475547688E+01  0.16396090417E+02  0.51100000000E-03 0. -1.
        -11    1    3    3    0    0 -0.16202383865E+02 -0.19606182234E+02  0.97809700670E+01  0.27250449545E+02  0.51100000000E-03 0.  1.
        -12    1    3    3    0    0 -0.14263084501E+01 -0.51731321820E+00  0.38527497573E+01  0.41407305458E+01  0.00000000000E+00 0.  1.
</event>
<event>
 7    1  0.1418970E-010  0.4778729E+02  0.7816164E-02  0.1312668E+00
        -11   -1    0    0    0    0  0.00000000000E+00  0.00000000000E+00  0.45593999997E+02  0.45594000000E+02  0.51100000000E-03 0.  1.
         11   -1    0    0    0    0 -0.00000000000E+00 -0.00000000000E+00 -0.45593999997E+02  0.45594000000E+02  0.51100000000E-03 0. -1.
    9900012    2    1    2    0    0  0.35116069460E+02  0.24551255902E+02  0.69079259314E+01  0.47787286396E+02  0.20000069994E+02 0.  0.
         12    1    1    2    0    0 -0.35116069460E+02 -0.24551255902E+02 -0.69079259314E+01  0.43400713604E+02  0.00000000000E+00 0. -1.
         11    1    3    3    0    0  0.86073249383E+01  0.75734070793E+01 -0.41229194415E+01  0.12183636664E+02  0.51100000000E-03 0. -1.
        -11    1    3    3    0    0  0.26035790580E+02  0.16912731603E+02  0.73670432961E+01  0.31908873508E+02  0.51100000000E-03 0.  1.
         12    1    3    3    0    0  0.47295394186E+00  0.65117219544E-01  0.36638020768E+01  0.36947762235E+01  0.00000000000E+00 0. -1.
</event>
<event>
 7    1  0.1418970E-010  0.4778727E+02  0.7816164E-02  0.1312668E+00
        -11   -1    0    0    0    0  0.00000000000E+00  0.00000000000E+00  0.45593999997E+02  0.45594000000E+02  0.51100000000E-03 0.  1.
         11   -1    0    0    0    0 -0.00000000000E+00 -0.00000000000E+00 -0.45593999997E+02  0.45594000000E+02  0.51100000000E-03 0. -1.
    9900012    2    1    2    0    0  0.32856632267E+01 -0.41789846466E+02  0.11244402763E+02  0.47787269085E+02  0.19999991066E+02 0.  0.
         12    1    1    2    0    0 -0.32856632267E+01  0.41789846466E+02 -0.11244402763E+02  0.43400730915E+02  0.00000000000E+00 0. -1.
         11    1    3    3    0    0 -0.40746559754E+01 -0.15703045382E+02 -0.11864626422E+01  0.16266411696E+02  0.51100000000E-03 0. -1.
        -11    1    3    3    0    0  0.58904134616E+01 -0.17526342707E+02  0.30556098952E+01  0.18740501902E+02  0.51100000000E-03 0.  1.
        -12    1    3    3    0    0  0.14699057405E+01 -0.85604583759E+01  0.93752555103E+01  0.12780355487E+02  0.00000000000E+00 0.  1.
</event>
<event>
 7    1  0.1418970E-010  0.4778727E+02  0.7816164E-02  0.1312668E+00
        -11   -1    0    0    0    0  0.00000000000E+00  0.00000000000E+00  0.45593999997E+02  0.45594000000E+02  0.51100000000E-03 0. -1.
         11   -1    0    0    0    0 -0.00000000000E+00 -0.00000000000E+00 -0.45593999997E+02  0.45594000000E+02  0.51100000000E-03 0.  1.
    9900012    2    1    2    0    0  0.36449600438E+02 -0.62900523186E+01 -0.22704301794E+02  0.47787269013E+02  0.19999990739E+02 0.  0.
         12    1    1    2    0    0 -0.36449600438E+02  0.62900523186E+01  0.22704301794E+02  0.43400730987E+02  0.00000000000E+00 0. -1.
         11    1    3    3    0    0  0.23903667112E+02 -0.12239884476E+02 -0.11479777145E+02  0.29205913048E+02  0.51100000000E-03 0. -1.
        -11    1    3    3    0    0  0.93088789324E+01  0.18146841993E+01 -0.63291723211E+01  0.11402049301E+02  0.51100000000E-03 0.  1.
         12    1    3    3    0    0  0.32370543929E+01  0.41351479577E+01 -0.48953523275E+01  0.71793066647E+01  0.00000000000E+00 0. -1.
</event>
<event>
 7    1  0.1418970E-010  0.4778727E+02  0.7816164E-02  0.1312668E+00
        -11   -1    0    0    0    0  0.00000000000E+00  0.00000000000E+00  0.45593999997E+02  0.45594000000E+02  0.51100000000E-03 0.  1.
         11   -1    0    0    0    0 -0.00000000000E+00 -0.00000000000E+00 -0.45593999997E+02  0.45594000000E+02  0.51100000000E-03 0. -1.
    9900012    2    1    2    0    0 -0.22303555138E+02 -0.24577961368E+02  0.27966028293E+02  0.47787268494E+02  0.19999988372E+02 0.  0.
         12    1    1    2    0    0  0.22303555138E+02  0.24577961368E+02 -0.27966028293E+02  0.43400731506E+02  0.00000000000E+00 0. -1.
         11    1    3    3    0    0  0.35931830276E+00 -0.65579891878E+01  0.77009661664E+00  0.66128194358E+01  0.51100000000E-03 0. -1.
        -11    1    3    3    0    0 -0.10083380270E+02 -0.13814875932E+02  0.19084664896E+02  0.25627129943E+02  0.51100000000E-03 0.  1.
        -12    1    3    3    0    0 -0.12579493171E+02 -0.42050962479E+01  0.81112667803E+01  0.15547319115E+02  0.00000000000E+00 0.  1.
</event>
<event>
 7    1  0.1418970E-010  0.4778727E+02  0.7816164E-02  0.1312668E+00
        -11   -1    0    0    0    0  0.00000000000E+00  0.00000000000E+00  0.45593999997E+02  0.45594000000E+02  0.51100000000E-03 0.  1.
         11   -1    0    0    0    0 -0.00000000000E+00 -0.00000000000E+00 -0.45593999997E+02  0.45594000000E+02  0.51100000000E-03 0. -1.
    9900012    2    1    2    0    0  0.19034644418E+02  0.29532338453E+02  0.25478361479E+02  0.47787267215E+02  0.19999982540E+02 0.  0.
         12    1    1    2    0    0 -0.19034644418E+02 -0.29532338453E+02 -0.25478361479E+02  0.43400732785E+02  0.00000000000E+00 0. -1.
         11    1    3    3    0    0 -0.95626420035E+00  0.34495109295E+01  0.46794683652E+00  0.36100611319E+01  0.51100000000E-03 0. -1.
        -11    1    3    3    0    0  0.51690547131E+01  0.14078483112E+02  0.34463530208E+01  0.15388312538E+02  0.51100000000E-03 0.  1.
        -12    1    3    3    0    0  0.14821853905E+02  0.12004344412E+02  0.21564061622E+02  0.28788893545E+02  0.00000000000E+00 0.  1.
</event>
<event>
 7    1  0.1418970E-010  0.4778727E+02  0.7816164E-02  0.1312668E+00
        -11   -1    0    0    0    0  0.00000000000E+00  0.00000000000E+00  0.45593999997E+02  0.45594000000E+02  0.51100000000E-03 0.  1.
         11   -1    0    0    0    0 -0.00000000000E+00 -0.00000000000E+00 -0.45593999997E+02  0.45594000000E+02  0.51100000000E-03 0. -1.
    9900012    2    1    2    0    0 -0.55230320994E+01  0.91603047161E+01  0.42061958849E+02  0.47787269035E+02  0.19999990840E+02 0.  0.
         12    1    1    2    0    0  0.55230320994E+01 -0.91603047161E+01 -0.42061958849E+02  0.43400730965E+02  0.00000000000E+00 0. -1.
         11    1    3    3    0    0  0.35542098253E+01  0.52667887210E+01  0.21590983986E+02  0.22506489301E+02  0.51100000000E-03 0. -1.
        -11    1    3    3    0    0 -0.22904942697E+01  0.19445419276E+01  0.17267623744E+02  0.17527077261E+02  0.51100000000E-03 0.  1.
        -12    1    3    3    0    0 -0.67867476550E+01  0.19489740674E+01  0.32033511189E+01  0.77537024729E+01  0.00000000000E+00 0.  1.
</event>
<event>
 7    1  0.1418970E-010  0.4778727E+02  0.7816164E-02  0.1312668E+00
        -11   -1    0    0    0    0  0.00000000000E+00  0.00000000000E+00  0.45593999997E+02  0.45594000000E+02  0.51100000000E-03 0. -1.
         11   -1    0    0    0    0 -0.00000000000E+00 -0.00000000000E+00 -0.45593999997E+02  0.45594000000E+02  0.51100000000E-03 0.  1.
    9900012    2    1    2    0    0 -0.15613190369E+02 -0.40285005118E+02 -0.41194633717E+01  0.47787270406E+02  0.19999997088E+02 0.  0.
         12    1    1    2    0    0  0.15613190369E+02  0.40285005118E+02  0.41194633717E+01  0.43400729594E+02  0.00000000000E+00 0. -1.
         11    1    3    3    0    0 -0.27442950870E+01 -0.49387467076E+01 -0.66650117741E+01  0.87375486709E+01  0.51100000000E-03 0. -1.
        -11    1    3    3    0    0 -0.75475553024E+01 -0.28974137311E+02 -0.11485923719E+01  0.29963068745E+02  0.51100000000E-03 0.  1.
        -12    1    3    3    0    0 -0.53213399800E+01 -0.63721210993E+01  0.36941407743E+01  0.90866529893E+01  0.00000000000E+00 0.  1.
</event>
<event>
 7    1  0.1418970E-010  0.4778726E+02  0.7816164E-02  0.1312668E+00
        -11   -1    0    0    0    0  0.00000000000E+00  0.00000000000E+00  0.45593999997E+02  0.45594000000E+02  0.51100000000E-03 0. -1.
         11   -1    0    0    0    0 -0.00000000000E+00 -0.00000000000E+00 -0.45593999997E+02  0.45594000000E+02  0.51100000000E-03 0.  1.
    9900012    2    1    2    0    0 -0.24717140047E+02  0.35674701216E+02  0.53355394095E-01  0.47787260770E+02  0.19999953155E+02 0.  0.
         12    1    1    2    0    0  0.24717140047E+02 -0.35674701216E+02 -0.53355394095E-01  0.43400739230E+02  0.00000000000E+00 0. -1.
         11    1    3    3    0    0 -0.15287981111E+02  0.16788607671E+02  0.76076303693E+01  0.23946936215E+02  0.51100000000E-03 0. -1.
        -11    1    3    3    0    0 -0.95841177777E+01  0.11068031534E+02 -0.35965002894E+01  0.15076188185E+02  0.51100000000E-03 0.  1.
        -12    1    3    3    0    0  0.15495884194E+00  0.78180620112E+01 -0.39577746857E+01  0.87641363702E+01  0.00000000000E+00 0.  1.
</event>
<event>
 7    1  0.1418970E-010  0.4778727E+02  0.7816164E-02  0.1312668E+00
        -11   -1    0    0    0    0  0.00000000000E+00  0.00000000000E+00  0.45593999997E+02  0.45594000000E+02  0.51100000000E-03 0.  1.
         11   -1    0    0    0    0 -0.00000000000E+00 -0.00000000000E+00 -0.45593999997E+02  0.45594000000E+02  0.51100000000E-03 0. -1.
    9900012    2    1    2    0    0  0.93628744841E+01 -0.24407961907E+02  0.34644067751E+02  0.47787268976E+02  0.19999990571E+02 0.  0.
         12    1    1    2    0    0 -0.93628744841E+01  0.24407961907E+02 -0.34644067751E+02  0.43400731024E+02  0.00000000000E+00 0. -1.
         11    1    3    3    0    0  0.83398929431E+01 -0.11481604483E+02  0.13731352378E+02  0.19746672991E+02  0.51100000000E-03 0. -1.
        -11    1    3    3    0    0  0.48575930258E+01 -0.87016126060E+01  0.19886124323E+02  0.22243475735E+02  0.51100000000E-03 0.  1.
         12    1    3    3    0    0 -0.38346114848E+01 -0.42247448178E+01  0.10265910506E+01  0.57971202506E+01  0.00000000000E+00 0. -1.
</event>
<event>
 7    1  0.1418970E-010  0.4778727E+02  0.7816164E-02  0.1312668E+00
        -11   -1    0    0    0    0  0.00000000000E+00  0.00000000000E+00  0.45593999997E+02  0.45594000000E+02  0.51100000000E-03 0. -1.
         11   -1    0    0    0    0 -0.00000000000E+00 -0.00000000000E+00 -0.45593999997E+02  0.45594000000E+02  0.51100000000E-03 0.  1.
    9900012    2    1    2    0    0  0.11699974438E+02 -0.38113721833E+02  0.17148704254E+02  0.47787271303E+02  0.20000001181E+02 0.  0.
         12    1    1    2    0    0 -0.11699974438E+02  0.38113721833E+02 -0.17148704254E+02  0.43400728697E+02  0.00000000000E+00 0. -1.
         11    1    3    3    0    0  0.86056562010E+01 -0.24485646652E+02  0.31585238578E+01  0.26145372131E+02  0.51100000000E-03 0. -1.
        -11    1    3    3    0    0  0.25947755388E+01 -0.14547568409E+02  0.10852033768E+02  0.18333882401E+02  0.51100000000E-03 0.  1.
        -12    1    3    3    0    0  0.49954269847E+00  0.91949322870E+00  0.31381466281E+01  0.33080167721E+01  0.00000000000E+00 0.  1.
</event>
<event>
 7    1  0.1418970E-010  0.4778727E+02  0.7816164E-02  0.1312668E+00
        -11   -1    0    0    0    0  0.00000000000E+00  0.00000000000E+00  0.45593999997E+02  0.45594000000E+02  0.51100000000E-03 0. -1.
         11   -1    0    0    0    0 -0.00000000000E+00 -0.00000000000E+00 -0.45593999997E+02  0.45594000000E+02  0.51100000000E-03 0.  1.
    9900012    2    1    2    0    0  0.34168200668E+02 -0.86093896189E+01  0.25338423992E+02  0.47787271240E+02  0.20000000892E+02 0.  0.
         12    1    1    2    0    0 -0.34168200668E+02  0.86093896189E+01 -0.25338423992E+02  0.43400728760E+02  0.00000000000E+00 0. -1.
         11    1    3    3    0    0  0.12882223009E+02  0.36112746345E+01  0.13604163623E+02  0.19080519969E+02  0.51100000000E-03 0. -1.
        -11    1    3    3    0    0  0.79081253797E+01  0.23172015486E+00  0.31654852166E+01  0.85212932216E+01  0.51100000000E-03 0.  1.
        -12    1    3    3    0    0  0.13377852279E+02 -0.12452384408E+02  0.85687751522E+01  0.20185458049E+02  0.00000000000E+00 0.  1.
</event>
<event>
 7    1  0.1418970E-010  0.4778728E+02  0.7816164E-02  0.1312668E+00
        -11   -1    0    0    0    0  0.00000000000E+00  0.00000000000E+00  0.45593999997E+02  0.45594000000E+02  0.51100000000E-03 0.  1.
         11   -1    0    0    0    0 -0.00000000000E+00 -0.00000000000E+00 -0.45593999997E+02  0.45594000000E+02  0.51100000000E-03 0. -1.
    9900012    2    1    2    0    0  0.21353887927E+02  0.62534608985E+00  0.37778864165E+02  0.47787283820E+02  0.20000058247E+02 0.  0.
         12    1    1    2    0    0 -0.21353887927E+02 -0.62534608985E+00 -0.37778864165E+02  0.43400716180E+02  0.00000000000E+00 0. -1.
         11    1    3    3    0    0  0.57396928966E+01 -0.34760291468E+01  0.32787598637E+01  0.74684081090E+01  0.51100000000E-03 0.  1.
        -11    1    3    3    0    0 -0.82437944256E+00  0.19553721890E+01  0.12987076553E+02  0.13159302394E+02  0.51100000000E-03 0. -1.
        -12    1    3    3    0    0  0.16438574473E+02  0.21460030477E+01  0.21513027749E+02  0.27159573316E+02  0.00000000000E+00 0.  1.
</event>
<event>
 7    1  0.1418970E-010  0.4778728E+02  0.7816164E-02  0.1312668E+00
        -11   -1    0    0    0    0  0.00000000000E+00  0.00000000000E+00  0.45593999997E+02  0.45594000000E+02  0.51100000000E-03 0. -1.
         11   -1    0    0    0    0 -0.00000000000E+00 -0.00000000000E+00 -0.45593999997E+02  0.45594000000E+02  0.51100000000E-03 0.  1.
    9900012    2    1    2    0    0  0.39241739053E+02  0.22892629407E+01 -0.18397496869E+02  0.47787277659E+02  0.20000030158E+02 0.  0.
         12    1    1    2    0    0 -0.39241739053E+02 -0.22892629407E+01  0.18397496869E+02  0.43400722341E+02  0.00000000000E+00 0. -1.
         11    1    3    3    0    0  0.10148735802E+02 -0.46629948596E+01 -0.62704154405E+01  0.12808531122E+02  0.51100000000E-03 0. -1.
        -11    1    3    3    0    0  0.22304612408E+02  0.87422118764E+01 -0.13954306489E+02  0.27724441798E+02  0.51100000000E-03 0.  1.
        -12    1    3    3    0    0  0.67883908431E+01 -0.17899540761E+01  0.18272250602E+01  0.72543047395E+01  0.00000000000E+00 0.  1.
</event>
<event>
 7    1  0.1418970E-010  0.4778727E+02  0.7816164E-02  0.1312668E+00
        -11   -1    0    0    0    0  0.00000000000E+00  0.00000000000E+00  0.45593999997E+02  0.45594000000E+02  0.51100000000E-03 0.  1.
         11   -1    0    0    0    0 -0.00000000000E+00 -0.00000000000E+00 -0.45593999997E+02  0.45594000000E+02  0.51100000000E-03 0. -1.
    9900012    2    1    2    0    0 -0.45043886308E+01  0.40318558466E+02  0.15419062193E+02  0.47787272442E+02  0.20000006370E+02 0.  0.
         12    1    1    2    0    0  0.45043886308E+01 -0.40318558466E+02 -0.15419062193E+02  0.43400727558E+02  0.00000000000E+00 0. -1.
         11    1    3    3    0    0  0.18483167405E+01  0.72591724774E+01 -0.30464371294E+01  0.80865715402E+01  0.51100000000E-03 0.  1.
        -11    1    3    3    0    0 -0.50976993575E+01  0.89253150729E+01  0.92776673845E+01  0.13846403874E+02  0.51100000000E-03 0. -1.
        -12    1    3    3    0    0 -0.12550060138E+01  0.24134070916E+02  0.91878319375E+01  0.25854297027E+02  0.00000000000E+00 0.  1.
</event>
<event>
 7    1  0.1418970E-010  0.4778726E+02  0.7816164E-02  0.1312668E+00
        -11   -1    0    0    0    0  0.00000000000E+00  0.00000000000E+00  0.45593999997E+02  0.45594000000E+02  0.51100000000E-03 0. -1.
         11   -1    0    0    0    0 -0.00000000000E+00 -0.00000000000E+00 -0.45593999997E+02  0.45594000000E+02  0.51100000000E-03 0.  1.
    9900012    2    1    2    0    0  0.31705022977E+02 -0.14197244247E+02 -0.26016415367E+02  0.47787261588E+02  0.19999956883E+02 0.  0.
         12    1    1    2    0    0 -0.31705022977E+02  0.14197244247E+02  0.26016415367E+02  0.43400738412E+02  0.00000000000E+00 0. -1.
         11    1    3    3    0    0  0.66091298623E+01  0.26061955146E+00  0.20319628765E+01  0.69193492093E+01  0.51100000000E-03 0. -1.
        -11    1    3    3    0    0  0.53749367248E+01 -0.65367460481E+01 -0.84247805156E+01  0.11941353386E+02  0.51100000000E-03 0.  1.
        -12    1    3    3    0    0  0.19720956390E+02 -0.79211177503E+01 -0.19623597728E+02  0.28926558992E+02  0.00000000000E+00 0.  1.
</event>
<event>
 7    1  0.1418970E-010  0.4778727E+02  0.7816164E-02  0.1312668E+00
        -11   -1    0    0    0    0  0.00000000000E+00  0.00000000000E+00  0.45593999997E+02  0.45594000000E+02  0.51100000000E-03 0.  1.
         11   -1    0    0    0    0 -0.00000000000E+00 -0.00000000000E+00 -0.45593999997E+02  0.45594000000E+02  0.51100000000E-03 0. -1.
    9900012    2    1    2    0    0  0.13597913244E+02 -0.20671773434E+02  0.35656665737E+02  0.47787271054E+02  0.20000000046E+02 0.  0.
         12    1    1    2    0    0 -0.13597913244E+02  0.20671773434E+02 -0.35656665737E+02  0.43400728946E+02  0.00000000000E+00 0. -1.
         11    1    3    3    0    0 -0.13529717089E+01 -0.19342429216E+01 -0.91182098751E+00  0.25304635740E+01  0.51100000000E-03 0. -1.
        -11    1    3    3    0    0  0.66868149127E+01 -0.51152513485E+01  0.22419867683E+02  0.23948481314E+02  0.51100000000E-03 0.  1.
        -12    1    3    3    0    0  0.82640700406E+01 -0.13622279164E+02  0.14148619041E+02  0.21308326167E+02  0.00000000000E+00 0.  1.
</event>
<event>
 7    1  0.1418970E-010  0.4778728E+02  0.7816164E-02  0.1312668E+00
        -11   -1    0    0    0    0  0.00000000000E+00  0.00000000000E+00  0.45593999997E+02  0.45594000000E+02  0.51100000000E-03 0.  1.
         11   -1    0    0    0    0 -0.00000000000E+00 -0.00000000000E+00 -0.45593999997E+02  0.45594000000E+02  0.51100000000E-03 0. -1.
    9900012    2    1    2    0    0  0.30738596268E+02 -0.21373540654E+02  0.21952976275E+02  0.47787277564E+02  0.20000029725E+02 0.  0.
         12    1    1    2    0    0 -0.30738596268E+02  0.21373540654E+02 -0.21952976275E+02  0.43400722436E+02  0.00000000000E+00 0. -1.
         11    1    3    3    0    0  0.47024068709E+01  0.41341260829E+00  0.90960529728E+00  0.48073820757E+01  0.51100000000E-03 0. -1.
        -11    1    3    3    0    0  0.22526170670E+02 -0.23445849152E+02  0.15023632035E+02  0.35816835808E+02  0.51100000000E-03 0.  1.
        -12    1    3    3    0    0  0.35100187275E+01  0.16588958901E+01  0.60197389429E+01  0.71630596802E+01  0.00000000000E+00 0.  1.
</event>
<event>
 7    1  0.1418970E-010  0.4778727E+02  0.7816164E-02  0.1312668E+00
        -11   -1    0    0    0    0  0.00000000000E+00  0.00000000000E+00  0.45593999997E+02  0.45594000000E+02  0.51100000000E-03 0.  1.
         11   -1    0    0    0    0 -0.00000000000E+00 -0.00000000000E+00 -0.45593999997E+02  0.45594000000E+02  0.51100000000E-03 0. -1.
    9900012    2    1    2    0    0 -0.24088842680E+02  0.22503579860E+02  0.28230121548E+02  0.47787271771E+02  0.20000003314E+02 0.  0.
         12    1    1    2    0    0  0.24088842680E+02 -0.22503579860E+02 -0.28230121548E+02  0.43400728229E+02  0.00000000000E+00 0. -1.
         11    1    3    3    0    0 -0.54381116826E+01  0.59751191895E+01  0.20147289714E+01  0.83267185067E+01  0.51100000000E-03 0. -1.
        -11    1    3    3    0    0 -0.16574964313E+02  0.15645978597E+02  0.28335375323E+02  0.36365087422E+02  0.51100000000E-03 0.  1.
        -12    1    3    3    0    0 -0.20757666844E+01  0.88248207318E+00 -0.21199827466E+01  0.30954658427E+01  0.00000000000E+00 0.  1.
</event>
<event>
 7    1  0.1418970E-010  0.4778727E+02  0.7816164E-02  0.1312668E+00
        -11   -1    0    0    0    0  0.00000000000E+00  0.00000000000E+00  0.45593999997E+02  0.45594000000E+02  0.51100000000E-03 0. -1.
         11   -1    0    0    0    0 -0.00000000000E+00 -0.00000000000E+00 -0.45593999997E+02  0.45594000000E+02  0.51100000000E-03 0.  1.
    9900012    2    1    2    0    0 -0.17700251493E+02  0.14639658900E+02 -0.36823969901E+02  0.47787271033E+02  0.19999999949E+02 0.  0.
         12    1    1    2    0    0  0.17700251493E+02 -0.14639658900E+02  0.36823969901E+02  0.43400728967E+02  0.00000000000E+00 0. -1.
         11    1    3    3    0    0 -0.27997000820E+01  0.69544043859E+01 -0.25375009359E+00  0.75010966053E+01  0.51100000000E-03 0. -1.
        -11    1    3    3    0    0 -0.47736911300E+01  0.16995072028E+01 -0.94026254223E+01  0.10681096237E+02  0.51100000000E-03 0.  1.
         12    1    3    3    0    0 -0.10126860281E+02  0.59857473111E+01 -0.27167594385E+02  0.29605078191E+02  0.00000000000E+00 0. -1.
</event>
<event>
 7    1  0.1418970E-010  0.4778727E+02  0.7816164E-02  0.1312668E+00
        -11   -1    0    0    0    0  0.00000000000E+00  0.00000000000E+00  0.45593999997E+02  0.45594000000E+02  0.51100000000E-03 0.  1.
         11   -1    0    0    0    0 -0.00000000000E+00 -0.00000000000E+00 -0.45593999997E+02  0.45594000000E+02  0.51100000000E-03 0. -1.
    9900012    2    1    2    0    0  0.22515823754E+02  0.26556068987E+02  0.25912092087E+02  0.47787266877E+02  0.19999980998E+02 0.  0.
         12    1    1    2    0    0 -0.22515823754E+02 -0.26556068987E+02 -0.25912092087E+02  0.43400733123E+02  0.00000000000E+00 0. -1.
         11    1    3    3    0    0  0.61000267914E+01  0.20125652290E+00  0.33419013792E+01  0.69583860294E+01  0.51100000000E-03 0. -1.
        -11    1    3    3    0    0  0.15458729938E+02  0.19044795771E+02  0.22748942359E+02  0.33454311471E+02  0.51100000000E-03 0.  1.
         12    1    3    3    0    0  0.95706702446E+00  0.73100166926E+01 -0.17875165203E+00  0.73745693765E+01  0.00000000000E+00 0. -1.
</event>
<event>
 7    1  0.1418970E-010  0.4778727E+02  0.7816164E-02  0.1312668E+00
        -11   -1    0    0    0    0  0.00000000000E+00  0.00000000000E+00  0.45593999997E+02  0.45594000000E+02  0.51100000000E-03 0.  1.
         11   -1    0    0    0    0 -0.00000000000E+00 -0.00000000000E+00 -0.45593999997E+02  0.45594000000E+02  0.51100000000E-03 0. -1.
    9900012    2    1    2    0    0  0.51831442700E+01 -0.64977909617E+01  0.42597382360E+02  0.47787271252E+02  0.20000000946E+02 0.  0.
         12    1    1    2    0    0 -0.51831442700E+01  0.64977909617E+01 -0.42597382360E+02  0.43400728748E+02  0.00000000000E+00 0. -1.
         11    1    3    3    0    0 -0.24595298476E+01  0.94725955987E+00  0.13595578304E+02  0.13848694430E+02  0.51100000000E-03 0. -1.
        -11    1    3    3    0    0  0.37378763477E-01  0.37231672370E+01  0.95878022533E+01  0.10285393709E+02  0.51100000000E-03 0.  1.
        -12    1    3    3    0    0  0.76052953542E+01 -0.11168217759E+02  0.19414001803E+02  0.23653183112E+02  0.00000000000E+00 0.  1.
</event>
<event>
 7    1  0.1418970E-010  0.4778727E+02  0.7816164E-02  0.1312668E+00
        -11   -1    0    0    0    0  0.00000000000E+00  0.00000000000E+00  0.45593999997E+02  0.45594000000E+02  0.51100000000E-03 0.  1.
         11   -1    0    0    0    0 -0.00000000000E+00 -0.00000000000E+00 -0.45593999997E+02  0.45594000000E+02  0.51100000000E-03 0. -1.
    9900012    2    1    2    0    0 -0.18988191704E+02  0.58519951218E+01  0.38585309029E+02  0.47787270237E+02  0.19999996318E+02 0.  0.
         12    1    1    2    0    0  0.18988191704E+02 -0.58519951218E+01 -0.38585309029E+02  0.43400729763E+02  0.00000000000E+00 0. -1.
         11    1    3    3    0    0 -0.11401855188E+02 -0.56518372523E+01  0.14570958558E+02  0.19345759215E+02  0.51100000000E-03 0. -1.
        -11    1    3    3    0    0 -0.60181857664E+01  0.40986561420E+01  0.14975577103E+02  0.16651890341E+02  0.51100000000E-03 0.  1.
         12    1    3    3    0    0 -0.15681507496E+01  0.74051762321E+01  0.90387733682E+01  0.11789620681E+02  0.00000000000E+00 0. -1.
</event>
<event>
 7    1  0.1418970E-010  0.4778727E+02  0.7816164E-02  0.1312668E+00
        -11   -1    0    0    0    0  0.00000000000E+00  0.00000000000E+00  0.45593999997E+02  0.45594000000E+02  0.51100000000E-03 0.  1.
         11   -1    0    0    0    0 -0.00000000000E+00 -0.00000000000E+00 -0.45593999997E+02  0.45594000000E+02  0.51100000000E-03 0. -1.
    9900012    2    1    2    0    0 -0.12208908442E+02  0.39746055629E+02 -0.12442544002E+02  0.47787270920E+02  0.19999999434E+02 0.  0.
         12    1    1    2    0    0  0.12208908442E+02 -0.39746055629E+02  0.12442544002E+02  0.43400729080E+02  0.00000000000E+00 0. -1.
         11    1    3    3    0    0  0.19869202365E+01  0.67282691275E+00 -0.69593861581E+00  0.22101762145E+01  0.51100000000E-03 0. -1.
        -11    1    3    3    0    0 -0.63538626550E+01  0.29581071484E+02 -0.28560330164E+01  0.30390266298E+02  0.51100000000E-03 0.  1.
         12    1    3    3    0    0 -0.78419660237E+01  0.94921572320E+01 -0.88905723700E+01  0.15186828408E+02  0.00000000000E+00 0. -1.
</event>
<event>
 7    1  0.1418970E-010  0.4778727E+02  0.7816164E-02  0.1312668E+00
        -11   -1    0    0    0    0  0.00000000000E+00  0.00000000000E+00  0.45593999997E+02  0.45594000000E+02  0.51100000000E-03 0. -1.
         11   -1    0    0    0    0 -0.00000000000E+00 -0.00000000000E+00 -0.45593999997E+02  0.45594000000E+02  0.51100000000E-03 0.  1.
    9900012    2    1    2    0    0  0.29390256058E+02 -0.31791940179E+02 -0.30180132833E+01  0.47787274019E+02  0.20000013561E+02 0.  0.
         12    1    1    2    0    0 -0.29390256058E+02  0.31791940179E+02  0.30180132833E+01  0.43400725981E+02  0.00000000000E+00 0. -1.
         11    1    3    3    0    0  0.13121264786E+01  0.17610908504E+01  0.84462362210E+00  0.23529781562E+01  0.51100000000E-03 0. -1.
        -11    1    3    3    0    0  0.13521847422E+02 -0.20062750600E+02 -0.73458821704E+01  0.25284704951E+02  0.51100000000E-03 0.  1.
         12    1    3    3    0    0  0.14556282158E+02 -0.13490280429E+02  0.34832452650E+01  0.20149590911E+02  0.00000000000E+00 0. -1.
</event>
<event>
 7    1  0.1418970E-010  0.4778727E+02  0.7816164E-02  0.1312668E+00
        -11   -1    0    0    0    0  0.00000000000E+00  0.00000000000E+00  0.45593999997E+02  0.45594000000E+02  0.51100000000E-03 0. -1.
         11   -1    0    0    0    0 -0.00000000000E+00 -0.00000000000E+00 -0.45593999997E+02  0.45594000000E+02  0.51100000000E-03 0.  1.
    9900012    2    1    2    0    0 -0.35844446512E+02  0.21188214586E+02 -0.12241677010E+02  0.47787269141E+02  0.19999991320E+02 0.  0.
         12    1    1    2    0    0  0.35844446512E+02 -0.21188214586E+02  0.12241677010E+02  0.43400730859E+02  0.00000000000E+00 0. -1.
         11    1    3    3    0    0 -0.86705967998E+01  0.10717365614E+02  0.16433107584E+01  0.13883142478E+02  0.51100000000E-03 0. -1.
        -11    1    3    3    0    0 -0.18975678728E+02  0.12099428330E+02 -0.91176220475E+01  0.24281754079E+02  0.51100000000E-03 0.  1.
        -12    1    3    3    0    0 -0.81981709849E+01 -0.16285793574E+01 -0.47673657212E+01  0.96223725838E+01  0.00000000000E+00 0.  1.
</event>
<event>
 7    1  0.1418970E-010  0.4778728E+02  0.7816164E-02  0.1312668E+00
        -11   -1    0    0    0    0  0.00000000000E+00  0.00000000000E+00  0.45593999997E+02  0.45594000000E+02  0.51100000000E-03 0.  1.
         11   -1    0    0    0    0 -0.00000000000E+00 -0.00000000000E+00 -0.45593999997E+02  0.45594000000E+02  0.51100000000E-03 0. -1.
    9900012    2    1    2    0    0 -0.77301651997E+01  0.11828719474E+02  0.41035942907E+02  0.47787278017E+02  0.20000031790E+02 0.  0.
         12    1    1    2    0    0  0.77301651997E+01 -0.11828719474E+02 -0.41035942907E+02  0.43400721983E+02  0.00000000000E+00 0. -1.
         11    1    3    3    0    0 -0.52500744404E+01  0.11183269194E+02  0.30166042989E+02  0.32597836452E+02  0.51100000000E-03 0.  1.
        -11    1    3    3    0    0 -0.42616269493E+01 -0.29038694575E+01  0.98039775649E+01  0.11077540270E+02  0.51100000000E-03 0. -1.
         12    1    3    3    0    0  0.17815361900E+01  0.35493197377E+01  0.10659223532E+01  0.41119012950E+01  0.00000000000E+00 0. -1.
</event>
<event>
 7    1  0.1418970E-010  0.4778727E+02  0.7816164E-02  0.1312668E+00
        -11   -1    0    0    0    0  0.00000000000E+00  0.00000000000E+00  0.45593999997E+02  0.45594000000E+02  0.51100000000E-03 0.  1.
         11   -1    0    0    0    0 -0.00000000000E+00 -0.00000000000E+00 -0.45593999997E+02  0.45594000000E+02  0.51100000000E-03 0. -1.
    9900012    2    1    2    0    0 -0.13355978202E+01 -0.93602323205E+01  0.42358302047E+02  0.47787268175E+02  0.19999986917E+02 0.  0.
         12    1    1    2    0    0  0.13355978202E+01  0.93602323205E+01 -0.42358302047E+02  0.43400731825E+02  0.00000000000E+00 0. -1.
         11    1    3    3    0    0 -0.62694352616E+01 -0.74597231621E+01  0.10606848636E+02  0.14403420649E+02  0.51100000000E-03 0. -1.
        -11    1    3    3    0    0  0.25931789965E+00  0.18434906818E+01  0.11203915686E+01  0.21727819023E+01  0.51100000000E-03 0.  1.
        -12    1    3    3    0    0  0.46745195417E+01 -0.37439998402E+01  0.30631061843E+02  0.31211065623E+02  0.00000000000E+00 0.  1.
</event>
<event>
 7    1  0.1418970E-010  0.4778727E+02  0.7816164E-02  0.1312668E+00
        -11   -1    0    0    0    0  0.00000000000E+00  0.00000000000E+00  0.45593999997E+02  0.45594000000E+02  0.51100000000E-03 0.  1.
         11   -1    0    0    0    0 -0.00000000000E+00 -0.00000000000E+00 -0.45593999997E+02  0.45594000000E+02  0.51100000000E-03 0. -1.
    9900012    2    1    2    0    0  0.36783096003E+02 -0.22696350469E+02 -0.39373968642E+01  0.47787267630E+02  0.19999984431E+02 0.  0.
         12    1    1    2    0    0 -0.36783096003E+02  0.22696350469E+02  0.39373968642E+01  0.43400732370E+02  0.00000000000E+00 0. -1.
         11    1    3    3    0    0  0.84210908781E+00 -0.52366878267E+01  0.15191555213E+01  0.55172348934E+01  0.51100000000E-03 0. -1.
        -11    1    3    3    0    0  0.26127104833E+02 -0.12476315600E+02  0.19254830821E+01  0.29017090538E+02  0.51100000000E-03 0.  1.
         12    1    3    3    0    0  0.98138820825E+01 -0.49833470422E+01 -0.73820354676E+01  0.13252942199E+02  0.00000000000E+00 0. -1.
</event>
<event>
 7    1  0.1418970E-010  0.4778727E+02  0.7816164E-02  0.1312668E+00
        -11   -1    0    0    0    0  0.00000000000E+00  0.00000000000E+00  0.45593999997E+02  0.45594000000E+02  0.51100000000E-03 0.  1.
         11   -1    0    0    0    0 -0.00000000000E+00 -0.00000000000E+00 -0.45593999997E+02  0.45594000000E+02  0.51100000000E-03 0. -1.
    9900012    2    1    2    0    0 -0.36959320832E+02 -0.22750768879E+02 -0.18462411545E+00  0.47787274580E+02  0.20000016120E+02 0.  0.
         12    1    1    2    0    0  0.36959320832E+02  0.22750768879E+02  0.18462411545E+00  0.43400725420E+02  0.00000000000E+00 0. -1.
         11    1    3    3    0    0 -0.90256279988E+01 -0.11940605577E+02  0.40847141735E+01  0.15515312193E+02  0.51100000000E-03 0. -1.
        -11    1    3    3    0    0 -0.10812234538E+02 -0.10110783201E+02 -0.28738116414E+01  0.15079494231E+02  0.51100000000E-03 0.  1.
        -12    1    3    3    0    0 -0.17121458295E+02 -0.69938010084E+00 -0.13955266476E+01  0.17192468156E+02  0.00000000000E+00 0.  1.
</event>
<event>
 7    1  0.1418970E-010  0.4778727E+02  0.7816164E-02  0.1312668E+00
        -11   -1    0    0    0    0  0.00000000000E+00  0.00000000000E+00  0.45593999997E+02  0.45594000000E+02  0.51100000000E-03 0. -1.
         11   -1    0    0    0    0 -0.00000000000E+00 -0.00000000000E+00 -0.45593999997E+02  0.45594000000E+02  0.51100000000E-03 0.  1.
    9900012    2    1    2    0    0 -0.22926112023E+02 -0.29552159228E+02 -0.22015607835E+02  0.47787265953E+02  0.19999976784E+02 0.  0.
         12    1    1    2    0    0  0.22926112023E+02  0.29552159228E+02  0.22015607835E+02  0.43400734047E+02  0.00000000000E+00 0. -1.
         11    1    3    3    0    0 -0.48128191614E+01 -0.15214218369E+01  0.16854957591E+01  0.53215457248E+01  0.51100000000E-03 0. -1.
        -11    1    3    3    0    0 -0.98710616612E+01 -0.18335325426E+02 -0.20761679705E+02  0.29405260775E+02  0.51100000000E-03 0.  1.
         12    1    3    3    0    0 -0.82422312006E+01 -0.96954119646E+01 -0.29394238891E+01  0.13060459453E+02  0.00000000000E+00 0. -1.
</event>
<event>
 7    1  0.1418970E-010  0.4778727E+02  0.7816164E-02  0.1312668E+00
        -11   -1    0    0    0    0  0.00000000000E+00  0.00000000000E+00  0.45593999997E+02  0.45594000000E+02  0.51100000000E-03 0. -1.
         11   -1    0    0    0    0 -0.00000000000E+00 -0.00000000000E+00 -0.45593999997E+02  0.45594000000E+02  0.51100000000E-03 0.  1.
    9900012    2    1    2    0    0  0.33580820146E+02 -0.26444609630E+02 -0.75255929404E+01  0.47787269485E+02  0.19999992889E+02 0.  0.
         12    1    1    2    0    0 -0.33580820146E+02  0.26444609630E+02  0.75255929404E+01  0.43400730515E+02  0.00000000000E+00 0. -1.
         11    1    3    3    0    0  0.22079868966E+02 -0.23956103218E+02 -0.42562865372E+01  0.32856224225E+02  0.51100000000E-03 0.  1.
        -11    1    3    3    0    0  0.61381539579E+01 -0.31061653974E+01 -0.57727782490E+01  0.89805437731E+01  0.51100000000E-03 0. -1.
        -12    1    3    3    0    0  0.53627972216E+01  0.61765898529E+00  0.25034718459E+01  0.59505014868E+01  0.00000000000E+00 0.  1.
</event>
<event>
 7    1  0.1418970E-010  0.4778728E+02  0.7816164E-02  0.1312668E+00
        -11   -1    0    0    0    0  0.00000000000E+00  0.00000000000E+00  0.45593999997E+02  0.45594000000E+02  0.51100000000E-03 0.  1.
         11   -1    0    0    0    0 -0.00000000000E+00 -0.00000000000E+00 -0.45593999997E+02  0.45594000000E+02  0.51100000000E-03 0. -1.
    9900012    2    1    2    0    0 -0.29069404305E+02  0.38481985098E+01  0.31996622828E+02  0.47787276840E+02  0.20000026424E+02 0.  0.
         12    1    1    2    0    0  0.29069404305E+02 -0.38481985098E+01 -0.31996622828E+02  0.43400723160E+02  0.00000000000E+00 0. -1.
         11    1    3    3    0    0 -0.24214957330E-01  0.47221365337E+01  0.49411748381E+01  0.68347910611E+01  0.51100000000E-03 0. -1.
        -11    1    3    3    0    0 -0.13052761615E+02 -0.11379241010E+01  0.18903565855E+02  0.23000309984E+02  0.51100000000E-03 0.  1.
        -12    1    3    3    0    0 -0.15992427733E+02  0.26398607706E+00  0.81518821346E+01  0.17952175795E+02  0.00000000000E+00 0.  1.
</event>
<event>
 7    1  0.1418970E-010  0.4778727E+02  0.7816164E-02  0.1312668E+00
        -11   -1    0    0    0    0  0.00000000000E+00  0.00000000000E+00  0.45593999997E+02  0.45594000000E+02  0.51100000000E-03 0.  1.
         11   -1    0    0    0    0 -0.00000000000E+00 -0.00000000000E+00 -0.45593999997E+02  0.45594000000E+02  0.51100000000E-03 0. -1.
    9900012    2    1    2    0    0  0.70630086158E+00  0.12971579460E+02  0.41410899641E+02  0.47787270241E+02  0.19999996335E+02 0.  0.
         12    1    1    2    0    0 -0.70630086158E+00 -0.12971579460E+02 -0.41410899641E+02  0.43400729759E+02  0.00000000000E+00 0. -1.
         11    1    3    3    0    0 -0.35104759846E+01 -0.14322988035E+01  0.17997392038E+01  0.41969015909E+01  0.51100000000E-03 0. -1.
        -11    1    3    3    0    0  0.57508265653E+01  0.63079548416E+01  0.11663902460E+02  0.14453681929E+02  0.51100000000E-03 0.  1.
        -12    1    3    3    0    0 -0.15340497191E+01  0.80959234222E+01  0.27947257977E+02  0.29136686720E+02  0.00000000000E+00 0.  1.
</event>
<event>
 7    1  0.1418970E-010  0.4778727E+02  0.7816164E-02  0.1312668E+00
        -11   -1    0    0    0    0  0.00000000000E+00  0.00000000000E+00  0.45593999997E+02  0.45594000000E+02  0.51100000000E-03 0.  1.
         11   -1    0    0    0    0 -0.00000000000E+00 -0.00000000000E+00 -0.45593999997E+02  0.45594000000E+02  0.51100000000E-03 0. -1.
    9900012    2    1    2    0    0  0.20820364863E+02 -0.36650198468E+02 -0.10339187961E+02  0.47787269033E+02  0.19999990831E+02 0.  0.
         12    1    1    2    0    0 -0.20820364863E+02  0.36650198468E+02  0.10339187961E+02  0.43400730967E+02  0.00000000000E+00 0. -1.
         11    1    3    3    0    0  0.40136334995E+00 -0.92326557990E+01 -0.22865746409E+01  0.95200551201E+01  0.51100000000E-03 0. -1.
        -11    1    3    3    0    0  0.12975627026E+02 -0.58562857518E+01 -0.57059766915E+01  0.15336921132E+02  0.51100000000E-03 0.  1.
        -12    1    3    3    0    0  0.74433744868E+01 -0.21561256917E+02 -0.23466366287E+01  0.22930292782E+02  0.00000000000E+00 0.  1.
</event>
<event>
 7    1  0.1418970E-010  0.4778726E+02  0.7816164E-02  0.1312668E+00
        -11   -1    0    0    0    0  0.00000000000E+00  0.00000000000E+00  0.45593999997E+02  0.45594000000E+02  0.51100000000E-03 0.  1.
         11   -1    0    0    0    0 -0.00000000000E+00 -0.00000000000E+00 -0.45593999997E+02  0.45594000000E+02  0.51100000000E-03 0. -1.
    9900012    2    1    2    0    0 -0.13941642478E+02 -0.35267740652E+02  0.21105477978E+02  0.47787261223E+02  0.19999955220E+02 0.  0.
         12    1    1    2    0    0  0.13941642478E+02  0.35267740652E+02 -0.21105477978E+02  0.43400738777E+02  0.00000000000E+00 0. -1.
         11    1    3    3    0    0 -0.12580413384E+02 -0.12575857623E+02  0.20016908856E+01  0.17900440288E+02  0.51100000000E-03 0.  1.
        -11    1    3    3    0    0  0.10691818271E+01 -0.46537461464E+01  0.36551669483E+01  0.60133808008E+01  0.51100000000E-03 0. -1.
        -12    1    3    3    0    0 -0.24304109219E+01 -0.18038136883E+02  0.15448620144E+02  0.23873440134E+02  0.00000000000E+00 0.  1.
</event>
<event>
 7    1  0.1418970E-010  0.4778727E+02  0.7816164E-02  0.1312668E+00
        -11   -1    0    0    0    0  0.00000000000E+00  0.00000000000E+00  0.45593999997E+02  0.45594000000E+02  0.51100000000E-03 0.  1.
         11   -1    0    0    0    0 -0.00000000000E+00 -0.00000000000E+00 -0.45593999997E+02  0.45594000000E+02  0.51100000000E-03 0. -1.
    9900012    2    1    2    0    0  0.30597797758E+01  0.51593459402E+01  0.42984208632E+02  0.47787270807E+02  0.19999998916E+02 0.  0.
         12    1    1    2    0    0 -0.30597797758E+01 -0.51593459402E+01 -0.42984208632E+02  0.43400729193E+02  0.00000000000E+00 0. -1.
         11    1    3    3    0    0  0.62614010949E+01 -0.55487485561E+01  0.14802536186E+02  0.17003200640E+02  0.51100000000E-03 0. -1.
        -11    1    3    3    0    0 -0.66904016953E+00  0.52400773278E+01  0.19590211978E+02  0.20289958865E+02  0.51100000000E-03 0.  1.
        -12    1    3    3    0    0 -0.25325811496E+01  0.54680171686E+01  0.85914604686E+01  0.10494111302E+02  0.00000000000E+00 0.  1.
</event>
<event>
 7    1  0.1418970E-010  0.4778727E+02  0.7816164E-02  0.1312668E+00
        -11   -1    0    0    0    0  0.00000000000E+00  0.00000000000E+00  0.45593999997E+02  0.45594000000E+02  0.51100000000E-03 0. -1.
         11   -1    0    0    0    0 -0.00000000000E+00 -0.00000000000E+00 -0.45593999997E+02  0.45594000000E+02  0.51100000000E-03 0.  1.
    9900012    2    1    2    0    0  0.38026587355E+02  0.20908335011E+02 -0.66604862407E+00  0.47787269136E+02  0.19999991298E+02 0.  0.
         12    1    1    2    0    0 -0.38026587355E+02 -0.20908335011E+02  0.66604862407E+00  0.43400730864E+02  0.00000000000E+00 0. -1.
         11    1    3    3    0    0  0.54055318218E+01  0.10070557756E+02 -0.18800359499E+00  0.11431152759E+02  0.51100000000E-03 0. -1.
        -11    1    3    3    0    0  0.15502276736E+02  0.11054140632E+02 -0.21196761445E+01  0.19157443366E+02  0.51100000000E-03 0.  1.
        -12    1    3    3    0    0  0.17118778797E+02 -0.21636337658E+00  0.16416311155E+01  0.17198673010E+02  0.00000000000E+00 0.  1.
</event>
<event>
 7    1  0.1418970E-010  0.4778727E+02  0.7816164E-02  0.1312668E+00
        -11   -1    0    0    0    0  0.00000000000E+00  0.00000000000E+00  0.45593999997E+02  0.45594000000E+02  0.51100000000E-03 0. -1.
         11   -1    0    0    0    0 -0.00000000000E+00 -0.00000000000E+00 -0.45593999997E+02  0.45594000000E+02  0.51100000000E-03 0.  1.
    9900012    2    1    2    0    0 -0.23519248575E+01  0.21598419339E+02 -0.37571265750E+02  0.47787270990E+02  0.19999999753E+02 0.  0.
         12    1    1    2    0    0  0.23519248575E+01 -0.21598419339E+02  0.37571265750E+02  0.43400729010E+02  0.00000000000E+00 0. -1.
         11    1    3    3    0    0  0.21341024020E+01  0.86464558010E+01 -0.20886096081E+01  0.91475614968E+01  0.51100000000E-03 0. -1.
        -11    1    3    3    0    0 -0.32122984556E+01  0.42813639092E+01 -0.68337856368E+01  0.86804127022E+01  0.51100000000E-03 0.  1.
        -12    1    3    3    0    0 -0.12737288040E+01  0.86705996292E+01 -0.28648870505E+02  0.29959296791E+02  0.00000000000E+00 0.  1.
</event>
<event>
 7    1  0.1418970E-010  0.4778727E+02  0.7816164E-02  0.1312668E+00
        -11   -1    0    0    0    0  0.00000000000E+00  0.00000000000E+00  0.45593999997E+02  0.45594000000E+02  0.51100000000E-03 0.  1.
         11   -1    0    0    0    0 -0.00000000000E+00 -0.00000000000E+00 -0.45593999997E+02  0.45594000000E+02  0.51100000000E-03 0. -1.
    9900012    2    1    2    0    0  0.26880110438E+02 -0.28340395856E+02  0.18918372317E+02  0.47787272061E+02  0.20000004637E+02 0.  0.
         12    1    1    2    0    0 -0.26880110438E+02  0.28340395856E+02 -0.18918372317E+02  0.43400727939E+02  0.00000000000E+00 0. -1.
         11    1    3    3    0    0  0.15201626478E+02 -0.10430531010E+02  0.12322243997E+02  0.22174830824E+02  0.51100000000E-03 0.  1.
        -11    1    3    3    0    0 -0.21293851347E+00 -0.96021426419E+01 -0.17008804506E+00  0.96060093863E+01  0.51100000000E-03 0. -1.
         12    1    3    3    0    0  0.11891422474E+02 -0.83077222043E+01  0.67662163658E+01  0.16006431851E+02  0.00000000000E+00 0. -1.
</event>
<event>
 7    1  0.1418970E-010  0.4778727E+02  0.7816164E-02  0.1312668E+00
        -11   -1    0    0    0    0  0.00000000000E+00  0.00000000000E+00  0.45593999997E+02  0.45594000000E+02  0.51100000000E-03 0.  1.
         11   -1    0    0    0    0 -0.00000000000E+00 -0.00000000000E+00 -0.45593999997E+02  0.45594000000E+02  0.51100000000E-03 0. -1.
    9900012    2    1    2    0    0 -0.27375799324E+02 -0.17497436932E+02  0.28775485559E+02  0.47787271239E+02  0.20000000888E+02 0.  0.
         12    1    1    2    0    0  0.27375799324E+02  0.17497436932E+02 -0.28775485559E+02  0.43400728761E+02  0.00000000000E+00 0. -1.
         11    1    3    3    0    0  0.10431802815E+01  0.62267153347E+00  0.17667171349E+01  0.21441162828E+01  0.51100000000E-03 0.  1.
        -11    1    3    3    0    0 -0.20095459117E+02 -0.14530720404E+02  0.10750076919E+02  0.27028382612E+02  0.51100000000E-03 0. -1.
        -12    1    3    3    0    0 -0.83235204883E+01 -0.35893880613E+01  0.16258691505E+02  0.18614772344E+02  0.00000000000E+00 0.  1.
</event>
<event>
 7    1  0.1418970E-010  0.4778727E+02  0.7816164E-02  0.1312668E+00
        -11   -1    0    0    0    0  0.00000000000E+00  0.00000000000E+00  0.45593999997E+02  0.45594000000E+02  0.51100000000E-03 0.  1.
         11   -1    0    0    0    0 -0.00000000000E+00 -0.00000000000E+00 -0.45593999997E+02  0.45594000000E+02  0.51100000000E-03 0. -1.
    9900012    2    1    2    0    0  0.31400026508E+02  0.18698348714E+02  0.23410117381E+02  0.47787268380E+02  0.19999987851E+02 0.  0.
         12    1    1    2    0    0 -0.31400026508E+02 -0.18698348714E+02 -0.23410117381E+02  0.43400731620E+02  0.00000000000E+00 0. -1.
         11    1    3    3    0    0  0.13542657648E+02  0.96845819111E+01  0.17667474147E+02  0.24276209464E+02  0.51100000000E-03 0. -1.
        -11    1    3    3    0    0 -0.12084303871E+01  0.12396165563E+01 -0.79947505429E+00  0.19068596778E+01  0.51100000000E-03 0.  1.
        -12    1    3    3    0    0  0.19065799248E+02  0.77741502470E+01  0.65421182886E+01  0.21604199238E+02  0.00000000000E+00 0.  1.
</event>
<event>
 7    1  0.1418970E-010  0.4778727E+02  0.7816164E-02  0.1312668E+00
        -11   -1    0    0    0    0  0.00000000000E+00  0.00000000000E+00  0.45593999997E+02  0.45594000000E+02  0.51100000000E-03 0.  1.
         11   -1    0    0    0    0 -0.00000000000E+00 -0.00000000000E+00 -0.45593999997E+02  0.45594000000E+02  0.51100000000E-03 0. -1.
    9900012    2    1    2    0    0  0.41052931196E+02  0.38117752609E+01  0.13555452035E+02  0.47787273390E+02  0.20000010692E+02 0.  0.
         12    1    1    2    0    0 -0.41052931196E+02 -0.38117752609E+01 -0.13555452035E+02  0.43400726610E+02  0.00000000000E+00 0. -1.
         11    1    3    3    0    0  0.18986222982E+01  0.39189137397E+01  0.12094849397E+01  0.45194585528E+01  0.51100000000E-03 0. -1.
        -11    1    3    3    0    0  0.14603783256E+02 -0.53791100457E+01  0.67424795392E+00  0.15577545404E+02  0.51100000000E-03 0.  1.
        -12    1    3    3    0    0  0.24550525642E+02  0.52719715669E+01  0.11671719141E+02  0.27690269432E+02  0.00000000000E+00 0.  1.
</event>
<event>
 7    1  0.1418970E-010  0.4778727E+02  0.7816164E-02  0.1312668E+00
        -11   -1    0    0    0    0  0.00000000000E+00  0.00000000000E+00  0.45593999997E+02  0.45594000000E+02  0.51100000000E-03 0. -1.
         11   -1    0    0    0    0 -0.00000000000E+00 -0.00000000000E+00 -0.45593999997E+02  0.45594000000E+02  0.51100000000E-03 0.  1.
    9900012    2    1    2    0    0 -0.41719557956E+02  0.96892044607E+01 -0.70157520958E+01  0.47787274470E+02  0.20000015617E+02 0.  0.
         12    1    1    2    0    0  0.41719557956E+02 -0.96892044607E+01  0.70157520958E+01  0.43400725530E+02  0.00000000000E+00 0. -1.
         11    1    3    3    0    0 -0.19975021878E+01  0.16470838196E+01 -0.40714031563E+01  0.48248548187E+01  0.51100000000E-03 0. -1.
        -11    1    3    3    0    0 -0.87451133531E+01 -0.35263164286E+01 -0.30024029897E+01  0.98957737993E+01  0.51100000000E-03 0.  1.
        -12    1    3    3    0    0 -0.30976942415E+02  0.11568437070E+02  0.58054050176E-01  0.33066645852E+02  0.00000000000E+00 0.  1.
</event>
<event>
 7    1  0.1418970E-010  0.4778727E+02  0.7816164E-02  0.1312668E+00
        -11   -1    0    0    0    0  0.00000000000E+00  0.00000000000E+00  0.45593999997E+02  0.45594000000E+02  0.51100000000E-03 0.  1.
         11   -1    0    0    0    0 -0.00000000000E+00 -0.00000000000E+00 -0.45593999997E+02  0.45594000000E+02  0.51100000000E-03 0. -1.
    9900012    2    1    2    0    0 -0.52689699775E+00 -0.14076461489E+02  0.41051176991E+02  0.47787268199E+02  0.19999987026E+02 0.  0.
         12    1    1    2    0    0  0.52689699775E+00  0.14076461489E+02 -0.41051176991E+02  0.43400731801E+02  0.00000000000E+00 0. -1.
         11    1    3    3    0    0 -0.10780396467E+01 -0.91273338391E+01  0.25044146489E+02  0.26677324943E+02  0.51100000000E-03 0. -1.
        -11    1    3    3    0    0 -0.12881856210E+01  0.28877150901E+01  0.11409917346E+02  0.11839955015E+02  0.51100000000E-03 0.  1.
         12    1    3    3    0    0  0.18393282699E+01 -0.78368427404E+01  0.45971131557E+01  0.92699882410E+01  0.00000000000E+00 0. -1.
</event>
<event>
 7    1  0.1418970E-010  0.4778727E+02  0.7816164E-02  0.1312668E+00
        -11   -1    0    0    0    0  0.00000000000E+00  0.00000000000E+00  0.45593999997E+02  0.45594000000E+02  0.51100000000E-03 0.  1.
         11   -1    0    0    0    0 -0.00000000000E+00 -0.00000000000E+00 -0.45593999997E+02  0.45594000000E+02  0.51100000000E-03 0. -1.
    9900012    2    1    2    0    0 -0.23096097696E+02  0.25378230248E+01  0.36657234449E+02  0.47787272910E+02  0.20000008506E+02 0.  0.
         12    1    1    2    0    0  0.23096097696E+02 -0.25378230248E+01 -0.36657234449E+02  0.43400727090E+02  0.00000000000E+00 0. -1.
         11    1    3    3    0    0 -0.58491835388E+00  0.19417346395E+01 -0.17166447228E+00  0.20351736641E+01  0.51100000000E-03 0. -1.
        -11    1    3    3    0    0 -0.96756193629E+00 -0.37926620029E+01  0.16065956378E+01  0.42310295406E+01  0.51100000000E-03 0.  1.
         12    1    3    3    0    0 -0.21543617406E+02  0.43887503882E+01  0.35222303283E+02  0.41521069705E+02  0.00000000000E+00 0. -1.
</event>
<event>
 7    1  0.1418970E-010  0.4778726E+02  0.7816164E-02  0.1312668E+00
        -11   -1    0    0    0    0  0.00000000000E+00  0.00000000000E+00  0.45593999997E+02  0.45594000000E+02  0.51100000000E-03 0.  1.
         11   -1    0    0    0    0 -0.00000000000E+00 -0.00000000000E+00 -0.45593999997E+02  0.45594000000E+02  0.51100000000E-03 0. -1.
    9900012    2    1    2    0    0  0.41623033163E+02  0.83682111187E+00 -0.12265682457E+02  0.47787261234E+02  0.19999955270E+02 0.  0.
         12    1    1    2    0    0 -0.41623033163E+02 -0.83682111187E+00  0.12265682457E+02  0.43400738766E+02  0.00000000000E+00 0. -1.
         11    1    3    3    0    0  0.22455085282E+01 -0.24002787848E+01 -0.20624601965E+01  0.38803851765E+01  0.51100000000E-03 0. -1.
        -11    1    3    3    0    0  0.33556112374E+02  0.51967577431E+01 -0.24908425950E+01  0.34047367972E+02  0.51100000000E-03 0.  1.
         12    1    3    3    0    0  0.58214122610E+01 -0.19596578464E+01 -0.77123796656E+01  0.98595080858E+01  0.00000000000E+00 0. -1.
</event>
<event>
 7    1  0.1587486E-010  0.4778727E+02  0.7816164E-02  0.1312668E+00
        -11   -1    0    0    0    0  0.00000000000E+00  0.00000000000E+00  0.45593999997E+02  0.45594000000E+02  0.51100000000E-03 0. -1.
         11   -1    0    0    0    0 -0.00000000000E+00 -0.00000000000E+00 -0.45593999997E+02  0.45594000000E+02  0.51100000000E-03 0.  1.
    9900012    2    1    2    0    0  0.73967785038E+01  0.37441235136E+02 -0.20665541014E+02  0.47787274129E+02  0.20000014063E+02 0.  0.
         12    1    1    2    0    0 -0.73967785038E+01 -0.37441235136E+02  0.20665541014E+02  0.43400725871E+02  0.00000000000E+00 0. -1.
         11    1    3    3    0    0  0.33424237809E+01  0.27830739668E+01 -0.87497581448E+01  0.97711598743E+01  0.51100000000E-03 0. -1.
        -11    1    3    3    0    0  0.64756280952E+01  0.17970588828E+02 -0.79734879041E+01  0.20699090117E+02  0.51100000000E-03 0.  1.
        -12    1    3    3    0    0 -0.24212733723E+01  0.16687572341E+02 -0.39422949649E+01  0.17317024137E+02  0.00000000000E+00 0.  1.
</event>
<event>
 7    1  0.1418970E-010  0.4778727E+02  0.7816164E-02  0.1312668E+00
        -11   -1    0    0    0    0  0.00000000000E+00  0.00000000000E+00  0.45593999997E+02  0.45594000000E+02  0.51100000000E-03 0. -1.
         11   -1    0    0    0    0 -0.00000000000E+00 -0.00000000000E+00 -0.45593999997E+02  0.45594000000E+02  0.51100000000E-03 0.  1.
    9900012    2    1    2    0    0  0.72661543747E+01  0.23632310370E+02 -0.35669878838E+02  0.47787270177E+02  0.19999996045E+02 0.  0.
         12    1    1    2    0    0 -0.72661543747E+01 -0.23632310370E+02  0.35669878838E+02  0.43400729823E+02  0.00000000000E+00 0. -1.
         11    1    3    3    0    0  0.78274037676E+01  0.33965841746E+01 -0.81386243226E+01  0.11791617358E+02  0.51100000000E-03 0. -1.
        -11    1    3    3    0    0  0.18994582851E+01  0.15755791453E+02 -0.26333668986E+02  0.30745975812E+02  0.51100000000E-03 0.  1.
        -12    1    3    3    0    0 -0.24607076780E+01  0.44799347430E+01 -0.11975855294E+01  0.52496770070E+01  0.00000000000E+00 0.  1.
</event>
<event>
 7    1  0.1418970E-010  0.4778727E+02  0.7816164E-02  0.1312668E+00
        -11   -1    0    0    0    0  0.00000000000E+00  0.00000000000E+00  0.45593999997E+02  0.45594000000E+02  0.51100000000E-03 0.  1.
         11   -1    0    0    0    0 -0.00000000000E+00 -0.00000000000E+00 -0.45593999997E+02  0.45594000000E+02  0.51100000000E-03 0. -1.
    9900012    2    1    2    0    0  0.23251254762E+01  0.34073271079E+02  0.26781136622E+02  0.47787270867E+02  0.19999999191E+02 0.  0.
         12    1    1    2    0    0 -0.23251254762E+01 -0.34073271079E+02 -0.26781136622E+02  0.43400729133E+02  0.00000000000E+00 0. -1.
         11    1    3    3    0    0 -0.12998113777E+00  0.80319432841E+01 -0.16887490893E+01  0.82085858565E+01  0.51100000000E-03 0. -1.
        -11    1    3    3    0    0  0.15579697017E+00  0.41036687795E+01  0.99957523207E+01  0.10806453390E+02  0.51100000000E-03 0.  1.
        -12    1    3    3    0    0  0.22993096438E+01  0.21937659016E+02  0.18474133390E+02  0.28772231621E+02  0.00000000000E+00 0.  1.
</event>
<event>
 7    1  0.2789018E-010  0.4778727E+02  0.7816164E-02  0.1312668E+00
        -11   -1    0    0    0    0  0.00000000000E+00  0.00000000000E+00  0.45593999997E+02  0.45594000000E+02  0.51100000000E-03 0. -1.
         11   -1    0    0    0    0 -0.00000000000E+00 -0.00000000000E+00 -0.45593999997E+02  0.45594000000E+02  0.51100000000E-03 0.  1.
    9900012    2    1    2    0    0  0.23464457110E+02 -0.13206715274E+01 -0.36486960365E+02  0.47787271925E+02  0.20000004017E+02 0.  0.
         12    1    1    2    0    0 -0.23464457110E+02  0.13206715274E+01  0.36486960365E+02  0.43400728075E+02  0.00000000000E+00 0. -1.
         11    1    3    3    0    0  0.25228723831E+01 -0.11285921470E+01  0.88152881163E+00  0.29009823513E+01  0.51100000000E-03 0. -1.
        -11    1    3    3    0    0  0.69501567149E+01  0.63237014236E+01 -0.15332478043E+02  0.17982735088E+02  0.51100000000E-03 0.  1.
        -12    1    3    3    0    0  0.13991428012E+02 -0.65157808041E+01 -0.22036011134E+02  0.26903554486E+02  0.00000000000E+00 0.  1.
</event>
<event>
 7    1  0.1453611E-010  0.4778727E+02  0.7816164E-02  0.1312668E+00
        -11   -1    0    0    0    0  0.00000000000E+00  0.00000000000E+00  0.45593999997E+02  0.45594000000E+02  0.51100000000E-03 0. -1.
         11   -1    0    0    0    0 -0.00000000000E+00 -0.00000000000E+00 -0.45593999997E+02  0.45594000000E+02  0.51100000000E-03 0.  1.
    9900012    2    1    2    0    0 -0.42555265068E+02  0.13364407482E+01 -0.84194245666E+01  0.47787269950E+02  0.19999995009E+02 0.  0.
         12    1    1    2    0    0  0.42555265068E+02 -0.13364407482E+01  0.84194245666E+01  0.43400730050E+02  0.00000000000E+00 0. -1.
         11    1    3    3    0    0 -0.30027080669E+01 -0.17482457361E+00  0.48736411563E+01  0.57270583853E+01  0.51100000000E-03 0. -1.
        -11    1    3    3    0    0 -0.10339672285E+02 -0.87381310762E+00 -0.54412737636E+01  0.11716647675E+02  0.51100000000E-03 0.  1.
         12    1    3    3    0    0 -0.29212884715E+02  0.23850784294E+01 -0.78517919594E+01  0.30343563889E+02  0.00000000000E+00 0. -1.
</event>
<event>
 7    1  0.1418970E-010  0.4778727E+02  0.7816164E-02  0.1312668E+00
        -11   -1    0    0    0    0  0.00000000000E+00  0.00000000000E+00  0.45593999997E+02  0.45594000000E+02  0.51100000000E-03 0.  1.
         11   -1    0    0    0    0 -0.00000000000E+00 -0.00000000000E+00 -0.45593999997E+02  0.45594000000E+02  0.51100000000E-03 0. -1.
    9900012    2    1    2    0    0 -0.29987013162E+02 -0.35242064688E+01  0.31176625775E+02  0.47787274381E+02  0.20000015211E+02 0.  0.
         12    1    1    2    0    0  0.29987013162E+02  0.35242064688E+01 -0.31176625775E+02  0.43400725619E+02  0.00000000000E+00 0. -1.
         11    1    3    3    0    0 -0.69635272681E+01 -0.46097013227E+01 -0.37442074414E+00  0.83594407380E+01  0.51100000000E-03 0. -1.
        -11    1    3    3    0    0 -0.62896892635E+01 -0.12134622273E+01  0.11904768697E+02  0.13518735133E+02  0.51100000000E-03 0.  1.
        -12    1    3    3    0    0 -0.16733796630E+02  0.22989570812E+01  0.19646277822E+02  0.25909098509E+02  0.00000000000E+00 0.  1.
</event>
<event>
 7    1  0.1418970E-010  0.4778727E+02  0.7816164E-02  0.1312668E+00
        -11   -1    0    0    0    0  0.00000000000E+00  0.00000000000E+00  0.45593999997E+02  0.45594000000E+02  0.51100000000E-03 0.  1.
         11   -1    0    0    0    0 -0.00000000000E+00 -0.00000000000E+00 -0.45593999997E+02  0.45594000000E+02  0.51100000000E-03 0. -1.
    9900012    2    1    2    0    0 -0.12710318749E+02  0.27088113406E+02  0.31437325861E+02  0.47787267888E+02  0.19999985606E+02 0.  0.
         12    1    1    2    0    0  0.12710318749E+02 -0.27088113406E+02 -0.31437325861E+02  0.43400732112E+02  0.00000000000E+00 0. -1.
         11    1    3    3    0    0 -0.35840629922E+00  0.95297401698E+01  0.65781485813E+00  0.95591382158E+01  0.51100000000E-03 0. -1.
        -11    1    3    3    0    0 -0.14406657656E+01  0.75331025243E+01  0.12887194230E+02  0.14996763880E+02  0.51100000000E-03 0.  1.
        -12    1    3    3    0    0 -0.10911246684E+02  0.10025270712E+02  0.17892316772E+02  0.23231365791E+02  0.00000000000E+00 0.  1.
</event>
<event>
 7    1  0.1418970E-010  0.4778727E+02  0.7816164E-02  0.1312668E+00
        -11   -1    0    0    0    0  0.00000000000E+00  0.00000000000E+00  0.45593999997E+02  0.45594000000E+02  0.51100000000E-03 0.  1.
         11   -1    0    0    0    0 -0.00000000000E+00 -0.00000000000E+00 -0.45593999997E+02  0.45594000000E+02  0.51100000000E-03 0. -1.
    9900012    2    1    2    0    0  0.23092384550E+02  0.10041648671E+01  0.36733589661E+02  0.47787272118E+02  0.20000004897E+02 0.  0.
         12    1    1    2    0    0 -0.23092384550E+02 -0.10041648671E+01 -0.36733589661E+02  0.43400727882E+02  0.00000000000E+00 0. -1.
         11    1    3    3    0    0  0.38497608899E+01 -0.34878632398E+01  0.17006990039E+02  0.17782675820E+02  0.51100000000E-03 0. -1.
        -11    1    3    3    0    0 -0.94279628115E+00 -0.11753703896E+01  0.22601616976E+01  0.27163747056E+01  0.51100000000E-03 0.  1.
        -12    1    3    3    0    0  0.20185419941E+02  0.56673984966E+01  0.17466437924E+02  0.27288221593E+02  0.00000000000E+00 0.  1.
</event>
<event>
 7    1  0.1617073E-010  0.4778729E+02  0.7816164E-02  0.1312668E+00
        -11   -1    0    0    0    0  0.00000000000E+00  0.00000000000E+00  0.45593999997E+02  0.45594000000E+02  0.51100000000E-03 0.  1.
         11   -1    0    0    0    0 -0.00000000000E+00 -0.00000000000E+00 -0.45593999997E+02  0.45594000000E+02  0.51100000000E-03 0. -1.
    9900012    2    1    2    0    0 -0.46050932677E+01 -0.20613950758E+02  0.37914115071E+02  0.47787286049E+02  0.20000068410E+02 0.  0.
         12    1    1    2    0    0  0.46050932677E+01  0.20613950758E+02 -0.37914115071E+02  0.43400713951E+02  0.00000000000E+00 0. -1.
         11    1    3    3    0    0  0.13285068649E+01  0.13733824058E+01 -0.31395009842E+00  0.19364076657E+01  0.51100000000E-03 0. -1.
        -11    1    3    3    0    0 -0.63743444595E+01 -0.62865255821E+01  0.19146051029E+02  0.21135844943E+02  0.51100000000E-03 0.  1.
        -12    1    3    3    0    0  0.44074432693E+00 -0.15700807582E+02  0.19082014141E+02  0.24715033440E+02  0.00000000000E+00 0.  1.
</event>
<event>
 7    1  0.1418970E-010  0.4778727E+02  0.7816164E-02  0.1312668E+00
        -11   -1    0    0    0    0  0.00000000000E+00  0.00000000000E+00  0.45593999997E+02  0.45594000000E+02  0.51100000000E-03 0.  1.
         11   -1    0    0    0    0 -0.00000000000E+00 -0.00000000000E+00 -0.45593999997E+02  0.45594000000E+02  0.51100000000E-03 0. -1.
    9900012    2    1    2    0    0 -0.39355391022E+02 -0.18296224891E+02 -0.15671698443E+00  0.47787271804E+02  0.20000003463E+02 0.  0.
         12    1    1    2    0    0  0.39355391022E+02  0.18296224891E+02  0.15671698443E+00  0.43400728196E+02  0.00000000000E+00 0. -1.
         11    1    3    3    0    0 -0.52850586839E+00 -0.28195072594E+01  0.21050469097E+01  0.35581121950E+01  0.51100000000E-03 0. -1.
        -11    1    3    3    0    0 -0.26360010844E+02 -0.38052017351E+01 -0.44820574487E+01  0.27007750206E+02  0.51100000000E-03 0.  1.
        -12    1    3    3    0    0 -0.12466874309E+02 -0.11671515896E+02  0.22202935545E+01  0.17221409403E+02  0.00000000000E+00 0.  1.
</event>
<event>
 7    1  0.1418970E-010  0.4778727E+02  0.7816164E-02  0.1312668E+00
        -11   -1    0    0    0    0  0.00000000000E+00  0.00000000000E+00  0.45593999997E+02  0.45594000000E+02  0.51100000000E-03 0. -1.
         11   -1    0    0    0    0 -0.00000000000E+00 -0.00000000000E+00 -0.45593999997E+02  0.45594000000E+02  0.51100000000E-03 0.  1.
    9900012    2    1    2    0    0  0.34283072235E+02 -0.13639570036E+02 -0.22852928957E+02  0.47787271037E+02  0.19999999965E+02 0.  0.
         12    1    1    2    0    0 -0.34283072235E+02  0.13639570036E+02  0.22852928957E+02  0.43400728963E+02  0.00000000000E+00 0. -1.
         11    1    3    3    0    0  0.10862031498E+02  0.35462739539E+01 -0.13452437330E+01  0.11505193097E+02  0.51100000000E-03 0. -1.
        -11    1    3    3    0    0  0.10697113828E+02 -0.62279549665E+01 -0.10179720334E+02  0.16026302557E+02  0.51100000000E-03 0.  1.
         12    1    3    3    0    0  0.12723926908E+02 -0.10957889024E+02 -0.11327964890E+02  0.20255775383E+02  0.00000000000E+00 0. -1.
</event>
<event>
 7    1  0.1418970E-010  0.4778724E+02  0.7816164E-02  0.1312668E+00
        -11   -1    0    0    0    0  0.00000000000E+00  0.00000000000E+00  0.45593999997E+02  0.45594000000E+02  0.51100000000E-03 0. -1.
         11   -1    0    0    0    0 -0.00000000000E+00 -0.00000000000E+00 -0.45593999997E+02  0.45594000000E+02  0.51100000000E-03 0.  1.
    9900012    2    1    2    0    0  0.31214279364E+02  0.17046511875E+02 -0.24873901071E+02  0.47787242428E+02  0.19999869528E+02 0.  0.
         12    1    1    2    0    0 -0.31214279364E+02 -0.17046511875E+02  0.24873901071E+02  0.43400757572E+02  0.00000000000E+00 0. -1.
         11    1    3    3    0    0  0.13060782018E+02 -0.11582527114E+01 -0.76182710027E+01  0.15164551744E+02  0.51100000000E-03 0. -1.
        -11    1    3    3    0    0  0.11274970344E+02  0.88668448942E+01 -0.37604778909E+01  0.14828590252E+02  0.51100000000E-03 0.  1.
        -12    1    3    3    0    0  0.68785270008E+01  0.93379196925E+01 -0.13495152177E+02  0.17794100432E+02  0.00000000000E+00 0.  1.
</event>
<event>
 7    1  0.1418970E-010  0.4778727E+02  0.7816164E-02  0.1312668E+00
        -11   -1    0    0    0    0  0.00000000000E+00  0.00000000000E+00  0.45593999997E+02  0.45594000000E+02  0.51100000000E-03 0. -1.
         11   -1    0    0    0    0 -0.00000000000E+00 -0.00000000000E+00 -0.45593999997E+02  0.45594000000E+02  0.51100000000E-03 0.  1.
    9900012    2    1    2    0    0  0.13991886580E+02 -0.17699335529E+02 -0.37075382449E+02  0.47787270145E+02  0.19999995899E+02 0.  0.
         12    1    1    2    0    0 -0.13991886580E+02  0.17699335529E+02  0.37075382449E+02  0.43400729855E+02  0.00000000000E+00 0. -1.
         11    1    3    3    0    0  0.74857746013E+01 -0.88717902018E+01 -0.13661069691E+02  0.17926804181E+02  0.51100000000E-03 0. -1.
        -11    1    3    3    0    0  0.18993074248E+01 -0.11690188028E+02 -0.10401554318E+02  0.15762620255E+02  0.51100000000E-03 0.  1.
         12    1    3    3    0    0  0.46068045542E+01  0.28626427007E+01 -0.13012758440E+02  0.14097845709E+02  0.00000000000E+00 0. -1.
</event>
<event>
 7    1  0.1418970E-010  0.4778727E+02  0.7816164E-02  0.1312668E+00
        -11   -1    0    0    0    0  0.00000000000E+00  0.00000000000E+00  0.45593999997E+02  0.45594000000E+02  0.51100000000E-03 0.  1.
         11   -1    0    0    0    0 -0.00000000000E+00 -0.00000000000E+00 -0.45593999997E+02  0.45594000000E+02  0.51100000000E-03 0. -1.
    9900012    2    1    2    0    0  0.26190160994E+02 -0.13894094169E+02  0.31696258240E+02  0.47787272217E+02  0.20000005346E+02 0.  0.
         12    1    1    2    0    0 -0.26190160994E+02  0.13894094169E+02 -0.31696258240E+02  0.43400727783E+02  0.00000000000E+00 0. -1.
         11    1    3    3    0    0  0.42832012653E+01  0.32696698920E+01  0.88523103098E+01  0.10363394828E+02  0.51100000000E-03 0. -1.
        -11    1    3    3    0    0  0.95105656063E+01 -0.79601074557E+01  0.39332928591E+01  0.13010955454E+02  0.51100000000E-03 0.  1.
        -12    1    3    3    0    0  0.12396394122E+02 -0.92036566054E+01  0.18910655071E+02  0.24412921934E+02  0.00000000000E+00 0.  1.
</event>
<event>
 7    1  0.1418970E-010  0.4778726E+02  0.7816164E-02  0.1312668E+00
        -11   -1    0    0    0    0  0.00000000000E+00  0.00000000000E+00  0.45593999997E+02  0.45594000000E+02  0.51100000000E-03 0.  1.
         11   -1    0    0    0    0 -0.00000000000E+00 -0.00000000000E+00 -0.45593999997E+02  0.45594000000E+02  0.51100000000E-03 0. -1.
    9900012    2    1    2    0    0 -0.34617645742E+01  0.16454386459E+02  0.40011163367E+02  0.47787264503E+02  0.19999970173E+02 0.  0.
         12    1    1    2    0    0  0.34617645742E+01 -0.16454386459E+02 -0.40011163367E+02  0.43400735497E+02  0.00000000000E+00 0. -1.
         11    1    3    3    0    0 -0.23854268061E+01  0.12998226956E+02  0.99805792166E+01  0.16560680143E+02  0.51100000000E-03 0. -1.
        -11    1    3    3    0    0 -0.41573079494E+01  0.12569197573E+01  0.11063556109E+02  0.11885509274E+02  0.51100000000E-03 0.  1.
         12    1    3    3    0    0  0.30809701812E+01  0.21992397456E+01  0.18967028041E+02  0.19341075085E+02  0.00000000000E+00 0. -1.
</event>
<event>
 7    1  0.1418970E-010  0.4778729E+02  0.7816164E-02  0.1312668E+00
        -11   -1    0    0    0    0  0.00000000000E+00  0.00000000000E+00  0.45593999997E+02  0.45594000000E+02  0.51100000000E-03 0. -1.
         11   -1    0    0    0    0 -0.00000000000E+00 -0.00000000000E+00 -0.45593999997E+02  0.45594000000E+02  0.51100000000E-03 0.  1.
    9900012    2    1    2    0    0  0.12501179610E+01  0.31608167424E+02 -0.29715028479E+02  0.47787286177E+02  0.20000068997E+02 0.  0.
         12    1    1    2    0    0 -0.12501179610E+01 -0.31608167424E+02  0.29715028479E+02  0.43400713823E+02  0.00000000000E+00 0. -1.
         11    1    3    3    0    0 -0.30903247558E+01 -0.15387776318E+01 -0.34203292026E+01  0.48596909173E+01  0.51100000000E-03 0. -1.
        -11    1    3    3    0    0  0.12578076144E+01  0.11973078828E+02 -0.13088213149E+02  0.17783082419E+02  0.51100000000E-03 0.  1.
        -12    1    3    3    0    0  0.30826351024E+01  0.21173866228E+02 -0.13206486128E+02  0.25144512841E+02  0.00000000000E+00 0.  1.
</event>
<event>
 7    1  0.1418970E-010  0.4778727E+02  0.7816164E-02  0.1312668E+00
        -11   -1    0    0    0    0  0.00000000000E+00  0.00000000000E+00  0.45593999997E+02  0.45594000000E+02  0.51100000000E-03 0.  1.
         11   -1    0    0    0    0 -0.00000000000E+00 -0.00000000000E+00 -0.45593999997E+02  0.45594000000E+02  0.51100000000E-03 0. -1.
    9900012    2    1    2    0    0  0.39855525186E+02  0.16643448751E+02  0.42609844983E+01  0.47787271169E+02  0.20000000568E+02 0.  0.
         12    1    1    2    0    0 -0.39855525186E+02 -0.16643448751E+02 -0.42609844983E+01  0.43400728831E+02  0.00000000000E+00 0. -1.
         11    1    3    3    0    0  0.19019810201E+01 -0.77947954433E-01 -0.15871408977E+01  0.24784317975E+01  0.51100000000E-03 0. -1.
        -11    1    3    3    0    0  0.21276688492E+02  0.17631781382E+02  0.71910352278E+01  0.28553251580E+02  0.51100000000E-03 0.  1.
         12    1    3    3    0    0  0.16676855674E+02 -0.91038467668E+00 -0.13429098318E+01  0.16755587791E+02  0.00000000000E+00 0. -1.
</event>
<event>
 7    1  0.1418970E-010  0.4778732E+02  0.7816164E-02  0.1312668E+00
        -11   -1    0    0    0    0  0.00000000000E+00  0.00000000000E+00  0.45593999997E+02  0.45594000000E+02  0.51100000000E-03 0.  1.
         11   -1    0    0    0    0 -0.00000000000E+00 -0.00000000000E+00 -0.45593999997E+02  0.45594000000E+02  0.51100000000E-03 0. -1.
    9900012    2    1    2    0    0 -0.16092750311E+02  0.19926067854E+02  0.35037045707E+02  0.47787316082E+02  0.20000205342E+02 0.  0.
         12    1    1    2    0    0  0.16092750311E+02 -0.19926067854E+02 -0.35037045707E+02  0.43400683918E+02  0.00000000000E+00 0. -1.
         11    1    3    3    0    0 -0.38025598892E+01  0.74321216803E+01  0.11456169156E+02  0.14175320327E+02  0.51100000000E-03 0. -1.
        -11    1    3    3    0    0 -0.32677149881E+00  0.11344699033E+02  0.15157159553E+02  0.18935375934E+02  0.51100000000E-03 0.  1.
         12    1    3    3    0    0 -0.11963418923E+02  0.11492471403E+01  0.84237169982E+01  0.14676619821E+02  0.00000000000E+00 0. -1.
</event>
<event>
 7    1  0.1418970E-010  0.4778727E+02  0.7816164E-02  0.1312668E+00
        -11   -1    0    0    0    0  0.00000000000E+00  0.00000000000E+00  0.45593999997E+02  0.45594000000E+02  0.51100000000E-03 0.  1.
         11   -1    0    0    0    0 -0.00000000000E+00 -0.00000000000E+00 -0.45593999997E+02  0.45594000000E+02  0.51100000000E-03 0. -1.
    9900012    2    1    2    0    0 -0.32976120653E+02  0.12177804874E+02  0.25453880578E+02  0.47787268423E+02  0.19999988049E+02 0.  0.
         12    1    1    2    0    0  0.32976120653E+02 -0.12177804874E+02 -0.25453880578E+02  0.43400731577E+02  0.00000000000E+00 0. -1.
         11    1    3    3    0    0 -0.58777300338E+01 -0.28607368919E+01  0.38704917955E+01  0.75968567787E+01  0.51100000000E-03 0. -1.
        -11    1    3    3    0    0 -0.11175375505E+02 -0.10326998218E+01  0.82619808019E+01  0.13936133382E+02  0.51100000000E-03 0.  1.
        -12    1    3    3    0    0 -0.15923015114E+02  0.16071241588E+02  0.13321407981E+02  0.26254278263E+02  0.00000000000E+00 0.  1.
</event>
<event>
 7    1  0.1418970E-010  0.4778727E+02  0.7816164E-02  0.1312668E+00
        -11   -1    0    0    0    0  0.00000000000E+00  0.00000000000E+00  0.45593999997E+02  0.45594000000E+02  0.51100000000E-03 0. -1.
         11   -1    0    0    0    0 -0.00000000000E+00 -0.00000000000E+00 -0.45593999997E+02  0.45594000000E+02  0.51100000000E-03 0.  1.
    9900012    2    1    2    0    0 -0.58024862430E+01 -0.41176719557E+02  0.12427062727E+02  0.47787274567E+02  0.20000016061E+02 0.  0.
         12    1    1    2    0    0  0.58024862430E+01  0.41176719557E+02 -0.12427062727E+02  0.43400725433E+02  0.00000000000E+00 0. -1.
         11    1    3    3    0    0  0.24595499852E+01 -0.14878446201E+02  0.86458293681E+01  0.17382977685E+02  0.51100000000E-03 0. -1.
        -11    1    3    3    0    0 -0.80801294680E+01 -0.16300692282E+02  0.75779201732E+01  0.19708524437E+02  0.51100000000E-03 0.  1.
        -12    1    3    3    0    0 -0.18190676015E+00 -0.99975810748E+01 -0.37966868148E+01  0.10695772445E+02  0.00000000000E+00 0.  1.
</event>
<event>
 7    1  0.1418970E-010  0.4778727E+02  0.7816164E-02  0.1312668E+00
        -11   -1    0    0    0    0  0.00000000000E+00  0.00000000000E+00  0.45593999997E+02  0.45594000000E+02  0.51100000000E-03 0. -1.
         11   -1    0    0    0    0 -0.00000000000E+00 -0.00000000000E+00 -0.45593999997E+02  0.45594000000E+02  0.51100000000E-03 0.  1.
    9900012    2    1    2    0    0  0.28920423220E+02  0.30396297365E+02 -0.11103951224E+02  0.47787268376E+02  0.19999987834E+02 0.  0.
         12    1    1    2    0    0 -0.28920423220E+02 -0.30396297365E+02  0.11103951224E+02  0.43400731624E+02  0.00000000000E+00 0. -1.
         11    1    3    3    0    0  0.21855818940E-01  0.73109069619E+01  0.16192885199E+01  0.74881195138E+01  0.51100000000E-03 0. -1.
        -11    1    3    3    0    0  0.93129716365E+00  0.32707003946E+01  0.73010318046E+00  0.34781958533E+01  0.51100000000E-03 0.  1.
        -12    1    3    3    0    0  0.27967270237E+02  0.19814690009E+02 -0.13453342924E+02  0.36820953009E+02  0.00000000000E+00 0.  1.
</event>
<event>
 7    1  0.1418970E-010  0.4778727E+02  0.7816164E-02  0.1312668E+00
        -11   -1    0    0    0    0  0.00000000000E+00  0.00000000000E+00  0.45593999997E+02  0.45594000000E+02  0.51100000000E-03 0.  1.
         11   -1    0    0    0    0 -0.00000000000E+00 -0.00000000000E+00 -0.45593999997E+02  0.45594000000E+02  0.51100000000E-03 0. -1.
    9900012    2    1    2    0    0 -0.18643890845E+02  0.21880221035E+02  0.32515914612E+02  0.47787269114E+02  0.19999991200E+02 0.  0.
         12    1    1    2    0    0  0.18643890845E+02 -0.21880221035E+02 -0.32515914612E+02  0.43400730886E+02  0.00000000000E+00 0. -1.
         11    1    3    3    0    0  0.96950225690E+00  0.61489993326E+01  0.14918281571E+02  0.16164938995E+02  0.51100000000E-03 0. -1.
        -11    1    3    3    0    0 -0.14037978632E+02  0.84492376548E+01  0.14677571482E+02  0.21997399071E+02  0.51100000000E-03 0.  1.
        -12    1    3    3    0    0 -0.55754144701E+01  0.72819840477E+01  0.29200615582E+01  0.96249310485E+01  0.00000000000E+00 0.  1.
</event>
<event>
 7    1  0.1418970E-010  0.4778727E+02  0.7816164E-02  0.1312668E+00
        -11   -1    0    0    0    0  0.00000000000E+00  0.00000000000E+00  0.45593999997E+02  0.45594000000E+02  0.51100000000E-03 0. -1.
         11   -1    0    0    0    0 -0.00000000000E+00 -0.00000000000E+00 -0.45593999997E+02  0.45594000000E+02  0.51100000000E-03 0.  1.
    9900012    2    1    2    0    0 -0.12419690632E+02  0.29732188911E+02 -0.29075282019E+02  0.47787265014E+02  0.19999972503E+02 0.  0.
         12    1    1    2    0    0  0.12419690632E+02 -0.29732188911E+02  0.29075282019E+02  0.43400734986E+02  0.00000000000E+00 0. -1.
         11    1    3    3    0    0  0.16779968846E+01  0.61425357235E+01  0.55683222139E+00  0.63919074652E+01  0.51100000000E-03 0. -1.
        -11    1    3    3    0    0  0.10525856637E+01  0.60958447224E+00 -0.49529465049E+00  0.13133342530E+01  0.51100000000E-03 0.  1.
        -12    1    3    3    0    0 -0.15150273180E+02  0.22980068716E+02 -0.29136819590E+02  0.40082023295E+02  0.00000000000E+00 0.  1.
</event>
<event>
 7    1  0.1418970E-010  0.4778727E+02  0.7816164E-02  0.1312668E+00
        -11   -1    0    0    0    0  0.00000000000E+00  0.00000000000E+00  0.45593999997E+02  0.45594000000E+02  0.51100000000E-03 0. -1.
         11   -1    0    0    0    0 -0.00000000000E+00 -0.00000000000E+00 -0.45593999997E+02  0.45594000000E+02  0.51100000000E-03 0.  1.
    9900012    2    1    2    0    0 -0.36908964094E+02  0.10669731565E+02 -0.20186843563E+02  0.47787268956E+02  0.19999990478E+02 0.  0.
         12    1    1    2    0    0  0.36908964094E+02 -0.10669731565E+02  0.20186843563E+02  0.43400731044E+02  0.00000000000E+00 0. -1.
         11    1    3    3    0    0 -0.24653056635E+02  0.26716467969E+00 -0.76298108055E+01  0.25808110966E+02  0.51100000000E-03 0. -1.
        -11    1    3    3    0    0 -0.61054483901E+01  0.69560531170E+01 -0.23072064079E+01  0.95386779315E+01  0.51100000000E-03 0.  1.
        -12    1    3    3    0    0 -0.61504590681E+01  0.34465137686E+01 -0.10249826349E+02  0.12440480059E+02  0.00000000000E+00 0.  1.
</event>
<event>
 7    1  0.1418970E-010  0.4778728E+02  0.7816164E-02  0.1312668E+00
        -11   -1    0    0    0    0  0.00000000000E+00  0.00000000000E+00  0.45593999997E+02  0.45594000000E+02  0.51100000000E-03 0. -1.
         11   -1    0    0    0    0 -0.00000000000E+00 -0.00000000000E+00 -0.45593999997E+02  0.45594000000E+02  0.51100000000E-03 0.  1.
    9900012    2    1    2    0    0  0.38237488100E+02 -0.20149631835E+02  0.39382260013E+01  0.47787276696E+02  0.20000025769E+02 0.  0.
         12    1    1    2    0    0 -0.38237488100E+02  0.20149631835E+02 -0.39382260013E+01  0.43400723304E+02  0.00000000000E+00 0. -1.
         11    1    3    3    0    0  0.12205005462E+01 -0.16709859604E+01 -0.29246761712E+01  0.35826731124E+01  0.51100000000E-03 0. -1.
        -11    1    3    3    0    0  0.14689137180E+02 -0.30306775387E+01  0.80605497524E+01  0.17027278703E+02  0.51100000000E-03 0.  1.
        -12    1    3    3    0    0  0.22327850373E+02 -0.15447968336E+02 -0.11976475799E+01  0.27177324881E+02  0.00000000000E+00 0.  1.
</event>
<event>
 7    1  0.1418970E-010  0.4778728E+02  0.7816164E-02  0.1312668E+00
        -11   -1    0    0    0    0  0.00000000000E+00  0.00000000000E+00  0.45593999997E+02  0.45594000000E+02  0.51100000000E-03 0.  1.
         11   -1    0    0    0    0 -0.00000000000E+00 -0.00000000000E+00 -0.45593999997E+02  0.45594000000E+02  0.51100000000E-03 0. -1.
    9900012    2    1    2    0    0 -0.12430323001E+02 -0.45788049915E+01  0.41329701811E+02  0.47787278383E+02  0.20000033460E+02 0.  0.
         12    1    1    2    0    0  0.12430323001E+02  0.45788049915E+01 -0.41329701811E+02  0.43400721617E+02  0.00000000000E+00 0. -1.
         11    1    3    3    0    0 -0.79714895650E+01 -0.64621259706E+01  0.13637031851E+02  0.17066703136E+02  0.51100000000E-03 0. -1.
        -11    1    3    3    0    0 -0.34277337448E+01 -0.35942764657E+01  0.39886277363E+01  0.63700340201E+01  0.51100000000E-03 0.  1.
        -12    1    3    3    0    0 -0.10310996914E+01  0.54775974448E+01  0.23704042224E+02  0.24350541228E+02  0.00000000000E+00 0.  1.
</event>
<event>
 7    1  0.1513089E-010  0.4778727E+02  0.7816164E-02  0.1312668E+00
        -11   -1    0    0    0    0  0.00000000000E+00  0.00000000000E+00  0.45593999997E+02  0.45594000000E+02  0.51100000000E-03 0.  1.
         11   -1    0    0    0    0 -0.00000000000E+00 -0.00000000000E+00 -0.45593999997E+02  0.45594000000E+02  0.51100000000E-03 0. -1.
    9900012    2    1    2    0    0 -0.23557529190E+02  0.30639787996E+02  0.19745112406E+02  0.47787271275E+02  0.20000001050E+02 0.  0.
         12    1    1    2    0    0  0.23557529190E+02 -0.30639787996E+02 -0.19745112406E+02  0.43400728725E+02  0.00000000000E+00 0. -1.
         11    1    3    3    0    0 -0.11535684280E+01 -0.20950829743E+01  0.15846200370E+01  0.28689917584E+01  0.51100000000E-03 0. -1.
        -11    1    3    3    0    0 -0.48871106185E+01  0.15517289134E+02  0.48217097063E+01  0.16968176008E+02  0.51100000000E-03 0.  1.
        -12    1    3    3    0    0 -0.17516850144E+02  0.17217581836E+02  0.13338782662E+02  0.27950103509E+02  0.00000000000E+00 0.  1.
</event>
<event>
 7    1  0.1418970E-010  0.4778727E+02  0.7816164E-02  0.1312668E+00
        -11   -1    0    0    0    0  0.00000000000E+00  0.00000000000E+00  0.45593999997E+02  0.45594000000E+02  0.51100000000E-03 0.  1.
         11   -1    0    0    0    0 -0.00000000000E+00 -0.00000000000E+00 -0.45593999997E+02  0.45594000000E+02  0.51100000000E-03 0. -1.
    9900012    2    1    2    0    0 -0.18121953134E+01  0.27337939805E+02  0.33659711789E+02  0.47787271869E+02  0.20000003758E+02 0.  0.
         12    1    1    2    0    0  0.18121953134E+01 -0.27337939805E+02 -0.33659711789E+02  0.43400728131E+02  0.00000000000E+00 0. -1.
         11    1    3    3    0    0  0.54676751863E+01  0.15796463626E+02  0.21470113447E+02  0.27210099351E+02  0.51100000000E-03 0. -1.
        -11    1    3    3    0    0 -0.50223097356E+01  0.74224381580E+01  0.13020983952E+02  0.15807030291E+02  0.51100000000E-03 0.  1.
         12    1    3    3    0    0 -0.22575607641E+01  0.41190380211E+01 -0.83138561038E+00  0.47701422260E+01  0.00000000000E+00 0. -1.
</event>
<event>
 7    1  0.1418970E-010  0.4778727E+02  0.7816164E-02  0.1312668E+00
        -11   -1    0    0    0    0  0.00000000000E+00  0.00000000000E+00  0.45593999997E+02  0.45594000000E+02  0.51100000000E-03 0. -1.
         11   -1    0    0    0    0 -0.00000000000E+00 -0.00000000000E+00 -0.45593999997E+02  0.45594000000E+02  0.51100000000E-03 0.  1.
    9900012    2    1    2    0    0 -0.28992754688E+01 -0.15083008551E+02 -0.40592121189E+02  0.47787271344E+02  0.20000001368E+02 0.  0.
         12    1    1    2    0    0  0.28992754688E+01  0.15083008551E+02  0.40592121189E+02  0.43400728656E+02  0.00000000000E+00 0. -1.
         11    1    3    3    0    0 -0.56277916466E+01 -0.20323869939E+01 -0.19228023306E+02  0.20137515146E+02  0.51100000000E-03 0. -1.
        -11    1    3    3    0    0 -0.13343674497E+01 -0.13403353323E+02 -0.16662073086E+02  0.21425571091E+02  0.51100000000E-03 0.  1.
        -12    1    3    3    0    0  0.40628836275E+01  0.35273176569E+00 -0.47020247971E+01  0.62241851083E+01  0.00000000000E+00 0.  1.
</event>
<event>
 7    1  0.1418970E-010  0.4778727E+02  0.7816164E-02  0.1312668E+00
        -11   -1    0    0    0    0  0.00000000000E+00  0.00000000000E+00  0.45593999997E+02  0.45594000000E+02  0.51100000000E-03 0.  1.
         11   -1    0    0    0    0 -0.00000000000E+00 -0.00000000000E+00 -0.45593999997E+02  0.45594000000E+02  0.51100000000E-03 0. -1.
    9900012    2    1    2    0    0  0.16295743875E+02  0.14677133464E+01  0.40198478827E+02  0.47787272461E+02  0.20000006457E+02 0.  0.
         12    1    1    2    0    0 -0.16295743875E+02 -0.14677133464E+01 -0.40198478827E+02  0.43400727539E+02  0.00000000000E+00 0. -1.
         11    1    3    3    0    0  0.66284812559E+01  0.22079258767E+01  0.40528768096E+01  0.80769741322E+01  0.51100000000E-03 0. -1.
        -11    1    3    3    0    0  0.10798918700E+02  0.30793452003E+01  0.32206214314E+02  0.34107759420E+02  0.51100000000E-03 0.  1.
         12    1    3    3    0    0 -0.11316560803E+01 -0.38195577306E+01  0.39393877032E+01  0.56025389082E+01  0.00000000000E+00 0. -1.
</event>
<event>
 7    1  0.1418970E-010  0.4778724E+02  0.7816164E-02  0.1312668E+00
        -11   -1    0    0    0    0  0.00000000000E+00  0.00000000000E+00  0.45593999997E+02  0.45594000000E+02  0.51100000000E-03 0. -1.
         11   -1    0    0    0    0 -0.00000000000E+00 -0.00000000000E+00 -0.45593999997E+02  0.45594000000E+02  0.51100000000E-03 0.  1.
    9900012    2    1    2    0    0  0.37942985666E+02  0.21058649451E+02 -0.69916529651E+00  0.47787242978E+02  0.19999872033E+02 0.  0.
         12    1    1    2    0    0 -0.37942985666E+02 -0.21058649451E+02  0.69916529651E+00  0.43400757022E+02  0.00000000000E+00 0. -1.
         11    1    3    3    0    0  0.37990966684E+00 -0.12238485982E+01  0.11435201519E+01  0.17174910030E+01  0.51100000000E-03 0. -1.
        -11    1    3    3    0    0  0.29339784919E+02  0.10731310352E+02 -0.47376786393E+01  0.31597936643E+02  0.51100000000E-03 0.  1.
         12    1    3    3    0    0  0.82232910802E+01  0.11551187698E+02  0.28949931909E+01  0.14471815332E+02  0.00000000000E+00 0. -1.
</event>
<event>
 7    1  0.1418970E-010  0.4778727E+02  0.7816164E-02  0.1312668E+00
        -11   -1    0    0    0    0  0.00000000000E+00  0.00000000000E+00  0.45593999997E+02  0.45594000000E+02  0.51100000000E-03 0. -1.
         11   -1    0    0    0    0 -0.00000000000E+00 -0.00000000000E+00 -0.45593999997E+02  0.45594000000E+02  0.51100000000E-03 0.  1.
    9900012    2    1    2    0    0 -0.92930956993E+01 -0.42375746389E+02 -0.12480232018E+01  0.47787273375E+02  0.20000010624E+02 0.  0.
         12    1    1    2    0    0  0.92930956993E+01  0.42375746389E+02  0.12480232018E+01  0.43400726625E+02  0.00000000000E+00 0. -1.
         11    1    3    3    0    0 -0.56433525674E+01 -0.90494193785E+01  0.13692758300E+01  0.10752410699E+02  0.51100000000E-03 0. -1.
        -11    1    3    3    0    0 -0.95832110471E+01 -0.20868521334E+02  0.13629725137E+00  0.22964139301E+02  0.51100000000E-03 0.  1.
         12    1    3    3    0    0  0.59334679152E+01 -0.12457805677E+02 -0.27535962833E+01  0.14070723374E+02  0.00000000000E+00 0. -1.
</event>
<event>
 7    1  0.1418970E-010  0.4778727E+02  0.7816164E-02  0.1312668E+00
        -11   -1    0    0    0    0  0.00000000000E+00  0.00000000000E+00  0.45593999997E+02  0.45594000000E+02  0.51100000000E-03 0. -1.
         11   -1    0    0    0    0 -0.00000000000E+00 -0.00000000000E+00 -0.45593999997E+02  0.45594000000E+02  0.51100000000E-03 0.  1.
    9900012    2    1    2    0    0  0.14824160329E+01  0.38509474635E+02 -0.19961117684E+02  0.47787269440E+02  0.19999992684E+02 0.  0.
         12    1    1    2    0    0 -0.14824160329E+01 -0.38509474635E+02  0.19961117684E+02  0.43400730560E+02  0.00000000000E+00 0. -1.
         11    1    3    3    0    0  0.23700134053E+01  0.71074299697E+01 -0.10515629223E+01  0.75656003830E+01  0.51100000000E-03 0.  1.
        -11    1    3    3    0    0  0.92247018213E+00  0.15312601481E+02 -0.18490222587E+02  0.24025300142E+02  0.51100000000E-03 0. -1.
         12    1    3    3    0    0 -0.18100675545E+01  0.16089443185E+02 -0.41933217443E+00  0.16196368915E+02  0.00000000000E+00 0. -1.
</event>
<event>
 7    1  0.1418970E-010  0.4778728E+02  0.7816164E-02  0.1312668E+00
        -11   -1    0    0    0    0  0.00000000000E+00  0.00000000000E+00  0.45593999997E+02  0.45594000000E+02  0.51100000000E-03 0.  1.
         11   -1    0    0    0    0 -0.00000000000E+00 -0.00000000000E+00 -0.45593999997E+02  0.45594000000E+02  0.51100000000E-03 0. -1.
    9900012    2    1    2    0    0 -0.28442228271E+02  0.23561394022E+02  0.22793053431E+02  0.47787275099E+02  0.20000018485E+02 0.  0.
         12    1    1    2    0    0  0.28442228271E+02 -0.23561394022E+02 -0.22793053431E+02  0.43400724901E+02  0.00000000000E+00 0. -1.
         11    1    3    3    0    0 -0.11268427079E+02  0.19965920802E+02  0.17198374865E+02  0.28660068747E+02  0.51100000000E-03 0. -1.
        -11    1    3    3    0    0 -0.79381903415E+01  0.15203510594E+01  0.52835998447E+01  0.96562291202E+01  0.51100000000E-03 0.  1.
         12    1    3    3    0    0 -0.92356108499E+01  0.20751221605E+01  0.31107872094E+00  0.94709772316E+01  0.00000000000E+00 0. -1.
</event>
<event>
 7    1  0.1418970E-010  0.4778727E+02  0.7816164E-02  0.1312668E+00
        -11   -1    0    0    0    0  0.00000000000E+00  0.00000000000E+00  0.45593999997E+02  0.45594000000E+02  0.51100000000E-03 0.  1.
         11   -1    0    0    0    0 -0.00000000000E+00 -0.00000000000E+00 -0.45593999997E+02  0.45594000000E+02  0.51100000000E-03 0. -1.
    9900012    2    1    2    0    0  0.34758902618E+02 -0.48506269882E+01  0.25532588610E+02  0.47787274494E+02  0.20000015727E+02 0.  0.
         12    1    1    2    0    0 -0.34758902618E+02  0.48506269882E+01 -0.25532588610E+02  0.43400725506E+02  0.00000000000E+00 0. -1.
         11    1    3    3    0    0 -0.11646444791E+01  0.14953010503E+00 -0.81720286415E+00  0.14305861726E+01  0.51100000000E-03 0. -1.
        -11    1    3    3    0    0  0.87747937242E+01  0.37728563954E+01  0.77278089960E+01  0.12286190721E+02  0.51100000000E-03 0.  1.
        -12    1    3    3    0    0  0.27148753373E+02 -0.87730134886E+01  0.18621982478E+02  0.34070497601E+02  0.00000000000E+00 0.  1.
</event>
<event>
 7    1  0.1418970E-010  0.4778724E+02  0.7816164E-02  0.1312668E+00
        -11   -1    0    0    0    0  0.00000000000E+00  0.00000000000E+00  0.45593999997E+02  0.45594000000E+02  0.51100000000E-03 0.  1.
         11   -1    0    0    0    0 -0.00000000000E+00 -0.00000000000E+00 -0.45593999997E+02  0.45594000000E+02  0.51100000000E-03 0. -1.
    9900012    2    1    2    0    0  0.22247093745E+02 -0.32528759542E+02  0.18181645956E+02  0.47787243934E+02  0.19999876394E+02 0.  0.
         12    1    1    2    0    0 -0.22247093745E+02  0.32528759542E+02 -0.18181645956E+02  0.43400756066E+02  0.00000000000E+00 0. -1.
         11    1    3    3    0    0  0.27767130725E+00 -0.74783312853E-02 -0.12001168898E+01  0.12318433710E+01  0.51100000000E-03 0. -1.
        -11    1    3    3    0    0  0.21202010619E+02 -0.24553256075E+02  0.20643308081E+02  0.38451707465E+02  0.51100000000E-03 0.  1.
        -12    1    3    3    0    0  0.76741181906E+00 -0.79680251351E+01 -0.12615452358E+01  0.81036930986E+01  0.00000000000E+00 0.  1.
</event>
<event>
 7    1  0.1418970E-010  0.4778727E+02  0.7816164E-02  0.1312668E+00
        -11   -1    0    0    0    0  0.00000000000E+00  0.00000000000E+00  0.45593999997E+02  0.45594000000E+02  0.51100000000E-03 0.  1.
         11   -1    0    0    0    0 -0.00000000000E+00 -0.00000000000E+00 -0.45593999997E+02  0.45594000000E+02  0.51100000000E-03 0. -1.
    9900012    2    1    2    0    0  0.24928977897E+00  0.43374493551E+02 -0.14881325731E+01  0.47787269882E+02  0.19999994700E+02 0.  0.
         12    1    1    2    0    0 -0.24928977897E+00 -0.43374493551E+02  0.14881325731E+01  0.43400730118E+02  0.00000000000E+00 0. -1.
         11    1    3    3    0    0  0.61235475696E+01  0.13235622135E+02 -0.59021772795E-01  0.14583655645E+02  0.51100000000E-03 0. -1.
        -11    1    3    3    0    0 -0.13667189237E+01 -0.94211754939E+00 -0.66487807499E+00  0.17881748262E+01  0.51100000000E-03 0.  1.
        -12    1    3    3    0    0 -0.45075388669E+01  0.31080988965E+02 -0.76423272535E+00  0.31415439411E+02  0.00000000000E+00 0.  1.
</event>
<event>
 7    1  0.1418970E-010  0.4778727E+02  0.7816164E-02  0.1312668E+00
        -11   -1    0    0    0    0  0.00000000000E+00  0.00000000000E+00  0.45593999997E+02  0.45594000000E+02  0.51100000000E-03 0.  1.
         11   -1    0    0    0    0 -0.00000000000E+00 -0.00000000000E+00 -0.45593999997E+02  0.45594000000E+02  0.51100000000E-03 0. -1.
    9900012    2    1    2    0    0 -0.23343432952E+00 -0.40269211807E+02  0.16185156888E+02  0.47787271727E+02  0.20000003111E+02 0.  0.
         12    1    1    2    0    0  0.23343432952E+00  0.40269211807E+02 -0.16185156888E+02  0.43400728273E+02  0.00000000000E+00 0. -1.
         11    1    3    3    0    0 -0.71525683829E+01 -0.15094331337E+02  0.92876560809E+01  0.19111740599E+02  0.51100000000E-03 0.  1.
        -11    1    3    3    0    0  0.16833828927E+01 -0.20832894262E+02  0.63850919744E+01  0.21854351079E+02  0.51100000000E-03 0. -1.
        -12    1    3    3    0    0  0.52357511607E+01 -0.43419862074E+01  0.51240883304E+00  0.68211800486E+01  0.00000000000E+00 0.  1.
</event>
<event>
 7    1  0.1418970E-010  0.4778726E+02  0.7816164E-02  0.1312668E+00
        -11   -1    0    0    0    0  0.00000000000E+00  0.00000000000E+00  0.45593999997E+02  0.45594000000E+02  0.51100000000E-03 0.  1.
         11   -1    0    0    0    0 -0.00000000000E+00 -0.00000000000E+00 -0.45593999997E+02  0.45594000000E+02  0.51100000000E-03 0. -1.
    9900012    2    1    2    0    0 -0.37635921075E+02  0.22797491089E-01  0.21613907368E+02  0.47787261911E+02  0.19999958359E+02 0.  0.
         12    1    1    2    0    0  0.37635921075E+02 -0.22797491089E-01 -0.21613907368E+02  0.43400738089E+02  0.00000000000E+00 0. -1.
         11    1    3    3    0    0 -0.65391992873E+01  0.53766256157E+01  0.92577042167E+01  0.12544892106E+02  0.51100000000E-03 0. -1.
        -11    1    3    3    0    0 -0.22620541377E+02 -0.90003543117E+00  0.50414676640E+01  0.23193002230E+02  0.51100000000E-03 0.  1.
        -12    1    3    3    0    0 -0.84761804107E+01 -0.44537926934E+01  0.73147354877E+01  0.12049367575E+02  0.00000000000E+00 0.  1.
</event>
<event>
 7    1  0.1418970E-010  0.4778727E+02  0.7816164E-02  0.1312668E+00
        -11   -1    0    0    0    0  0.00000000000E+00  0.00000000000E+00  0.45593999997E+02  0.45594000000E+02  0.51100000000E-03 0.  1.
         11   -1    0    0    0    0 -0.00000000000E+00 -0.00000000000E+00 -0.45593999997E+02  0.45594000000E+02  0.51100000000E-03 0. -1.
    9900012    2    1    2    0    0  0.20980363148E+02 -0.33926545979E+02  0.17100797895E+02  0.47787269032E+02  0.19999990825E+02 0.  0.
         12    1    1    2    0    0 -0.20980363148E+02  0.33926545979E+02 -0.17100797895E+02  0.43400730968E+02  0.00000000000E+00 0. -1.
         11    1    3    3    0    0  0.16459744299E+02 -0.13942902807E+02  0.99331980401E+01  0.23748603004E+02  0.51100000000E-03 0.  1.
        -11    1    3    3    0    0 -0.51530010564E+00 -0.15580098075E+01 -0.22154967769E+01  0.27570554925E+01  0.51100000000E-03 0. -1.
        -12    1    3    3    0    0  0.50359189554E+01 -0.18425633364E+02  0.93830966321E+01  0.21281610536E+02  0.00000000000E+00 0.  1.
</event>
<event>
 7    1  0.1418970E-010  0.4778727E+02  0.7816164E-02  0.1312668E+00
        -11   -1    0    0    0    0  0.00000000000E+00  0.00000000000E+00  0.45593999997E+02  0.45594000000E+02  0.51100000000E-03 0.  1.
         11   -1    0    0    0    0 -0.00000000000E+00 -0.00000000000E+00 -0.45593999997E+02  0.45594000000E+02  0.51100000000E-03 0. -1.
    9900012    2    1    2    0    0  0.18136856659E+02 -0.33400841888E+02  0.20953789138E+02  0.47787273191E+02  0.20000009787E+02 0.  0.
         12    1    1    2    0    0 -0.18136856659E+02  0.33400841888E+02 -0.20953789138E+02  0.43400726809E+02  0.00000000000E+00 0. -1.
         11    1    3    3    0    0 -0.20105104305E+01 -0.69854664337E+01  0.50565442510E+01  0.88548028500E+01  0.51100000000E-03 0.  1.
        -11    1    3    3    0    0  0.11211691127E+02 -0.17372748050E+02  0.31240557111E+01  0.20911100332E+02  0.51100000000E-03 0. -1.
        -12    1    3    3    0    0  0.89356759631E+01 -0.90426274039E+01  0.12773189176E+02  0.18021370009E+02  0.00000000000E+00 0.  1.
</event>
<event>
 7    1  0.1418970E-010  0.4778726E+02  0.7816164E-02  0.1312668E+00
        -11   -1    0    0    0    0  0.00000000000E+00  0.00000000000E+00  0.45593999997E+02  0.45594000000E+02  0.51100000000E-03 0.  1.
         11   -1    0    0    0    0 -0.00000000000E+00 -0.00000000000E+00 -0.45593999997E+02  0.45594000000E+02  0.51100000000E-03 0. -1.
    9900012    2    1    2    0    0  0.33144407702E+02  0.11649736811E+01  0.27994908366E+02  0.47787264752E+02  0.19999971311E+02 0.  0.
         12    1    1    2    0    0 -0.33144407702E+02 -0.11649736811E+01 -0.27994908366E+02  0.43400735248E+02  0.00000000000E+00 0. -1.
         11    1    3    3    0    0  0.24099513237E+02  0.79926692834E+01  0.14887957732E+02  0.29433324417E+02  0.51100000000E-03 0. -1.
        -11    1    3    3    0    0  0.59876233136E+01 -0.40964413926E+01  0.38126418216E+01  0.81956514658E+01  0.51100000000E-03 0.  1.
        -12    1    3    3    0    0  0.30572711517E+01 -0.27312542098E+01  0.92943088122E+01  0.10158288869E+02  0.00000000000E+00 0.  1.
</event>
<event>
 7    1  0.1418970E-010  0.4778725E+02  0.7816164E-02  0.1312668E+00
        -11   -1    0    0    0    0  0.00000000000E+00  0.00000000000E+00  0.45593999997E+02  0.45594000000E+02  0.51100000000E-03 0. -1.
         11   -1    0    0    0    0 -0.00000000000E+00 -0.00000000000E+00 -0.45593999997E+02  0.45594000000E+02  0.51100000000E-03 0.  1.
    9900012    2    1    2    0    0 -0.15099628034E+02 -0.16320604528E+02 -0.37272836741E+02  0.47787248191E+02  0.19999895801E+02 0.  0.
         12    1    1    2    0    0  0.15099628034E+02  0.16320604528E+02  0.37272836741E+02  0.43400751809E+02  0.00000000000E+00 0. -1.
         11    1    3    3    0    0  0.25082627998E+01  0.24615635000E+01 -0.25228263364E+01  0.43261218339E+01  0.51100000000E-03 0. -1.
        -11    1    3    3    0    0 -0.64547064120E+01 -0.81019467176E+01 -0.17257133559E+02  0.20127429901E+02  0.51100000000E-03 0.  1.
         12    1    3    3    0    0 -0.11153184421E+02 -0.10680221311E+02 -0.17492876845E+02  0.23333696456E+02  0.00000000000E+00 0. -1.
</event>
<event>
 7    1  0.1418970E-010  0.4778727E+02  0.7816164E-02  0.1312668E+00
        -11   -1    0    0    0    0  0.00000000000E+00  0.00000000000E+00  0.45593999997E+02  0.45594000000E+02  0.51100000000E-03 0.  1.
         11   -1    0    0    0    0 -0.00000000000E+00 -0.00000000000E+00 -0.45593999997E+02  0.45594000000E+02  0.51100000000E-03 0. -1.
    9900012    2    1    2    0    0  0.26820731226E+02  0.33902744256E+02 -0.38568578713E+01  0.47787273690E+02  0.20000012061E+02 0.  0.
         12    1    1    2    0    0 -0.26820731226E+02 -0.33902744256E+02  0.38568578713E+01  0.43400726310E+02  0.00000000000E+00 0. -1.
         11    1    3    3    0    0  0.16112498444E+01  0.29081366332E+01 -0.18887619014E+00  0.33300239061E+01  0.51100000000E-03 0.  1.
        -11    1    3    3    0    0  0.26544641410E+02  0.22283730022E+02  0.60498117418E+00  0.34663361259E+02  0.51100000000E-03 0. -1.
         12    1    3    3    0    0 -0.13351600278E+01  0.87108776009E+01 -0.42729628553E+01  0.97938885251E+01  0.00000000000E+00 0. -1.
</event>
<event>
 7    1  0.1418970E-010  0.4778727E+02  0.7816164E-02  0.1312668E+00
        -11   -1    0    0    0    0  0.00000000000E+00  0.00000000000E+00  0.45593999997E+02  0.45594000000E+02  0.51100000000E-03 0.  1.
         11   -1    0    0    0    0 -0.00000000000E+00 -0.00000000000E+00 -0.45593999997E+02  0.45594000000E+02  0.51100000000E-03 0. -1.
    9900012    2    1    2    0    0 -0.38560696909E+02  0.14484354156E+02  0.13671116579E+02  0.47787270860E+02  0.19999999158E+02 0.  0.
         12    1    1    2    0    0  0.38560696909E+02 -0.14484354156E+02 -0.13671116579E+02  0.43400729140E+02  0.00000000000E+00 0. -1.
         11    1    3    3    0    0 -0.12729056764E+02  0.16729973737E+01  0.81056433710E+01  0.15183190081E+02  0.51100000000E-03 0. -1.
        -11    1    3    3    0    0 -0.21545530119E+02  0.65731838105E+01 -0.10519129330E+01  0.22550457525E+02  0.51100000000E-03 0.  1.
         12    1    3    3    0    0 -0.42861100251E+01  0.62381729720E+01  0.66173861412E+01  0.10053623253E+02  0.00000000000E+00 0. -1.
</event>
<event>
 7    1  0.1418970E-010  0.4778727E+02  0.7816164E-02  0.1312668E+00
        -11   -1    0    0    0    0  0.00000000000E+00  0.00000000000E+00  0.45593999997E+02  0.45594000000E+02  0.51100000000E-03 0.  1.
         11   -1    0    0    0    0 -0.00000000000E+00 -0.00000000000E+00 -0.45593999997E+02  0.45594000000E+02  0.51100000000E-03 0. -1.
    9900012    2    1    2    0    0 -0.23030090370E+02  0.26043616123E+02  0.25980157153E+02  0.47787267646E+02  0.19999984504E+02 0.  0.
         12    1    1    2    0    0  0.23030090370E+02 -0.26043616123E+02 -0.25980157153E+02  0.43400732354E+02  0.00000000000E+00 0. -1.
         11    1    3    3    0    0 -0.19665103116E+02  0.18638942068E+02  0.10835076081E+02  0.29180906701E+02  0.51100000000E-03 0. -1.
        -11    1    3    3    0    0 -0.35285705380E+01  0.21696715925E+01  0.23078373717E+01  0.47417716579E+01  0.51100000000E-03 0.  1.
         12    1    3    3    0    0  0.16358328359E+00  0.52350024623E+01  0.12837243700E+02  0.13864589286E+02  0.00000000000E+00 0. -1.
</event>
<event>
 7    1  0.1418970E-010  0.4778727E+02  0.7816164E-02  0.1312668E+00
        -11   -1    0    0    0    0  0.00000000000E+00  0.00000000000E+00  0.45593999997E+02  0.45594000000E+02  0.51100000000E-03 0.  1.
         11   -1    0    0    0    0 -0.00000000000E+00 -0.00000000000E+00 -0.45593999997E+02  0.45594000000E+02  0.51100000000E-03 0. -1.
    9900012    2    1    2    0    0 -0.38373248723E+02 -0.14482614596E+02  0.14190525080E+02  0.47787270224E+02  0.19999996258E+02 0.  0.
         12    1    1    2    0    0  0.38373248723E+02  0.14482614596E+02 -0.14190525080E+02  0.43400729776E+02  0.00000000000E+00 0. -1.
         11    1    3    3    0    0 -0.58435249691E+01 -0.16341145265E+01 -0.42390463127E+01  0.74017989875E+01  0.51100000000E-03 0. -1.
        -11    1    3    3    0    0 -0.20214894633E+02 -0.64264349909E+01  0.68131437053E+01  0.22279137307E+02  0.51100000000E-03 0.  1.
         12    1    3    3    0    0 -0.12314829120E+02 -0.64220650788E+01  0.11616427687E+02  0.18106333929E+02  0.00000000000E+00 0. -1.
</event>
<event>
 7    1  0.1418970E-010  0.4778727E+02  0.7816164E-02  0.1312668E+00
        -11   -1    0    0    0    0  0.00000000000E+00  0.00000000000E+00  0.45593999997E+02  0.45594000000E+02  0.51100000000E-03 0. -1.
         11   -1    0    0    0    0 -0.00000000000E+00 -0.00000000000E+00 -0.45593999997E+02  0.45594000000E+02  0.51100000000E-03 0.  1.
    9900012    2    1    2    0    0 -0.26742281559E+02  0.31412025323E+02 -0.13481767173E+02  0.47787274154E+02  0.20000014177E+02 0.  0.
         12    1    1    2    0    0  0.26742281559E+02 -0.31412025323E+02  0.13481767173E+02  0.43400725846E+02  0.00000000000E+00 0. -1.
         11    1    3    3    0    0 -0.69715532350E+01  0.17600347903E+01 -0.23994140137E+01  0.75800702399E+01  0.51100000000E-03 0. -1.
        -11    1    3    3    0    0 -0.18254505004E+02  0.26900100792E+02 -0.14472443128E+02  0.35585024742E+02  0.51100000000E-03 0.  1.
         12    1    3    3    0    0 -0.15162233197E+01  0.27518897411E+01  0.33900899685E+01  0.46221791719E+01  0.00000000000E+00 0. -1.
</event>
<event>
 7    1  0.1418970E-010  0.4778726E+02  0.7816164E-02  0.1312668E+00
        -11   -1    0    0    0    0  0.00000000000E+00  0.00000000000E+00  0.45593999997E+02  0.45594000000E+02  0.51100000000E-03 0. -1.
         11   -1    0    0    0    0 -0.00000000000E+00 -0.00000000000E+00 -0.45593999997E+02  0.45594000000E+02  0.51100000000E-03 0.  1.
    9900012    2    1    2    0    0 -0.39662186369E+02  0.12146519619E+02 -0.12767043880E+02  0.47787258349E+02  0.19999942115E+02 0.  0.
         12    1    1    2    0    0  0.39662186369E+02 -0.12146519619E+02  0.12767043880E+02  0.43400741651E+02  0.00000000000E+00 0. -1.
         11    1    3    3    0    0 -0.19200719189E+02  0.64208878929E+01 -0.27555653913E+01  0.20432536788E+02  0.51100000000E-03 0. -1.
        -11    1    3    3    0    0 -0.22283025452E+02  0.63837984787E+01 -0.10355743641E+02  0.25387546808E+02  0.51100000000E-03 0.  1.
         12    1    3    3    0    0  0.18215582717E+01 -0.65816675239E+00  0.34426515276E+00  0.19671747524E+01  0.00000000000E+00 0. -1.
</event>
<event>
 7    1  0.1418970E-010  0.4778727E+02  0.7816164E-02  0.1312668E+00
        -11   -1    0    0    0    0  0.00000000000E+00  0.00000000000E+00  0.45593999997E+02  0.45594000000E+02  0.51100000000E-03 0.  1.
         11   -1    0    0    0    0 -0.00000000000E+00 -0.00000000000E+00 -0.45593999997E+02  0.45594000000E+02  0.51100000000E-03 0. -1.
    9900012    2    1    2    0    0 -0.17748575557E+02 -0.33329554349E+02  0.21395137282E+02  0.47787273892E+02  0.20000012984E+02 0.  0.
         12    1    1    2    0    0  0.17748575557E+02  0.33329554349E+02 -0.21395137282E+02  0.43400726108E+02  0.00000000000E+00 0. -1.
         11    1    3    3    0    0  0.95960134676E-01 -0.20703741321E+00 -0.85019298146E+00  0.88028472937E+00  0.51100000000E-03 0. -1.
        -11    1    3    3    0    0  0.17803461356E+01 -0.16989598891E+01  0.59395183549E+01  0.64291504584E+01  0.51100000000E-03 0.  1.
         12    1    3    3    0    0 -0.19624881827E+02 -0.31423557047E+02  0.16305811908E+02  0.40477838704E+02  0.00000000000E+00 0. -1.
</event>
<event>
 7    1  0.1418970E-010  0.4778728E+02  0.7816164E-02  0.1312668E+00
        -11   -1    0    0    0    0  0.00000000000E+00  0.00000000000E+00  0.45593999997E+02  0.45594000000E+02  0.51100000000E-03 0. -1.
         11   -1    0    0    0    0 -0.00000000000E+00 -0.00000000000E+00 -0.45593999997E+02  0.45594000000E+02  0.51100000000E-03 0.  1.
    9900012    2    1    2    0    0 -0.39977666249E+02 -0.12804725155E+02  0.11020346546E+02  0.47787276239E+02  0.20000023683E+02 0.  0.
         12    1    1    2    0    0  0.39977666249E+02  0.12804725155E+02 -0.11020346546E+02  0.43400723761E+02  0.00000000000E+00 0. -1.
         11    1    3    3    0    0 -0.11279046294E+01  0.26304062672E+01  0.12614083085E+00  0.28648067568E+01  0.51100000000E-03 0. -1.
        -11    1    3    3    0    0 -0.26453829092E+02 -0.10560246547E+02  0.13121547360E+01  0.28513955023E+02  0.51100000000E-03 0.  1.
         12    1    3    3    0    0 -0.12395932528E+02 -0.48748848758E+01  0.95820509787E+01  0.16408514459E+02  0.00000000000E+00 0. -1.
</event>
<event>
 7    1  0.1418970E-010  0.4778727E+02  0.7816164E-02  0.1312668E+00
        -11   -1    0    0    0    0  0.00000000000E+00  0.00000000000E+00  0.45593999997E+02  0.45594000000E+02  0.51100000000E-03 0.  1.
         11   -1    0    0    0    0 -0.00000000000E+00 -0.00000000000E+00 -0.45593999997E+02  0.45594000000E+02  0.51100000000E-03 0. -1.
    9900012    2    1    2    0    0  0.27917627354E+02 -0.17996840826E+02  0.27934624902E+02  0.47787268840E+02  0.19999989950E+02 0.  0.
         12    1    1    2    0    0 -0.27917627354E+02  0.17996840826E+02 -0.27934624902E+02  0.43400731160E+02  0.00000000000E+00 0. -1.
         11    1    3    3    0    0  0.50894530757E+01  0.11721230221E+01  0.46202048018E+01  0.69729977528E+01  0.51100000000E-03 0. -1.
        -11    1    3    3    0    0  0.81499251037E+01 -0.15188767757E+02  0.17411311499E+02  0.24500483946E+02  0.51100000000E-03 0.  1.
        -12    1    3    3    0    0  0.14678249175E+02 -0.39801960907E+01  0.59031086003E+01  0.16313787142E+02  0.00000000000E+00 0.  1.
</event>
<event>
 7    1  0.1594257E-010  0.4778726E+02  0.7816164E-02  0.1312668E+00
        -11   -1    0    0    0    0  0.00000000000E+00  0.00000000000E+00  0.45593999997E+02  0.45594000000E+02  0.51100000000E-03 0. -1.
         11   -1    0    0    0    0 -0.00000000000E+00 -0.00000000000E+00 -0.45593999997E+02  0.45594000000E+02  0.51100000000E-03 0.  1.
    9900012    2    1    2    0    0  0.17282532949E+02 -0.28046713114E+02 -0.28254563562E+02  0.47787257797E+02  0.19999939602E+02 0.  0.
         12    1    1    2    0    0 -0.17282532949E+02  0.28046713114E+02  0.28254563562E+02  0.43400742203E+02  0.00000000000E+00 0. -1.
         11    1    3    3    0    0  0.35267869037E+01 -0.66710327325E+01 -0.73080866288E-01  0.75462735609E+01  0.51100000000E-03 0. -1.
        -11    1    3    3    0    0  0.15069492794E+02 -0.21375093972E+02 -0.22783172849E+02  0.34685115262E+02  0.51100000000E-03 0.  1.
         12    1    3    3    0    0 -0.13137467484E+01 -0.58640929138E-03 -0.53983098467E+01  0.55558689747E+01  0.00000000000E+00 0. -1.
</event>
<event>
 7    1  0.1418970E-010  0.4778727E+02  0.7816164E-02  0.1312668E+00
        -11   -1    0    0    0    0  0.00000000000E+00  0.00000000000E+00  0.45593999997E+02  0.45594000000E+02  0.51100000000E-03 0.  1.
         11   -1    0    0    0    0 -0.00000000000E+00 -0.00000000000E+00 -0.45593999997E+02  0.45594000000E+02  0.51100000000E-03 0. -1.
    9900012    2    1    2    0    0  0.79708949430E+01  0.32788346871E+00  0.42661231956E+02  0.47787269755E+02  0.19999994123E+02 0.  0.
         12    1    1    2    0    0 -0.79708949430E+01 -0.32788346871E+00 -0.42661231956E+02  0.43400730245E+02  0.00000000000E+00 0. -1.
         11    1    3    3    0    0  0.10900982343E+01 -0.90355814079E+01  0.14687640009E+02  0.17278796684E+02  0.51100000000E-03 0. -1.
        -11    1    3    3    0    0  0.67724721310E+00  0.47317551914E+00  0.54447444214E+01  0.55070682704E+01  0.51100000000E-03 0.  1.
        -12    1    3    3    0    0  0.62035494956E+01  0.88902893575E+01  0.22528847526E+02  0.25001404801E+02  0.00000000000E+00 0.  1.
</event>
<event>
 7    1  0.1418970E-010  0.4778727E+02  0.7816164E-02  0.1312668E+00
        -11   -1    0    0    0    0  0.00000000000E+00  0.00000000000E+00  0.45593999997E+02  0.45594000000E+02  0.51100000000E-03 0. -1.
         11   -1    0    0    0    0 -0.00000000000E+00 -0.00000000000E+00 -0.45593999997E+02  0.45594000000E+02  0.51100000000E-03 0.  1.
    9900012    2    1    2    0    0  0.11162716207E+02  0.41319836400E+02 -0.71894480364E+01  0.47787271016E+02  0.19999999871E+02 0.  0.
         12    1    1    2    0    0 -0.11162716207E+02 -0.41319836400E+02  0.71894480364E+01  0.43400728984E+02  0.00000000000E+00 0. -1.
         11    1    3    3    0    0 -0.28705701505E+01  0.79062140146E+01 -0.69899241654E+01  0.10936518328E+02  0.51100000000E-03 0. -1.
        -11    1    3    3    0    0  0.39738550432E+01  0.17418095199E+02  0.11810167911E+01  0.17904646470E+02  0.51100000000E-03 0.  1.
        -12    1    3    3    0    0  0.10059431314E+02  0.15995527186E+02 -0.13805406621E+01  0.18946106219E+02  0.00000000000E+00 0.  1.
</event>
<event>
 7    1  0.1418970E-010  0.4778727E+02  0.7816164E-02  0.1312668E+00
        -11   -1    0    0    0    0  0.00000000000E+00  0.00000000000E+00  0.45593999997E+02  0.45594000000E+02  0.51100000000E-03 0.  1.
         11   -1    0    0    0    0 -0.00000000000E+00 -0.00000000000E+00 -0.45593999997E+02  0.45594000000E+02  0.51100000000E-03 0. -1.
    9900012    2    1    2    0    0  0.29475992388E+02 -0.19747133626E+02 -0.24996794686E+02  0.47787272377E+02  0.20000006074E+02 0.  0.
         12    1    1    2    0    0 -0.29475992388E+02  0.19747133626E+02  0.24996794686E+02  0.43400727623E+02  0.00000000000E+00 0. -1.
         11    1    3    3    0    0  0.14033461586E+01 -0.48046813414E+00 -0.61172361414E+01  0.62945062030E+01  0.51100000000E-03 0. -1.
        -11    1    3    3    0    0  0.69122393631E+01 -0.89978840830E+01 -0.22440751776E-01  0.11346430048E+02  0.51100000000E-03 0.  1.
         12    1    3    3    0    0  0.21160406866E+02 -0.10268781409E+02 -0.18857117793E+02  0.30146336126E+02  0.00000000000E+00 0. -1.
</event>
<event>
 7    1  0.1418970E-010  0.4778728E+02  0.7816164E-02  0.1312668E+00
        -11   -1    0    0    0    0  0.00000000000E+00  0.00000000000E+00  0.45593999997E+02  0.45594000000E+02  0.51100000000E-03 0.  1.
         11   -1    0    0    0    0 -0.00000000000E+00 -0.00000000000E+00 -0.45593999997E+02  0.45594000000E+02  0.51100000000E-03 0. -1.
    9900012    2    1    2    0    0 -0.34461890668E+02  0.67181353512E+01  0.25512108072E+02  0.47787275245E+02  0.20000019150E+02 0.  0.
         12    1    1    2    0    0  0.34461890668E+02 -0.67181353512E+01 -0.25512108072E+02  0.43400724755E+02  0.00000000000E+00 0. -1.
         11    1    3    3    0    0 -0.21592216513E+01 -0.19028045248E+01  0.45108846182E+01  0.53507927916E+01  0.51100000000E-03 0. -1.
        -11    1    3    3    0    0 -0.25035991376E+02  0.12959354033E+02  0.18044502260E+02  0.33471626539E+02  0.51100000000E-03 0.  1.
        -12    1    3    3    0    0 -0.72666776409E+01 -0.43384141571E+01  0.29567211945E+01  0.89648559139E+01  0.00000000000E+00 0.  1.
</event>
<event>
 7    1  0.1418970E-010  0.4778727E+02  0.7816164E-02  0.1312668E+00
        -11   -1    0    0    0    0  0.00000000000E+00  0.00000000000E+00  0.45593999997E+02  0.45594000000E+02  0.51100000000E-03 0. -1.
         11   -1    0    0    0    0 -0.00000000000E+00 -0.00000000000E+00 -0.45593999997E+02  0.45594000000E+02  0.51100000000E-03 0.  1.
    9900012    2    1    2    0    0  0.39207275940E+01 -0.42350957771E+02  0.86398969848E+01  0.47787267876E+02  0.19999985552E+02 0.  0.
         12    1    1    2    0    0 -0.39207275940E+01  0.42350957771E+02 -0.86398969848E+01  0.43400732124E+02  0.00000000000E+00 0. -1.
         11    1    3    3    0    0  0.17400686704E+00 -0.13150498106E+02  0.74905685602E+01  0.15135207182E+02  0.51100000000E-03 0. -1.
        -11    1    3    3    0    0  0.66769325966E+01 -0.55199356206E+01 -0.86379821211E+00  0.87061625167E+01  0.51100000000E-03 0.  1.
        -12    1    3    3    0    0 -0.29302118697E+01 -0.23680524045E+02  0.20131266368E+01  0.23945898177E+02  0.00000000000E+00 0.  1.
</event>
<event>
 7    1  0.1418970E-010  0.4778728E+02  0.7816164E-02  0.1312668E+00
        -11   -1    0    0    0    0  0.00000000000E+00  0.00000000000E+00  0.45593999997E+02  0.45594000000E+02  0.51100000000E-03 0.  1.
         11   -1    0    0    0    0 -0.00000000000E+00 -0.00000000000E+00 -0.45593999997E+02  0.45594000000E+02  0.51100000000E-03 0. -1.
    9900012    2    1    2    0    0  0.13677685172E+02  0.20027368865E+02  0.35992335735E+02  0.47787276423E+02  0.20000024525E+02 0.  0.
         12    1    1    2    0    0 -0.13677685172E+02 -0.20027368865E+02 -0.35992335735E+02  0.43400723577E+02  0.00000000000E+00 0. -1.
         11    1    3    3    0    0  0.31702838120E+01  0.76901171462E+01  0.20081889339E+02  0.21736395305E+02  0.51100000000E-03 0. -1.
        -11    1    3    3    0    0  0.79195721359E+01  0.14966752258E+02  0.12829316530E+02  0.21244167644E+02  0.51100000000E-03 0.  1.
        -12    1    3    3    0    0  0.25878292242E+01 -0.26295005395E+01  0.30811298657E+01  0.48067134749E+01  0.00000000000E+00 0.  1.
</event>
<event>
 7    1  0.1418970E-010  0.4778727E+02  0.7816164E-02  0.1312668E+00
        -11   -1    0    0    0    0  0.00000000000E+00  0.00000000000E+00  0.45593999997E+02  0.45594000000E+02  0.51100000000E-03 0.  1.
         11   -1    0    0    0    0 -0.00000000000E+00 -0.00000000000E+00 -0.45593999997E+02  0.45594000000E+02  0.51100000000E-03 0. -1.
    9900012    2    1    2    0    0 -0.18593826690E+02 -0.96193834280E+01  0.38017893857E+02  0.47787272105E+02  0.20000004834E+02 0.  0.
         12    1    1    2    0    0  0.18593826690E+02  0.96193834280E+01 -0.38017893857E+02  0.43400727895E+02  0.00000000000E+00 0. -1.
         11    1    3    3    0    0 -0.44086964984E+01 -0.84628546766E+01  0.19059909611E+02  0.21315174612E+02  0.51100000000E-03 0. -1.
        -11    1    3    3    0    0 -0.43111978308E+01  0.38120178794E+01  0.12270533521E+02  0.13553003365E+02  0.51100000000E-03 0.  1.
        -12    1    3    3    0    0 -0.98739323611E+01 -0.49685466308E+01  0.66874507247E+01  0.12919094128E+02  0.00000000000E+00 0.  1.
</event>
<event>
 7    1  0.1476930E-010  0.4778727E+02  0.7816164E-02  0.1312668E+00
        -11   -1    0    0    0    0  0.00000000000E+00  0.00000000000E+00  0.45593999997E+02  0.45594000000E+02  0.51100000000E-03 0.  1.
         11   -1    0    0    0    0 -0.00000000000E+00 -0.00000000000E+00 -0.45593999997E+02  0.45594000000E+02  0.51100000000E-03 0. -1.
    9900012    2    1    2    0    0  0.20417994876E+02  0.33002898228E+02  0.19430324129E+02  0.47787270721E+02  0.19999998523E+02 0.  0.
         12    1    1    2    0    0 -0.20417994876E+02 -0.33002898228E+02 -0.19430324129E+02  0.43400729279E+02  0.00000000000E+00 0. -1.
         11    1    3    3    0    0 -0.42578110429E+00  0.30954983304E+01 -0.33222934684E+00  0.31422565240E+01  0.51100000000E-03 0. -1.
        -11    1    3    3    0    0  0.23141516905E+02  0.28416593645E+02  0.20239344358E+02  0.41864826040E+02  0.51100000000E-03 0.  1.
        -12    1    3    3    0    0 -0.22977409250E+01  0.14908062526E+01 -0.47679088156E+00  0.27801881566E+01  0.00000000000E+00 0.  1.
</event>
<event>
 7    1  0.1418970E-010  0.4778726E+02  0.7816164E-02  0.1312668E+00
        -11   -1    0    0    0    0  0.00000000000E+00  0.00000000000E+00  0.45593999997E+02  0.45594000000E+02  0.51100000000E-03 0.  1.
         11   -1    0    0    0    0 -0.00000000000E+00 -0.00000000000E+00 -0.45593999997E+02  0.45594000000E+02  0.51100000000E-03 0. -1.
    9900012    2    1    2    0    0 -0.15449176254E+02 -0.40519558798E+02  0.17641677976E+01  0.47787262908E+02  0.19999962902E+02 0.  0.
         12    1    1    2    0    0  0.15449176254E+02  0.40519558798E+02 -0.17641677976E+01  0.43400737092E+02  0.00000000000E+00 0. -1.
         11    1    3    3    0    0 -0.16117354760E+01 -0.27075878935E+02 -0.33837768673E+01  0.27334060392E+02  0.51100000000E-03 0.  1.
        -11    1    3    3    0    0 -0.88968993963E+01 -0.11060991229E+02  0.27133244511E+01  0.14452075134E+02  0.51100000000E-03 0. -1.
        -12    1    3    3    0    0 -0.49405413820E+01 -0.23826886336E+01  0.24346202138E+01  0.60011273822E+01  0.00000000000E+00 0.  1.
</event>
<event>
 7    1  0.2275933E-010  0.4778727E+02  0.7816164E-02  0.1312668E+00
        -11   -1    0    0    0    0  0.00000000000E+00  0.00000000000E+00  0.45593999997E+02  0.45594000000E+02  0.51100000000E-03 0.  1.
         11   -1    0    0    0    0 -0.00000000000E+00 -0.00000000000E+00 -0.45593999997E+02  0.45594000000E+02  0.51100000000E-03 0. -1.
    9900012    2    1    2    0    0 -0.50174711987E+01 -0.41525456415E+02  0.11579492094E+02  0.47787272070E+02  0.20000004677E+02 0.  0.
         12    1    1    2    0    0  0.50174711987E+01  0.41525456415E+02 -0.11579492094E+02  0.43400727930E+02  0.00000000000E+00 0. -1.
         11    1    3    3    0    0 -0.16443724873E+01 -0.16357681713E+01  0.42888365792E+01  0.48758402200E+01  0.51100000000E-03 0. -1.
        -11    1    3    3    0    0 -0.21411729444E+01 -0.13884802250E+02 -0.38908284570E+01  0.14577753649E+02  0.51100000000E-03 0.  1.
        -12    1    3    3    0    0 -0.12319257669E+01 -0.26004885993E+02  0.11181483971E+02  0.28333678201E+02  0.00000000000E+00 0.  1.
</event>
<event>
 7    1  0.1418970E-010  0.4778726E+02  0.7816164E-02  0.1312668E+00
        -11   -1    0    0    0    0  0.00000000000E+00  0.00000000000E+00  0.45593999997E+02  0.45594000000E+02  0.51100000000E-03 0.  1.
         11   -1    0    0    0    0 -0.00000000000E+00 -0.00000000000E+00 -0.45593999997E+02  0.45594000000E+02  0.51100000000E-03 0. -1.
    9900012    2    1    2    0    0  0.36386973305E+02 -0.22085570800E+02 -0.84758223876E+01  0.47787264649E+02  0.19999970840E+02 0.  0.
         12    1    1    2    0    0 -0.36386973305E+02  0.22085570800E+02  0.84758223876E+01  0.43400735351E+02  0.00000000000E+00 0. -1.
         11    1    3    3    0    0  0.39010575475E+01 -0.68488074149E+00 -0.23620997389E+01  0.46115970180E+01  0.51100000000E-03 0. -1.
        -11    1    3    3    0    0  0.25626180858E+02 -0.15145349881E+02 -0.12096669413E+02  0.32131171462E+02  0.51100000000E-03 0.  1.
         12    1    3    3    0    0  0.68597349001E+01 -0.62553401771E+01  0.59829467647E+01  0.11044496169E+02  0.00000000000E+00 0. -1.
</event>
<event>
 7    1  0.1418970E-010  0.4778727E+02  0.7816164E-02  0.1312668E+00
        -11   -1    0    0    0    0  0.00000000000E+00  0.00000000000E+00  0.45593999997E+02  0.45594000000E+02  0.51100000000E-03 0. -1.
         11   -1    0    0    0    0 -0.00000000000E+00 -0.00000000000E+00 -0.45593999997E+02  0.45594000000E+02  0.51100000000E-03 0.  1.
    9900012    2    1    2    0    0 -0.27236958347E+02 -0.33000976489E+02  0.72599504480E+01  0.47787271553E+02  0.20000002317E+02 0.  0.
         12    1    1    2    0    0  0.27236958347E+02  0.33000976489E+02 -0.72599504480E+01  0.43400728447E+02  0.00000000000E+00 0. -1.
         11    1    3    3    0    0 -0.11046097878E+01  0.14822143886E+01 -0.63352871188E+00  0.19540934386E+01  0.51100000000E-03 0. -1.
        -11    1    3    3    0    0 -0.12399177903E+02 -0.16439361753E+02  0.10312267947E+02  0.23029005580E+02  0.51100000000E-03 0.  1.
         12    1    3    3    0    0 -0.13733170657E+02 -0.18043829125E+02 -0.24187887875E+01  0.22804172534E+02  0.00000000000E+00 0. -1.
</event>
<event>
 7    1  0.1418970E-010  0.4778727E+02  0.7816164E-02  0.1312668E+00
        -11   -1    0    0    0    0  0.00000000000E+00  0.00000000000E+00  0.45593999997E+02  0.45594000000E+02  0.51100000000E-03 0.  1.
         11   -1    0    0    0    0 -0.00000000000E+00 -0.00000000000E+00 -0.45593999997E+02  0.45594000000E+02  0.51100000000E-03 0. -1.
    9900012    2    1    2    0    0 -0.12997020337E+02 -0.33683410627E+02  0.24085864287E+02  0.47787267891E+02  0.19999985624E+02 0.  0.
         12    1    1    2    0    0  0.12997020337E+02  0.33683410627E+02 -0.24085864287E+02  0.43400732109E+02  0.00000000000E+00 0. -1.
         11    1    3    3    0    0 -0.98635921473E+00 -0.32621203924E+01  0.13123550968E+01  0.36519323811E+01  0.51100000000E-03 0. -1.
        -11    1    3    3    0    0 -0.98988919140E+01 -0.32880997451E+02  0.22065402093E+02  0.40817031057E+02  0.51100000000E-03 0.  1.
         12    1    3    3    0    0 -0.21117692088E+01  0.24597072170E+01  0.70810709808E+00  0.33183044536E+01  0.00000000000E+00 0. -1.
</event>
<event>
 7    1  0.1418970E-010  0.4778727E+02  0.7816164E-02  0.1312668E+00
        -11   -1    0    0    0    0  0.00000000000E+00  0.00000000000E+00  0.45593999997E+02  0.45594000000E+02  0.51100000000E-03 0. -1.
         11   -1    0    0    0    0 -0.00000000000E+00 -0.00000000000E+00 -0.45593999997E+02  0.45594000000E+02  0.51100000000E-03 0.  1.
    9900012    2    1    2    0    0  0.26197632742E+02 -0.19888495430E+02 -0.28315279826E+02  0.47787270935E+02  0.19999999502E+02 0.  0.
         12    1    1    2    0    0 -0.26197632742E+02  0.19888495430E+02  0.28315279826E+02  0.43400729065E+02  0.00000000000E+00 0. -1.
         11    1    3    3    0    0  0.16548971993E+02 -0.11426746266E+02 -0.77389431232E+01  0.21548323488E+02  0.51100000000E-03 0. -1.
        -11    1    3    3    0    0  0.76877607939E+01 -0.22930298793E+01 -0.52121747980E+01  0.95669440491E+01  0.51100000000E-03 0.  1.
         12    1    3    3    0    0  0.19608999549E+01 -0.61687192851E+01 -0.15364161905E+02  0.16672003398E+02  0.00000000000E+00 0. -1.
</event>
<event>
 7    1  0.1418970E-010  0.4778727E+02  0.7816164E-02  0.1312668E+00
        -11   -1    0    0    0    0  0.00000000000E+00  0.00000000000E+00  0.45593999997E+02  0.45594000000E+02  0.51100000000E-03 0.  1.
         11   -1    0    0    0    0 -0.00000000000E+00 -0.00000000000E+00 -0.45593999997E+02  0.45594000000E+02  0.51100000000E-03 0. -1.
    9900012    2    1    2    0    0 -0.38941425236E+01 -0.42724536567E+02  0.65629962231E+01  0.47787270855E+02  0.19999999139E+02 0.  0.
         12    1    1    2    0    0  0.38941425236E+01  0.42724536567E+02 -0.65629962231E+01  0.43400729145E+02  0.00000000000E+00 0. -1.
         11    1    3    3    0    0 -0.10081234600E+02 -0.30320164243E+02  0.77124638849E+01  0.32869830396E+02  0.51100000000E-03 0.  1.
        -11    1    3    3    0    0  0.29174276715E+01 -0.92466263920E+01  0.12521085302E+01  0.97764645902E+01  0.51100000000E-03 0. -1.
        -12    1    3    3    0    0  0.32696644045E+01 -0.31577459316E+01 -0.24015761921E+01  0.51409758697E+01  0.00000000000E+00 0.  1.
</event>
<event>
 7    1  0.1418970E-010  0.4778727E+02  0.7816164E-02  0.1312668E+00
        -11   -1    0    0    0    0  0.00000000000E+00  0.00000000000E+00  0.45593999997E+02  0.45594000000E+02  0.51100000000E-03 0.  1.
         11   -1    0    0    0    0 -0.00000000000E+00 -0.00000000000E+00 -0.45593999997E+02  0.45594000000E+02  0.51100000000E-03 0. -1.
    9900012    2    1    2    0    0  0.23423082039E+02 -0.16583690448E+02  0.32557083753E+02  0.47787271163E+02  0.20000000541E+02 0.  0.
         12    1    1    2    0    0 -0.23423082039E+02  0.16583690448E+02 -0.32557083753E+02  0.43400728837E+02  0.00000000000E+00 0. -1.
         11    1    3    3    0    0  0.49593773143E+01 -0.54322008224E-01  0.14119509679E+01  0.51567412213E+01  0.51100000000E-03 0. -1.
        -11    1    3    3    0    0  0.13074945013E+01  0.15817213770E+01  0.91329597535E+01  0.93606804510E+01  0.51100000000E-03 0.  1.
         12    1    3    3    0    0  0.17156210223E+02 -0.18111089817E+02  0.22012173032E+02  0.33269849491E+02  0.00000000000E+00 0. -1.
</event>
<event>
 7    1  0.1418970E-010  0.4778727E+02  0.7816164E-02  0.1312668E+00
        -11   -1    0    0    0    0  0.00000000000E+00  0.00000000000E+00  0.45593999997E+02  0.45594000000E+02  0.51100000000E-03 0.  1.
         11   -1    0    0    0    0 -0.00000000000E+00 -0.00000000000E+00 -0.45593999997E+02  0.45594000000E+02  0.51100000000E-03 0. -1.
    9900012    2    1    2    0    0 -0.31301694398E+02  0.26404943174E+02  0.14373795365E+02  0.47787273170E+02  0.20000009689E+02 0.  0.
         12    1    1    2    0    0  0.31301694398E+02 -0.26404943174E+02 -0.14373795365E+02  0.43400726830E+02  0.00000000000E+00 0. -1.
         11    1    3    3    0    0 -0.34780891083E+01  0.33435661817E+01 -0.26302899806E+01  0.54949944768E+01  0.51100000000E-03 0. -1.
        -11    1    3    3    0    0 -0.18389360037E+02  0.64929503882E+01  0.10488792242E+02  0.22143661176E+02  0.51100000000E-03 0.  1.
         12    1    3    3    0    0 -0.94342452533E+01  0.16568426604E+02  0.65152931037E+01  0.20148617517E+02  0.00000000000E+00 0. -1.
</event>
<event>
 7    1  0.1418970E-010  0.4778727E+02  0.7816164E-02  0.1312668E+00
        -11   -1    0    0    0    0  0.00000000000E+00  0.00000000000E+00  0.45593999997E+02  0.45594000000E+02  0.51100000000E-03 0.  1.
         11   -1    0    0    0    0 -0.00000000000E+00 -0.00000000000E+00 -0.45593999997E+02  0.45594000000E+02  0.51100000000E-03 0. -1.
    9900012    2    1    2    0    0  0.64108128157E+01  0.40124130728E+02  0.15250545401E+02  0.47787268178E+02  0.19999986932E+02 0.  0.
         12    1    1    2    0    0 -0.64108128157E+01 -0.40124130728E+02 -0.15250545401E+02  0.43400731822E+02  0.00000000000E+00 0. -1.
         11    1    3    3    0    0 -0.21434225395E+01  0.23610916307E+02  0.61359215274E+00  0.23715946632E+02  0.51100000000E-03 0. -1.
        -11    1    3    3    0    0  0.37391587370E+01  0.37105076376E+01  0.27127154515E+01  0.59252004498E+01  0.51100000000E-03 0.  1.
        -12    1    3    3    0    0  0.48150766182E+01  0.12802706783E+02  0.11924237797E+02  0.18146121096E+02  0.00000000000E+00 0.  1.
</event>
<event>
 7    1  0.1418970E-010  0.4778730E+02  0.7816164E-02  0.1312668E+00
        -11   -1    0    0    0    0  0.00000000000E+00  0.00000000000E+00  0.45593999997E+02  0.45594000000E+02  0.51100000000E-03 0. -1.
         11   -1    0    0    0    0 -0.00000000000E+00 -0.00000000000E+00 -0.45593999997E+02  0.45594000000E+02  0.51100000000E-03 0.  1.
    9900012    2    1    2    0    0 -0.18843526464E+01 -0.46424154068E+00 -0.43357292910E+02  0.47787295472E+02  0.20000111373E+02 0.  0.
         12    1    1    2    0    0  0.18843526464E+01  0.46424154068E+00  0.43357292910E+02  0.43400704528E+02  0.00000000000E+00 0. -1.
         11    1    3    3    0    0  0.23848191122E+01  0.23926301713E+01 -0.25860875654E+01  0.42543966072E+01  0.51100000000E-03 0. -1.
        -11    1    3    3    0    0 -0.61339851290E+01  0.28179881147E+01 -0.92527410643E+01  0.11453385877E+02  0.51100000000E-03 0.  1.
        -12    1    3    3    0    0  0.18648133704E+01 -0.56748598267E+01 -0.31518464280E+02  0.32079512988E+02  0.00000000000E+00 0.  1.
</event>
<event>
 7    1  0.1418970E-010  0.4778726E+02  0.7816164E-02  0.1312668E+00
        -11   -1    0    0    0    0  0.00000000000E+00  0.00000000000E+00  0.45593999997E+02  0.45594000000E+02  0.51100000000E-03 0. -1.
         11   -1    0    0    0    0 -0.00000000000E+00 -0.00000000000E+00 -0.45593999997E+02  0.45594000000E+02  0.51100000000E-03 0.  1.
    9900012    2    1    2    0    0  0.35496874395E+02 -0.42720573750E+01 -0.24603777265E+02  0.47787257820E+02  0.19999939705E+02 0.  0.
         12    1    1    2    0    0 -0.35496874395E+02  0.42720573750E+01  0.24603777265E+02  0.43400742180E+02  0.00000000000E+00 0. -1.
         11    1    3    3    0    0  0.10264781658E+02 -0.32984827487E+01 -0.31182479023E+01  0.11223600187E+02  0.51100000000E-03 0. -1.
        -11    1    3    3    0    0  0.21209887099E+00  0.40238026822E+01 -0.22872773993E+01  0.46333154565E+01  0.51100000000E-03 0.  1.
        -12    1    3    3    0    0  0.25019993867E+02 -0.49973773085E+01 -0.19198251964E+02  0.31930342176E+02  0.00000000000E+00 0.  1.
</event>
<event>
 7    1  0.1418970E-010  0.4778727E+02  0.7816164E-02  0.1312668E+00
        -11   -1    0    0    0    0  0.00000000000E+00  0.00000000000E+00  0.45593999997E+02  0.45594000000E+02  0.51100000000E-03 0. -1.
         11   -1    0    0    0    0 -0.00000000000E+00 -0.00000000000E+00 -0.45593999997E+02  0.45594000000E+02  0.51100000000E-03 0.  1.
    9900012    2    1    2    0    0  0.31962809249E+02 -0.21598693238E+02 -0.19887142923E+02  0.47787272145E+02  0.20000005020E+02 0.  0.
         12    1    1    2    0    0 -0.31962809249E+02  0.21598693238E+02  0.19887142923E+02  0.43400727855E+02  0.00000000000E+00 0. -1.
         11    1    3    3    0    0  0.15580862471E+02 -0.40770800208E+01 -0.24776347021E+01  0.16294923467E+02  0.51100000000E-03 0. -1.
        -11    1    3    3    0    0  0.10371953060E+02 -0.53314575411E+01 -0.38174201019E+01  0.12270882050E+02  0.51100000000E-03 0.  1.
         12    1    3    3    0    0  0.60099937183E+01 -0.12190155676E+02 -0.13592088119E+02  0.19221466628E+02  0.00000000000E+00 0. -1.
</event>
<event>
 7    1  0.1418970E-010  0.4778727E+02  0.7816164E-02  0.1312668E+00
        -11   -1    0    0    0    0  0.00000000000E+00  0.00000000000E+00  0.45593999997E+02  0.45594000000E+02  0.51100000000E-03 0. -1.
         11   -1    0    0    0    0 -0.00000000000E+00 -0.00000000000E+00 -0.45593999997E+02  0.45594000000E+02  0.51100000000E-03 0.  1.
    9900012    2    1    2    0    0 -0.16452670253E+01 -0.43292419544E+02  0.25851039920E+01  0.47787271248E+02  0.20000000927E+02 0.  0.
         12    1    1    2    0    0  0.16452670253E+01  0.43292419544E+02 -0.25851039920E+01  0.43400728752E+02  0.00000000000E+00 0. -1.
         11    1    3    3    0    0 -0.12467125357E+00 -0.11357278291E+02  0.65460464501E+01  0.13109311099E+02  0.51100000000E-03 0. -1.
        -11    1    3    3    0    0 -0.41885938195E+01 -0.30278667152E+02 -0.13548013299E+01  0.30597017658E+02  0.51100000000E-03 0.  1.
        -12    1    3    3    0    0  0.26679980478E+01 -0.16564741011E+01 -0.26061411282E+01  0.40809424905E+01  0.00000000000E+00 0.  1.
</event>
<event>
 7    1  0.1418970E-010  0.4778727E+02  0.7816164E-02  0.1312668E+00
        -11   -1    0    0    0    0  0.00000000000E+00  0.00000000000E+00  0.45593999997E+02  0.45594000000E+02  0.51100000000E-03 0.  1.
         11   -1    0    0    0    0 -0.00000000000E+00 -0.00000000000E+00 -0.45593999997E+02  0.45594000000E+02  0.51100000000E-03 0. -1.
    9900012    2    1    2    0    0  0.16743225203E+02  0.39354056405E+02  0.73855321037E+01  0.47787269244E+02  0.19999991790E+02 0.  0.
         12    1    1    2    0    0 -0.16743225203E+02 -0.39354056405E+02 -0.73855321037E+01  0.43400730756E+02  0.00000000000E+00 0. -1.
         11    1    3    3    0    0  0.18120227152E+02  0.23889989473E+02  0.38532871320E+00  0.29987042327E+02  0.51100000000E-03 0. -1.
        -11    1    3    3    0    0 -0.14225986169E+01  0.66583063126E+01  0.44646769704E+00  0.68232077092E+01  0.51100000000E-03 0.  1.
         12    1    3    3    0    0  0.45596668320E-01  0.88057606196E+01  0.65537356935E+01  0.10977019208E+02  0.00000000000E+00 0. -1.
</event>
<event>
 7    1  0.1418970E-010  0.4778727E+02  0.7816164E-02  0.1312668E+00
        -11   -1    0    0    0    0  0.00000000000E+00  0.00000000000E+00  0.45593999997E+02  0.45594000000E+02  0.51100000000E-03 0. -1.
         11   -1    0    0    0    0 -0.00000000000E+00 -0.00000000000E+00 -0.45593999997E+02  0.45594000000E+02  0.51100000000E-03 0.  1.
    9900012    2    1    2    0    0 -0.12996462334E+02  0.28485142674E+02 -0.30055146389E+02  0.47787271771E+02  0.20000003313E+02 0.  0.
         12    1    1    2    0    0  0.12996462334E+02 -0.28485142674E+02  0.30055146389E+02  0.43400728229E+02  0.00000000000E+00 0. -1.
         11    1    3    3    0    0 -0.15791556475E+01  0.52269868955E+01  0.17532834785E+01  0.57349043394E+01  0.51100000000E-03 0. -1.
        -11    1    3    3    0    0 -0.83586577166E+01  0.13611050412E+02 -0.12612395404E+02  0.20351913183E+02  0.51100000000E-03 0.  1.
        -12    1    3    3    0    0 -0.30586489701E+01  0.96471053664E+01 -0.19196034463E+02  0.21700454249E+02  0.00000000000E+00 0.  1.
</event>
<event>
 7    1  0.1657993E-010  0.4778727E+02  0.7816164E-02  0.1312668E+00
        -11   -1    0    0    0    0  0.00000000000E+00  0.00000000000E+00  0.45593999997E+02  0.45594000000E+02  0.51100000000E-03 0. -1.
         11   -1    0    0    0    0 -0.00000000000E+00 -0.00000000000E+00 -0.45593999997E+02  0.45594000000E+02  0.51100000000E-03 0.  1.
    9900012    2    1    2    0    0  0.17804356068E+02 -0.14489196717E+02 -0.36833287505E+02  0.47787274373E+02  0.20000015176E+02 0.  0.
         12    1    1    2    0    0 -0.17804356068E+02  0.14489196717E+02  0.36833287505E+02  0.43400725627E+02  0.00000000000E+00 0. -1.
         11    1    3    3    0    0  0.91731873167E+01 -0.92396437309E+01 -0.90828684266E+01  0.15875039557E+02  0.51100000000E-03 0. -1.
        -11    1    3    3    0    0  0.75078029339E+01 -0.83420212209E+01 -0.25678700527E+02  0.28024133956E+02  0.51100000000E-03 0.  1.
         12    1    3    3    0    0  0.11233658177E+01  0.30924682346E+01 -0.20717185512E+01  0.38881008600E+01  0.00000000000E+00 0. -1.
</event>
<event>
 7    1  0.1418970E-010  0.4778727E+02  0.7816164E-02  0.1312668E+00
        -11   -1    0    0    0    0  0.00000000000E+00  0.00000000000E+00  0.45593999997E+02  0.45594000000E+02  0.51100000000E-03 0. -1.
         11   -1    0    0    0    0 -0.00000000000E+00 -0.00000000000E+00 -0.45593999997E+02  0.45594000000E+02  0.51100000000E-03 0.  1.
    9900012    2    1    2    0    0  0.20809574899E+02  0.22458268938E+02 -0.30760538885E+02  0.47787274157E+02  0.20000014193E+02 0.  0.
         12    1    1    2    0    0 -0.20809574899E+02 -0.22458268938E+02  0.30760538885E+02  0.43400725843E+02  0.00000000000E+00 0. -1.
         11    1    3    3    0    0 -0.22510284058E+01  0.83322493485E+01 -0.54133731623E+01  0.10188136107E+02  0.51100000000E-03 0. -1.
        -11    1    3    3    0    0  0.67577070617E+01  0.10820848719E+01 -0.72337523194E+01  0.99581466790E+01  0.51100000000E-03 0.  1.
        -12    1    3    3    0    0  0.16302896243E+02  0.13043934718E+02 -0.18113413403E+02  0.27640991371E+02  0.00000000000E+00 0.  1.
</event>
<event>
 7    1  0.1418970E-010  0.4778727E+02  0.7816164E-02  0.1312668E+00
        -11   -1    0    0    0    0  0.00000000000E+00  0.00000000000E+00  0.45593999997E+02  0.45594000000E+02  0.51100000000E-03 0.  1.
         11   -1    0    0    0    0 -0.00000000000E+00 -0.00000000000E+00 -0.45593999997E+02  0.45594000000E+02  0.51100000000E-03 0. -1.
    9900012    2    1    2    0    0  0.22301738058E+02 -0.32972178482E+02  0.17294253031E+02  0.47787271180E+02  0.20000000616E+02 0.  0.
         12    1    1    2    0    0 -0.22301738058E+02  0.32972178482E+02 -0.17294253031E+02  0.43400728820E+02  0.00000000000E+00 0. -1.
         11    1    3    3    0    0  0.90308546283E+01 -0.16800339137E+02  0.56770156779E+01  0.19900659228E+02  0.51100000000E-03 0.  1.
        -11    1    3    3    0    0  0.54750089158E+01  0.15704618086E+01  0.44357581538E+01  0.72192813756E+01  0.51100000000E-03 0. -1.
         12    1    3    3    0    0  0.77958745138E+01 -0.17742301153E+02  0.71814791998E+01  0.20667330576E+02  0.00000000000E+00 0. -1.
</event>
<event>
 7    1  0.1418970E-010  0.4778727E+02  0.7816164E-02  0.1312668E+00
        -11   -1    0    0    0    0  0.00000000000E+00  0.00000000000E+00  0.45593999997E+02  0.45594000000E+02  0.51100000000E-03 0.  1.
         11   -1    0    0    0    0 -0.00000000000E+00 -0.00000000000E+00 -0.45593999997E+02  0.45594000000E+02  0.51100000000E-03 0. -1.
    9900012    2    1    2    0    0  0.42471565641E+02  0.17567364885E+01  0.87580440665E+01  0.47787270203E+02  0.19999996162E+02 0.  0.
         12    1    1    2    0    0 -0.42471565641E+02 -0.17567364885E+01 -0.87580440665E+01  0.43400729797E+02  0.00000000000E+00 0. -1.
         11    1    3    3    0    0 -0.14865751310E+01 -0.21776011972E+00  0.15570894984E+01  0.21637590108E+01  0.51100000000E-03 0. -1.
        -11    1    3    3    0    0  0.20570881354E+02  0.58746345376E+00  0.82507973865E+01  0.22171647002E+02  0.51100000000E-03 0.  1.
        -12    1    3    3    0    0  0.23387259417E+02  0.13870331545E+01 -0.10498428184E+01  0.23451864190E+02  0.00000000000E+00 0.  1.
</event>
<event>
 7    1  0.1418970E-010  0.4778728E+02  0.7816164E-02  0.1312668E+00
        -11   -1    0    0    0    0  0.00000000000E+00  0.00000000000E+00  0.45593999997E+02  0.45594000000E+02  0.51100000000E-03 0.  1.
         11   -1    0    0    0    0 -0.00000000000E+00 -0.00000000000E+00 -0.45593999997E+02  0.45594000000E+02  0.51100000000E-03 0. -1.
    9900012    2    1    2    0    0  0.25923516585E+02  0.69692904896E+01  0.34103124333E+02  0.47787276373E+02  0.20000024295E+02 0.  0.
         12    1    1    2    0    0 -0.25923516585E+02 -0.69692904896E+01 -0.34103124333E+02  0.43400723627E+02  0.00000000000E+00 0. -1.
         11    1    3    3    0    0  0.11503702854E+02  0.90828702843E+01  0.19481503192E+02  0.24379554525E+02  0.51100000000E-03 0. -1.
        -11    1    3    3    0    0 -0.32135963750E+00 -0.27484408246E+01  0.52316391485E+01  0.59183821627E+01  0.51100000000E-03 0.  1.
        -12    1    3    3    0    0  0.14741173368E+02  0.63486102984E+00  0.93899819925E+01  0.17489339685E+02  0.00000000000E+00 0.  1.
</event>
<event>
 7    1  0.1418970E-010  0.4778727E+02  0.7816164E-02  0.1312668E+00
        -11   -1    0    0    0    0  0.00000000000E+00  0.00000000000E+00  0.45593999997E+02  0.45594000000E+02  0.51100000000E-03 0.  1.
         11   -1    0    0    0    0 -0.00000000000E+00 -0.00000000000E+00 -0.45593999997E+02  0.45594000000E+02  0.51100000000E-03 0. -1.
    9900012    2    1    2    0    0 -0.23775908901E+02 -0.29978038010E+02  0.20485272312E+02  0.47787274330E+02  0.20000014981E+02 0.  0.
         12    1    1    2    0    0  0.23775908901E+02  0.29978038010E+02 -0.20485272312E+02  0.43400725670E+02  0.00000000000E+00 0. -1.
         11    1    3    3    0    0 -0.26607676258E+01 -0.59018463683E+01  0.92893906297E+01  0.11322731713E+02  0.51100000000E-03 0. -1.
        -11    1    3    3    0    0  0.59236194069E+00 -0.68380224370E+01  0.34567706274E+01  0.76849662946E+01  0.51100000000E-03 0.  1.
         12    1    3    3    0    0 -0.21707503216E+02 -0.17238169204E+02  0.77391110547E+01  0.28779576322E+02  0.00000000000E+00 0. -1.
</event>
<event>
 7    1  0.1418970E-010  0.4778727E+02  0.7816164E-02  0.1312668E+00
        -11   -1    0    0    0    0  0.00000000000E+00  0.00000000000E+00  0.45593999997E+02  0.45594000000E+02  0.51100000000E-03 0.  1.
         11   -1    0    0    0    0 -0.00000000000E+00 -0.00000000000E+00 -0.45593999997E+02  0.45594000000E+02  0.51100000000E-03 0. -1.
    9900012    2    1    2    0    0 -0.29232617926E+02 -0.15633129333E+02  0.28012182403E+02  0.47787273664E+02  0.20000011942E+02 0.  0.
         12    1    1    2    0    0  0.29232617926E+02  0.15633129333E+02 -0.28012182403E+02  0.43400726336E+02  0.00000000000E+00 0. -1.
         11    1    3    3    0    0 -0.65724346142E+01 -0.10005778091E+01 -0.36595561602E+00  0.66582262266E+01  0.51100000000E-03 0. -1.
        -11    1    3    3    0    0 -0.29372268368E+01 -0.86097767707E+01  0.75918453594E+01  0.11848699243E+02  0.51100000000E-03 0.  1.
         12    1    3    3    0    0 -0.19722956474E+02 -0.60227747534E+01  0.20786292660E+02  0.29280348194E+02  0.00000000000E+00 0. -1.
</event>
<event>
 7    1  0.1418970E-010  0.4778727E+02  0.7816164E-02  0.1312668E+00
        -11   -1    0    0    0    0  0.00000000000E+00  0.00000000000E+00  0.45593999997E+02  0.45594000000E+02  0.51100000000E-03 0.  1.
         11   -1    0    0    0    0 -0.00000000000E+00 -0.00000000000E+00 -0.45593999997E+02  0.45594000000E+02  0.51100000000E-03 0. -1.
    9900012    2    1    2    0    0 -0.21146277643E+02 -0.27506609996E+02  0.26073825312E+02  0.47787273993E+02  0.20000013442E+02 0.  0.
         12    1    1    2    0    0  0.21146277643E+02  0.27506609996E+02 -0.26073825312E+02  0.43400726007E+02  0.00000000000E+00 0. -1.
         11    1    3    3    0    0 -0.89141290966E+01 -0.71567533769E+01  0.18499897999E+02  0.21746885816E+02  0.51100000000E-03 0.  1.
        -11    1    3    3    0    0 -0.61925155875E+01 -0.58673026540E+01 -0.19096361233E+00  0.85328164809E+01  0.51100000000E-03 0. -1.
        -12    1    3    3    0    0 -0.60396329584E+01 -0.14482553965E+02  0.77648909250E+01  0.17507571696E+02  0.00000000000E+00 0.  1.
</event>
<event>
 7    1  0.1418970E-010  0.4778727E+02  0.7816164E-02  0.1312668E+00
        -11   -1    0    0    0    0  0.00000000000E+00  0.00000000000E+00  0.45593999997E+02  0.45594000000E+02  0.51100000000E-03 0.  1.
         11   -1    0    0    0    0 -0.00000000000E+00 -0.00000000000E+00 -0.45593999997E+02  0.45594000000E+02  0.51100000000E-03 0. -1.
    9900012    2    1    2    0    0  0.21327932904E+02 -0.91328133635E+01  0.36678805507E+02  0.47787265268E+02  0.19999973661E+02 0.  0.
         12    1    1    2    0    0 -0.21327932904E+02  0.91328133635E+01 -0.36678805507E+02  0.43400734732E+02  0.00000000000E+00 0. -1.
         11    1    3    3    0    0 -0.18173949871E+01  0.46846470434E+00  0.81857613901E+01  0.83981589361E+01  0.51100000000E-03 0. -1.
        -11    1    3    3    0    0  0.18200582149E+02 -0.27450495709E+01  0.22271058991E+02  0.28892846113E+02  0.51100000000E-03 0.  1.
        -12    1    3    3    0    0  0.49447457426E+01 -0.68562284970E+01  0.62219851262E+01  0.10496260218E+02  0.00000000000E+00 0.  1.
</event>
<event>
 7    1  0.1418970E-010  0.4778727E+02  0.7816164E-02  0.1312668E+00
        -11   -1    0    0    0    0  0.00000000000E+00  0.00000000000E+00  0.45593999997E+02  0.45594000000E+02  0.51100000000E-03 0.  1.
         11   -1    0    0    0    0 -0.00000000000E+00 -0.00000000000E+00 -0.45593999997E+02  0.45594000000E+02  0.51100000000E-03 0. -1.
    9900012    2    1    2    0    0  0.12069175386E+02 -0.39689559235E+02  0.12755284317E+02  0.47787269767E+02  0.19999994175E+02 0.  0.
         12    1    1    2    0    0 -0.12069175386E+02  0.39689559235E+02 -0.12755284317E+02  0.43400730233E+02  0.00000000000E+00 0. -1.
         11    1    3    3    0    0 -0.31116419993E+01 -0.13965902427E+02  0.70923273671E+00  0.14325912113E+02  0.51100000000E-03 0. -1.
        -11    1    3    3    0    0  0.38884932557E+01 -0.13918201342E+02  0.84267193652E+01  0.16728607471E+02  0.51100000000E-03 0.  1.
        -12    1    3    3    0    0  0.11292324129E+02 -0.11805455466E+02  0.36193322148E+01  0.16732750183E+02  0.00000000000E+00 0.  1.
</event>
<event>
 7    1  0.1418970E-010  0.4778727E+02  0.7816164E-02  0.1312668E+00
        -11   -1    0    0    0    0  0.00000000000E+00  0.00000000000E+00  0.45593999997E+02  0.45594000000E+02  0.51100000000E-03 0. -1.
         11   -1    0    0    0    0 -0.00000000000E+00 -0.00000000000E+00 -0.45593999997E+02  0.45594000000E+02  0.51100000000E-03 0.  1.
    9900012    2    1    2    0    0 -0.84168352927E+01  0.25776029183E+02 -0.33887702817E+02  0.47787271907E+02  0.20000003934E+02 0.  0.
         12    1    1    2    0    0  0.84168352927E+01 -0.25776029183E+02  0.33887702817E+02  0.43400728093E+02  0.00000000000E+00 0. -1.
         11    1    3    3    0    0 -0.19909175675E+01  0.11790826937E+02 -0.67739729380E+01  0.13743146010E+02  0.51100000000E-03 0. -1.
        -11    1    3    3    0    0  0.23054978390E+01 -0.15087021309E+01 -0.44727241719E+01  0.52532622421E+01  0.51100000000E-03 0.  1.
        -12    1    3    3    0    0 -0.87314155641E+01  0.15493904377E+02 -0.22641005707E+02  0.28790863655E+02  0.00000000000E+00 0.  1.
</event>
<event>
 7    1  0.1418970E-010  0.4778727E+02  0.7816164E-02  0.1312668E+00
        -11   -1    0    0    0    0  0.00000000000E+00  0.00000000000E+00  0.45593999997E+02  0.45594000000E+02  0.51100000000E-03 0.  1.
         11   -1    0    0    0    0 -0.00000000000E+00 -0.00000000000E+00 -0.45593999997E+02  0.45594000000E+02  0.51100000000E-03 0. -1.
    9900012    2    1    2    0    0 -0.25539233765E+02  0.24241620221E+02  0.25371526830E+02  0.47787274362E+02  0.20000015126E+02 0.  0.
         12    1    1    2    0    0  0.25539233765E+02 -0.24241620221E+02 -0.25371526830E+02  0.43400725638E+02  0.00000000000E+00 0. -1.
         11    1    3    3    0    0 -0.19728131632E+01 -0.22461568570E+01  0.48205822789E+01  0.56723210569E+01  0.51100000000E-03 0. -1.
        -11    1    3    3    0    0 -0.56949949731E+01  0.11115360076E+02  0.11129387838E+02  0.16728642243E+02  0.51100000000E-03 0.  1.
        -12    1    3    3    0    0 -0.17871425628E+02  0.15372417002E+02  0.94215567129E+01  0.25386311063E+02  0.00000000000E+00 0.  1.
</event>
<event>
 7    1  0.1418970E-010  0.4778727E+02  0.7816164E-02  0.1312668E+00
        -11   -1    0    0    0    0  0.00000000000E+00  0.00000000000E+00  0.45593999997E+02  0.45594000000E+02  0.51100000000E-03 0. -1.
         11   -1    0    0    0    0 -0.00000000000E+00 -0.00000000000E+00 -0.45593999997E+02  0.45594000000E+02  0.51100000000E-03 0.  1.
    9900012    2    1    2    0    0  0.13895040735E+02 -0.31889231463E+02 -0.25954346173E+02  0.47787270449E+02  0.19999997284E+02 0.  0.
         12    1    1    2    0    0 -0.13895040735E+02  0.31889231463E+02  0.25954346173E+02  0.43400729551E+02  0.00000000000E+00 0. -1.
         11    1    3    3    0    0  0.73022316792E+01 -0.20879355679E+01 -0.10625139380E+02  0.13060461306E+02  0.51100000000E-03 0. -1.
        -11    1    3    3    0    0  0.69516832292E+00 -0.66840756201E+01 -0.73707300640E+00  0.67604291854E+01  0.51100000000E-03 0.  1.
        -12    1    3    3    0    0  0.58976407326E+01 -0.23117220275E+02 -0.14592133787E+02  0.27966379957E+02  0.00000000000E+00 0.  1.
</event>
<event>
 7    1  0.1418970E-010  0.4778727E+02  0.7816164E-02  0.1312668E+00
        -11   -1    0    0    0    0  0.00000000000E+00  0.00000000000E+00  0.45593999997E+02  0.45594000000E+02  0.51100000000E-03 0. -1.
         11   -1    0    0    0    0 -0.00000000000E+00 -0.00000000000E+00 -0.45593999997E+02  0.45594000000E+02  0.51100000000E-03 0.  1.
    9900012    2    1    2    0    0 -0.46924087783E+01 -0.42180664369E+02 -0.90772326604E+01  0.47787270749E+02  0.19999998654E+02 0.  0.
         12    1    1    2    0    0  0.46924087783E+01  0.42180664369E+02  0.90772326604E+01  0.43400729251E+02  0.00000000000E+00 0. -1.
         11    1    3    3    0    0  0.24284571110E+01 -0.74597438131E+00  0.20245458426E+00  0.25485034505E+01  0.51100000000E-03 0. -1.
        -11    1    3    3    0    0 -0.47322719244E+01 -0.33360116240E+01 -0.31023163405E+01  0.65686937864E+01  0.51100000000E-03 0.  1.
        -12    1    3    3    0    0 -0.23885939649E+01 -0.38098678363E+02 -0.61773709042E+01  0.38670073512E+02  0.00000000000E+00 0.  1.
</event>
<event>
 7    1  0.1418970E-010  0.4778727E+02  0.7816164E-02  0.1312668E+00
        -11   -1    0    0    0    0  0.00000000000E+00  0.00000000000E+00  0.45593999997E+02  0.45594000000E+02  0.51100000000E-03 0.  1.
         11   -1    0    0    0    0 -0.00000000000E+00 -0.00000000000E+00 -0.45593999997E+02  0.45594000000E+02  0.51100000000E-03 0. -1.
    9900012    2    1    2    0    0 -0.22972003195E+02  0.34092165860E+02 -0.13915270073E+02  0.47787269072E+02  0.19999991009E+02 0.  0.
         12    1    1    2    0    0  0.22972003195E+02 -0.34092165860E+02  0.13915270073E+02  0.43400730928E+02  0.00000000000E+00 0. -1.
         11    1    3    3    0    0 -0.28991988046E+00 -0.80830430401E+00 -0.25345514760E+01  0.26760719031E+01  0.51100000000E-03 0.  1.
        -11    1    3    3    0    0 -0.47247724874E+01  0.18100514901E+02 -0.20878382618E+01  0.18823155517E+02  0.51100000000E-03 0. -1.
        -12    1    3    3    0    0 -0.17957310827E+02  0.16799955263E+02 -0.92928803352E+01  0.26288041652E+02  0.00000000000E+00 0.  1.
</event>
<event>
 7    1  0.1418970E-010  0.4778728E+02  0.7816164E-02  0.1312668E+00
        -11   -1    0    0    0    0  0.00000000000E+00  0.00000000000E+00  0.45593999997E+02  0.45594000000E+02  0.51100000000E-03 0. -1.
         11   -1    0    0    0    0 -0.00000000000E+00 -0.00000000000E+00 -0.45593999997E+02  0.45594000000E+02  0.51100000000E-03 0.  1.
    9900012    2    1    2    0    0 -0.22311511941E+02 -0.25574188535E+02 -0.27051431235E+02  0.47787278621E+02  0.20000034546E+02 0.  0.
         12    1    1    2    0    0  0.22311511941E+02  0.25574188535E+02  0.27051431235E+02  0.43400721379E+02  0.00000000000E+00 0. -1.
         11    1    3    3    0    0 -0.24610445626E+01 -0.33634950439E+01  0.19707801982E+01  0.46101859073E+01  0.51100000000E-03 0. -1.
        -11    1    3    3    0    0 -0.15402259213E+02 -0.12254515940E+02 -0.12287788221E+02  0.23203286177E+02  0.51100000000E-03 0.  1.
        -12    1    3    3    0    0 -0.44482081654E+01 -0.99561775503E+01 -0.16734423213E+02  0.19973806537E+02  0.00000000000E+00 0.  1.
</event>
<event>
 7    1  0.1418970E-010  0.4778727E+02  0.7816164E-02  0.1312668E+00
        -11   -1    0    0    0    0  0.00000000000E+00  0.00000000000E+00  0.45593999997E+02  0.45594000000E+02  0.51100000000E-03 0.  1.
         11   -1    0    0    0    0 -0.00000000000E+00 -0.00000000000E+00 -0.45593999997E+02  0.45594000000E+02  0.51100000000E-03 0. -1.
    9900012    2    1    2    0    0 -0.17025800039E+02 -0.30576715137E+02  0.25667292959E+02  0.47787270705E+02  0.19999998451E+02 0.  0.
         12    1    1    2    0    0  0.17025800039E+02  0.30576715137E+02 -0.25667292959E+02  0.43400729295E+02  0.00000000000E+00 0. -1.
         11    1    3    3    0    0 -0.46413756335E+01 -0.17087911125E+01  0.74964025724E+01  0.89810014267E+01  0.51100000000E-03 0. -1.
        -11    1    3    3    0    0 -0.89632791126E+01 -0.62469959401E+01  0.90128162458E+01  0.14163198356E+02  0.51100000000E-03 0.  1.
         12    1    3    3    0    0 -0.34211452927E+01 -0.22620928084E+02  0.91580741405E+01  0.24643070922E+02  0.00000000000E+00 0. -1.
</event>
<event>
 7    1  0.1418970E-010  0.4778727E+02  0.7816164E-02  0.1312668E+00
        -11   -1    0    0    0    0  0.00000000000E+00  0.00000000000E+00  0.45593999997E+02  0.45594000000E+02  0.51100000000E-03 0.  1.
         11   -1    0    0    0    0 -0.00000000000E+00 -0.00000000000E+00 -0.45593999997E+02  0.45594000000E+02  0.51100000000E-03 0. -1.
    9900012    2    1    2    0    0  0.41297293310E+02 -0.10142089336E+02  0.86772614438E+01  0.47787271008E+02  0.19999999834E+02 0.  0.
         12    1    1    2    0    0 -0.41297293310E+02  0.10142089336E+02 -0.86772614438E+01  0.43400728992E+02  0.00000000000E+00 0. -1.
         11    1    3    3    0    0  0.61392366525E+01 -0.38579597088E+01  0.42526187793E+01  0.84058816631E+01  0.51100000000E-03 0. -1.
        -11    1    3    3    0    0  0.19736304565E+02  0.30309608174E+01 -0.24085061549E+01  0.20112417644E+02  0.51100000000E-03 0.  1.
        -12    1    3    3    0    0  0.15421752093E+02 -0.93150904442E+01  0.68331488193E+01  0.19268971701E+02  0.00000000000E+00 0.  1.
</event>
<event>
 7    1  0.1418970E-010  0.4778728E+02  0.7816164E-02  0.1312668E+00
        -11   -1    0    0    0    0  0.00000000000E+00  0.00000000000E+00  0.45593999997E+02  0.45594000000E+02  0.51100000000E-03 0. -1.
         11   -1    0    0    0    0 -0.00000000000E+00 -0.00000000000E+00 -0.45593999997E+02  0.45594000000E+02  0.51100000000E-03 0.  1.
    9900012    2    1    2    0    0  0.15191956961E+02  0.26569235045E+02 -0.30771778260E+02  0.47787284056E+02  0.20000059324E+02 0.  0.
         12    1    1    2    0    0 -0.15191956961E+02 -0.26569235045E+02  0.30771778260E+02  0.43400715944E+02  0.00000000000E+00 0. -1.
         11    1    3    3    0    0  0.11266664686E+02  0.14428408265E+02 -0.79251871722E+01  0.19948064823E+02  0.51100000000E-03 0. -1.
        -11    1    3    3    0    0  0.45994723433E+01  0.52133651509E+01 -0.46688336011E+01  0.83745047309E+01  0.51100000000E-03 0.  1.
        -12    1    3    3    0    0 -0.67418006833E+00  0.69274616290E+01 -0.18177757487E+02  0.19464714502E+02  0.00000000000E+00 0.  1.
</event>
<event>
 7    1  0.1418970E-010  0.4778727E+02  0.7816164E-02  0.1312668E+00
        -11   -1    0    0    0    0  0.00000000000E+00  0.00000000000E+00  0.45593999997E+02  0.45594000000E+02  0.51100000000E-03 0. -1.
         11   -1    0    0    0    0 -0.00000000000E+00 -0.00000000000E+00 -0.45593999997E+02  0.45594000000E+02  0.51100000000E-03 0.  1.
    9900012    2    1    2    0    0  0.43239136887E+02  0.34284721056E+01 -0.14986238831E+01  0.47787271282E+02  0.20000001085E+02 0.  0.
         12    1    1    2    0    0 -0.43239136887E+02 -0.34284721056E+01  0.14986238831E+01  0.43400728718E+02  0.00000000000E+00 0. -1.
         11    1    3    3    0    0  0.14287328612E+02 -0.64001973031E+00 -0.21102319720E+01  0.14456502459E+02  0.51100000000E-03 0.  1.
        -11    1    3    3    0    0  0.24841787837E+01  0.53554523764E+01 -0.29396538928E+01  0.65949662361E+01  0.51100000000E-03 0. -1.
         12    1    3    3    0    0  0.26467629491E+02 -0.12869605405E+01  0.35512619817E+01  0.26735802587E+02  0.00000000000E+00 0. -1.
</event>
<event>
 7    1  0.1418970E-010  0.4778726E+02  0.7816164E-02  0.1312668E+00
        -11   -1    0    0    0    0  0.00000000000E+00  0.00000000000E+00  0.45593999997E+02  0.45594000000E+02  0.51100000000E-03 0.  1.
         11   -1    0    0    0    0 -0.00000000000E+00 -0.00000000000E+00 -0.45593999997E+02  0.45594000000E+02  0.51100000000E-03 0. -1.
    9900012    2    1    2    0    0 -0.30136382004E+02  0.20327977355E+02  0.23710678450E+02  0.47787257423E+02  0.19999937896E+02 0.  0.
         12    1    1    2    0    0  0.30136382004E+02 -0.20327977355E+02 -0.23710678450E+02  0.43400742577E+02  0.00000000000E+00 0. -1.
         11    1    3    3    0    0 -0.20346408952E+02  0.59331141929E+01  0.14057459586E+02  0.25432073678E+02  0.51100000000E-03 0.  1.
        -11    1    3    3    0    0 -0.11097913644E+02  0.81164493880E+01  0.64704177493E+01  0.15195615948E+02  0.51100000000E-03 0. -1.
         12    1    3    3    0    0  0.13079405926E+01  0.62784137738E+01  0.31828011147E+01  0.71595677974E+01  0.00000000000E+00 0. -1.
</event>
<event>
 7    1  0.1418970E-010  0.4778726E+02  0.7816164E-02  0.1312668E+00
        -11   -1    0    0    0    0  0.00000000000E+00  0.00000000000E+00  0.45593999997E+02  0.45594000000E+02  0.51100000000E-03 0.  1.
         11   -1    0    0    0    0 -0.00000000000E+00 -0.00000000000E+00 -0.45593999997E+02  0.45594000000E+02  0.51100000000E-03 0. -1.
    9900012    2    1    2    0    0 -0.42560970840E+02 -0.82386519770E+01 -0.20766220820E+01  0.47787262858E+02  0.19999962673E+02 0.  0.
         12    1    1    2    0    0  0.42560970840E+02  0.82386519770E+01  0.20766220820E+01  0.43400737142E+02  0.00000000000E+00 0. -1.
         11    1    3    3    0    0 -0.45383592481E+01 -0.12460021849E+01  0.23503742894E+01  0.52605594447E+01  0.51100000000E-03 0. -1.
        -11    1    3    3    0    0 -0.34025534652E+02 -0.45681624166E+00 -0.76965305416E+00  0.34037303882E+02  0.51100000000E-03 0.  1.
         12    1    3    3    0    0 -0.39970769394E+01 -0.65358335504E+01 -0.36573433172E+01  0.84893995311E+01  0.00000000000E+00 0. -1.
</event>
<event>
 7    1  0.1418970E-010  0.4778727E+02  0.7816164E-02  0.1312668E+00
        -11   -1    0    0    0    0  0.00000000000E+00  0.00000000000E+00  0.45593999997E+02  0.45594000000E+02  0.51100000000E-03 0.  1.
         11   -1    0    0    0    0 -0.00000000000E+00 -0.00000000000E+00 -0.45593999997E+02  0.45594000000E+02  0.51100000000E-03 0. -1.
    9900012    2    1    2    0    0  0.11852828648E+02 -0.32967298593E+02  0.25618185959E+02  0.47787265268E+02  0.19999973662E+02 0.  0.
         12    1    1    2    0    0 -0.11852828648E+02  0.32967298593E+02 -0.25618185959E+02  0.43400734732E+02  0.00000000000E+00 0. -1.
         11    1    3    3    0    0 -0.87725416095E+00 -0.70180927611E+01 -0.17415223304E+01  0.72839619133E+01  0.51100000000E-03 0. -1.
        -11    1    3    3    0    0  0.68896597565E+01 -0.19727832365E+02  0.16120564890E+02  0.26391805433E+02  0.51100000000E-03 0.  1.
        -12    1    3    3    0    0  0.58404230522E+01 -0.62213734672E+01  0.11239143399E+02  0.14111497921E+02  0.00000000000E+00 0.  1.
</event>
<event>
 7    1  0.1418970E-010  0.4778727E+02  0.7816164E-02  0.1312668E+00
        -11   -1    0    0    0    0  0.00000000000E+00  0.00000000000E+00  0.45593999997E+02  0.45594000000E+02  0.51100000000E-03 0. -1.
         11   -1    0    0    0    0 -0.00000000000E+00 -0.00000000000E+00 -0.45593999997E+02  0.45594000000E+02  0.51100000000E-03 0.  1.
    9900012    2    1    2    0    0  0.32224299122E+02  0.85488302948E+01 -0.27787318607E+02  0.47787273869E+02  0.20000012879E+02 0.  0.
         12    1    1    2    0    0 -0.32224299122E+02 -0.85488302948E+01  0.27787318607E+02  0.43400726131E+02  0.00000000000E+00 0. -1.
         11    1    3    3    0    0  0.25214909343E+01  0.84064902107E+00  0.10555828999E+01  0.28598711209E+01  0.51100000000E-03 0. -1.
        -11    1    3    3    0    0  0.31054844432E+02  0.60690980035E+01 -0.28823981065E+02  0.42802560647E+02  0.51100000000E-03 0.  1.
        -12    1    3    3    0    0 -0.13520362439E+01  0.16390832702E+01 -0.18920441489E-01  0.21248421011E+01  0.00000000000E+00 0.  1.
</event>
<event>
 7    1  0.1418970E-010  0.4778725E+02  0.7816164E-02  0.1312668E+00
        -11   -1    0    0    0    0  0.00000000000E+00  0.00000000000E+00  0.45593999997E+02  0.45594000000E+02  0.51100000000E-03 0.  1.
         11   -1    0    0    0    0 -0.00000000000E+00 -0.00000000000E+00 -0.45593999997E+02  0.45594000000E+02  0.51100000000E-03 0. -1.
    9900012    2    1    2    0    0  0.95167654933E+01 -0.98171704320E+01  0.41190771488E+02  0.47787247512E+02  0.19999892704E+02 0.  0.
         12    1    1    2    0    0 -0.95167654933E+01  0.98171704320E+01 -0.41190771488E+02  0.43400752488E+02  0.00000000000E+00 0. -1.
         11    1    3    3    0    0 -0.15893833409E+01 -0.24041535857E+01  0.22892414597E+01  0.36805869898E+01  0.51100000000E-03 0. -1.
        -11    1    3    3    0    0  0.12701091972E+02 -0.10676137432E+02  0.35232799735E+02  0.38944162915E+02  0.51100000000E-03 0.  1.
        -12    1    3    3    0    0 -0.15949431379E+01  0.32631205856E+01  0.36687302937E+01  0.51624976065E+01  0.00000000000E+00 0.  1.
</event>
<event>
 7    1  0.1418970E-010  0.4778727E+02  0.7816164E-02  0.1312668E+00
        -11   -1    0    0    0    0  0.00000000000E+00  0.00000000000E+00  0.45593999997E+02  0.45594000000E+02  0.51100000000E-03 0.  1.
         11   -1    0    0    0    0 -0.00000000000E+00 -0.00000000000E+00 -0.45593999997E+02  0.45594000000E+02  0.51100000000E-03 0. -1.
    9900012    2    1    2    0    0 -0.39220864259E+01 -0.43204704549E+02  0.12625325332E+01  0.47787271371E+02  0.20000001490E+02 0.  0.
         12    1    1    2    0    0  0.39220864259E+01  0.43204704549E+02 -0.12625325332E+01  0.43400728629E+02  0.00000000000E+00 0. -1.
         11    1    3    3    0    0 -0.52282924871E+01 -0.12198779378E+02 -0.38355241144E+00  0.13277513825E+02  0.51100000000E-03 0. -1.
        -11    1    3    3    0    0 -0.38076680815E+01 -0.41576422964E+01  0.42425264020E+01  0.70557321532E+01  0.51100000000E-03 0.  1.
         12    1    3    3    0    0  0.51138741427E+01 -0.26848282874E+02 -0.25964414574E+01  0.27454025393E+02  0.00000000000E+00 0. -1.
</event>
<event>
 7    1  0.1418970E-010  0.4778727E+02  0.7816164E-02  0.1312668E+00
        -11   -1    0    0    0    0  0.00000000000E+00  0.00000000000E+00  0.45593999997E+02  0.45594000000E+02  0.51100000000E-03 0. -1.
         11   -1    0    0    0    0 -0.00000000000E+00 -0.00000000000E+00 -0.45593999997E+02  0.45594000000E+02  0.51100000000E-03 0.  1.
    9900012    2    1    2    0    0  0.39717967152E+02  0.16912219921E+02  0.44814350388E+01  0.47787270083E+02  0.19999995617E+02 0.  0.
         12    1    1    2    0    0 -0.39717967152E+02 -0.16912219921E+02 -0.44814350388E+01  0.43400729917E+02  0.00000000000E+00 0. -1.
         11    1    3    3    0    0  0.12253912565E+02  0.44330811118E+01  0.98938869102E+00  0.13068644595E+02  0.51100000000E-03 0. -1.
        -11    1    3    3    0    0  0.29023738619E+02  0.12317068994E+02  0.72422013251E+00  0.31537471159E+02  0.51100000000E-03 0.  1.
         12    1    3    3    0    0 -0.15596840331E+01  0.16206981499E+00  0.27678262153E+01  0.31811543292E+01  0.00000000000E+00 0. -1.
</event>
<event>
 7    1  0.1418970E-010  0.4778727E+02  0.7816164E-02  0.1312668E+00
        -11   -1    0    0    0    0  0.00000000000E+00  0.00000000000E+00  0.45593999997E+02  0.45594000000E+02  0.51100000000E-03 0. -1.
         11   -1    0    0    0    0 -0.00000000000E+00 -0.00000000000E+00 -0.45593999997E+02  0.45594000000E+02  0.51100000000E-03 0.  1.
    9900012    2    1    2    0    0  0.29982090640E+02  0.17833072992E+02 -0.25820135587E+02  0.47787266674E+02  0.19999980075E+02 0.  0.
         12    1    1    2    0    0 -0.29982090640E+02 -0.17833072992E+02  0.25820135587E+02  0.43400733326E+02  0.00000000000E+00 0. -1.
         11    1    3    3    0    0  0.67505657798E+01  0.25786531480E+01 -0.10775591454E+02  0.12974319321E+02  0.51100000000E-03 0. -1.
        -11    1    3    3    0    0  0.13852447371E+01  0.51994872222E+01 -0.82016490538E+01  0.98092108662E+01  0.51100000000E-03 0.  1.
        -12    1    3    3    0    0  0.21846280123E+02  0.10054932622E+02 -0.68428950793E+01  0.25003736487E+02  0.00000000000E+00 0.  1.
</event>
<event>
 7    1  0.2050956E-010  0.4778728E+02  0.7816164E-02  0.1312668E+00
        -11   -1    0    0    0    0  0.00000000000E+00  0.00000000000E+00  0.45593999997E+02  0.45594000000E+02  0.51100000000E-03 0. -1.
         11   -1    0    0    0    0 -0.00000000000E+00 -0.00000000000E+00 -0.45593999997E+02  0.45594000000E+02  0.51100000000E-03 0.  1.
    9900012    2    1    2    0    0  0.28105373919E+02 -0.29955814926E+02 -0.14012826463E+02  0.47787283457E+02  0.20000056593E+02 0.  0.
         12    1    1    2    0    0 -0.28105373919E+02  0.29955814926E+02  0.14012826463E+02  0.43400716543E+02  0.00000000000E+00 0. -1.
         11    1    3    3    0    0  0.35782260447E+01 -0.36601662785E+01 -0.75292228426E+01  0.91043789293E+01  0.51100000000E-03 0. -1.
        -11    1    3    3    0    0  0.20580561672E+02 -0.13576381940E+02 -0.59071685549E+01  0.25352954580E+02  0.51100000000E-03 0.  1.
        -12    1    3    3    0    0  0.39465862015E+01 -0.12719266708E+02 -0.57643506577E+00  0.13329949948E+02  0.00000000000E+00 0.  1.
</event>
<event>
 7    1  0.1418970E-010  0.4778727E+02  0.7816164E-02  0.1312668E+00
        -11   -1    0    0    0    0  0.00000000000E+00  0.00000000000E+00  0.45593999997E+02  0.45594000000E+02  0.51100000000E-03 0.  1.
         11   -1    0    0    0    0 -0.00000000000E+00 -0.00000000000E+00 -0.45593999997E+02  0.45594000000E+02  0.51100000000E-03 0. -1.
    9900012    2    1    2    0    0 -0.85438207928E+01  0.30888807478E+02  0.29266158572E+02  0.47787270298E+02  0.19999996596E+02 0.  0.
         12    1    1    2    0    0  0.85438207928E+01 -0.30888807478E+02 -0.29266158572E+02  0.43400729702E+02  0.00000000000E+00 0. -1.
         11    1    3    3    0    0 -0.32982691736E+00  0.89122985400E+00 -0.12529647512E+01  0.15725766680E+01  0.51100000000E-03 0. -1.
        -11    1    3    3    0    0 -0.74952541590E+00  0.19316381516E+02  0.26049333588E+02  0.32438436520E+02  0.51100000000E-03 0.  1.
        -12    1    3    3    0    0 -0.74644684595E+01  0.10681196108E+02  0.44697897344E+01  0.13776257110E+02  0.00000000000E+00 0.  1.
</event>
<event>
 7    1  0.1418970E-010  0.4778727E+02  0.7816164E-02  0.1312668E+00
        -11   -1    0    0    0    0  0.00000000000E+00  0.00000000000E+00  0.45593999997E+02  0.45594000000E+02  0.51100000000E-03 0.  1.
         11   -1    0    0    0    0 -0.00000000000E+00 -0.00000000000E+00 -0.45593999997E+02  0.45594000000E+02  0.51100000000E-03 0. -1.
    9900012    2    1    2    0    0  0.25937237237E+02 -0.24942107393E+02  0.24264673400E+02  0.47787269915E+02  0.19999994852E+02 0.  0.
         12    1    1    2    0    0 -0.25937237237E+02  0.24942107393E+02 -0.24264673400E+02  0.43400730085E+02  0.00000000000E+00 0. -1.
         11    1    3    3    0    0  0.21042499148E+02 -0.68316121871E+01  0.13595459893E+02  0.25967175923E+02  0.51100000000E-03 0. -1.
        -11    1    3    3    0    0  0.35107737095E+01 -0.82481729415E+01  0.38848351207E+01  0.97698430432E+01  0.51100000000E-03 0.  1.
         12    1    3    3    0    0  0.13839643797E+01 -0.98623222644E+01  0.67843783861E+01  0.12050250949E+02  0.00000000000E+00 0. -1.
</event>
<event>
 7    1  0.1418970E-010  0.4778727E+02  0.7816164E-02  0.1312668E+00
        -11   -1    0    0    0    0  0.00000000000E+00  0.00000000000E+00  0.45593999997E+02  0.45594000000E+02  0.51100000000E-03 0. -1.
         11   -1    0    0    0    0 -0.00000000000E+00 -0.00000000000E+00 -0.45593999997E+02  0.45594000000E+02  0.51100000000E-03 0.  1.
    9900012    2    1    2    0    0 -0.27210634151E+02 -0.26075794720E+02  0.21523412672E+02  0.47787274496E+02  0.20000015739E+02 0.  0.
         12    1    1    2    0    0  0.27210634151E+02  0.26075794720E+02 -0.21523412672E+02  0.43400725504E+02  0.00000000000E+00 0. -1.
         11    1    3    3    0    0 -0.12267149899E+02 -0.83322881443E+01  0.97300646131E+01  0.17736520233E+02  0.51100000000E-03 0. -1.
        -11    1    3    3    0    0  0.18753866151E+01  0.11435809350E+01  0.18649645439E+01  0.28814831810E+01  0.51100000000E-03 0.  1.
         12    1    3    3    0    0 -0.16818870868E+02 -0.18887087511E+02  0.99283835149E+01  0.27169271082E+02  0.00000000000E+00 0. -1.
</event>
<event>
 7    1  0.1418970E-010  0.4778728E+02  0.7816164E-02  0.1312668E+00
        -11   -1    0    0    0    0  0.00000000000E+00  0.00000000000E+00  0.45593999997E+02  0.45594000000E+02  0.51100000000E-03 0. -1.
         11   -1    0    0    0    0 -0.00000000000E+00 -0.00000000000E+00 -0.45593999997E+02  0.45594000000E+02  0.51100000000E-03 0.  1.
    9900012    2    1    2    0    0 -0.36072255011E+02  0.10536897375E+02 -0.21711492082E+02  0.47787277929E+02  0.20000031389E+02 0.  0.
         12    1    1    2    0    0  0.36072255011E+02 -0.10536897375E+02  0.21711492082E+02  0.43400722071E+02  0.00000000000E+00 0. -1.
         11    1    3    3    0    0 -0.39506735692E+01  0.13742621434E-01 -0.33481540939E+01  0.51786240071E+01  0.51100000000E-03 0. -1.
        -11    1    3    3    0    0 -0.20368010144E+02 -0.10474652483E+01 -0.16052210442E+02  0.25954315268E+02  0.51100000000E-03 0.  1.
         12    1    3    3    0    0 -0.11753571298E+02  0.11570620002E+02 -0.23111275458E+01  0.16654338654E+02  0.00000000000E+00 0. -1.
</event>
<event>
 7    1  0.1418970E-010  0.4778726E+02  0.7816164E-02  0.1312668E+00
        -11   -1    0    0    0    0  0.00000000000E+00  0.00000000000E+00  0.45593999997E+02  0.45594000000E+02  0.51100000000E-03 0. -1.
         11   -1    0    0    0    0 -0.00000000000E+00 -0.00000000000E+00 -0.45593999997E+02  0.45594000000E+02  0.51100000000E-03 0.  1.
    9900012    2    1    2    0    0  0.39931432964E+02 -0.12453353729E+02 -0.11576650910E+02  0.47787260330E+02  0.19999951147E+02 0.  0.
         12    1    1    2    0    0 -0.39931432964E+02  0.12453353729E+02  0.11576650910E+02  0.43400739670E+02  0.00000000000E+00 0. -1.
         11    1    3    3    0    0  0.33517086046E+02 -0.16642082947E+02 -0.68091094072E+01  0.38035745727E+02  0.51100000000E-03 0. -1.
        -11    1    3    3    0    0  0.11346502562E+01  0.99096621537E+00 -0.29573926082E+01  0.33189782380E+01  0.51100000000E-03 0.  1.
        -12    1    3    3    0    0  0.52796966618E+01  0.31977630031E+01 -0.18101488948E+01  0.64325363650E+01  0.00000000000E+00 0.  1.
</event>
<event>
 7    1  0.1418970E-010  0.4778726E+02  0.7816164E-02  0.1312668E+00
        -11   -1    0    0    0    0  0.00000000000E+00  0.00000000000E+00  0.45593999997E+02  0.45594000000E+02  0.51100000000E-03 0.  1.
         11   -1    0    0    0    0 -0.00000000000E+00 -0.00000000000E+00 -0.45593999997E+02  0.45594000000E+02  0.51100000000E-03 0. -1.
    9900012    2    1    2    0    0 -0.30220006614E+02  0.31038471943E+02 -0.26435374114E+01  0.47787264634E+02  0.19999970771E+02 0.  0.
         12    1    1    2    0    0  0.30220006614E+02 -0.31038471943E+02  0.26435374114E+01  0.43400735366E+02  0.00000000000E+00 0. -1.
         11    1    3    3    0    0 -0.28545439111E+01  0.11748416845E+01 -0.55630290614E+01  0.63620725022E+01  0.51100000000E-03 0. -1.
        -11    1    3    3    0    0 -0.16715994663E+02  0.17786317812E+02 -0.22543448395E+01  0.24512438675E+02  0.51100000000E-03 0.  1.
        -12    1    3    3    0    0 -0.10649468040E+02  0.12077312446E+02  0.51738364896E+01  0.16912753456E+02  0.00000000000E+00 0.  1.
</event>
<event>
 7    1  0.1418970E-010  0.4778728E+02  0.7816164E-02  0.1312668E+00
        -11   -1    0    0    0    0  0.00000000000E+00  0.00000000000E+00  0.45593999997E+02  0.45594000000E+02  0.51100000000E-03 0. -1.
         11   -1    0    0    0    0 -0.00000000000E+00 -0.00000000000E+00 -0.45593999997E+02  0.45594000000E+02  0.51100000000E-03 0.  1.
    9900012    2    1    2    0    0  0.20383797943E+02  0.70522337937E+01 -0.37661507538E+02  0.47787281456E+02  0.20000047470E+02 0.  0.
         12    1    1    2    0    0 -0.20383797943E+02 -0.70522337937E+01  0.37661507538E+02  0.43400718544E+02  0.00000000000E+00 0. -1.
         11    1    3    3    0    0  0.13342132195E+02 -0.57748528014E+01 -0.16820277464E+02  0.22232479633E+02  0.51100000000E-03 0. -1.
        -11    1    3    3    0    0  0.29190466330E+01  0.39539032769E+01 -0.83345021524E+01  0.96756452373E+01  0.51100000000E-03 0.  1.
        -12    1    3    3    0    0  0.41226191151E+01  0.88731833182E+01 -0.12506727922E+02  0.15879156586E+02  0.00000000000E+00 0.  1.
</event>
<event>
 7    1  0.1418970E-010  0.4778727E+02  0.7816164E-02  0.1312668E+00
        -11   -1    0    0    0    0  0.00000000000E+00  0.00000000000E+00  0.45593999997E+02  0.45594000000E+02  0.51100000000E-03 0. -1.
         11   -1    0    0    0    0 -0.00000000000E+00 -0.00000000000E+00 -0.45593999997E+02  0.45594000000E+02  0.51100000000E-03 0.  1.
    9900012    2    1    2    0    0  0.29239772340E+01 -0.42768789345E+02  0.67752878507E+01  0.47787268320E+02  0.19999987577E+02 0.  0.
         12    1    1    2    0    0 -0.29239772340E+01  0.42768789345E+02 -0.67752878507E+01  0.43400731680E+02  0.00000000000E+00 0. -1.
         11    1    3    3    0    0  0.53495112862E+01 -0.67846098140E+01  0.32961881449E+00  0.86462043784E+01  0.51100000000E-03 0. -1.
        -11    1    3    3    0    0 -0.22671030422E+01 -0.91368815581E+01  0.78487788927E+01  0.12256659054E+02  0.51100000000E-03 0.  1.
        -12    1    3    3    0    0 -0.15843101001E+00 -0.26847297973E+02 -0.14031098565E+01  0.26884404887E+02  0.00000000000E+00 0.  1.
</event>
<event>
 7    1  0.1828903E-010  0.4778727E+02  0.7816164E-02  0.1312668E+00
        -11   -1    0    0    0    0  0.00000000000E+00  0.00000000000E+00  0.45593999997E+02  0.45594000000E+02  0.51100000000E-03 0.  1.
         11   -1    0    0    0    0 -0.00000000000E+00 -0.00000000000E+00 -0.45593999997E+02  0.45594000000E+02  0.51100000000E-03 0. -1.
    9900012    2    1    2    0    0 -0.35993004110E+02 -0.24213485462E+02 -0.13542834115E+01  0.47787270667E+02  0.19999998279E+02 0.  0.
         12    1    1    2    0    0  0.35993004110E+02  0.24213485462E+02  0.13542834115E+01  0.43400729333E+02  0.00000000000E+00 0. -1.
         11    1    3    3    0    0 -0.41435839052E+01 -0.19160037500E+01 -0.50481264722E+01  0.68061691935E+01  0.51100000000E-03 0. -1.
        -11    1    3    3    0    0 -0.14691188943E+02 -0.36004429214E+01  0.38323446976E+01  0.15603880541E+02  0.51100000000E-03 0.  1.
        -12    1    3    3    0    0 -0.17158231262E+02 -0.18697038790E+02 -0.13850163695E+00  0.25377220932E+02  0.00000000000E+00 0.  1.
</event>
<event>
 7    1  0.1418970E-010  0.4778727E+02  0.7816164E-02  0.1312668E+00
        -11   -1    0    0    0    0  0.00000000000E+00  0.00000000000E+00  0.45593999997E+02  0.45594000000E+02  0.51100000000E-03 0.  1.
         11   -1    0    0    0    0 -0.00000000000E+00 -0.00000000000E+00 -0.45593999997E+02  0.45594000000E+02  0.51100000000E-03 0. -1.
    9900012    2    1    2    0    0  0.52358349526E+01 -0.36161381560E+02  0.23421441851E+02  0.47787269334E+02  0.19999992201E+02 0.  0.
         12    1    1    2    0    0 -0.52358349526E+01  0.36161381560E+02 -0.23421441851E+02  0.43400730666E+02  0.00000000000E+00 0. -1.
         11    1    3    3    0    0 -0.46941220255E+00 -0.23700953705E+02  0.82418466887E+01  0.25097481775E+02  0.51100000000E-03 0. -1.
        -11    1    3    3    0    0 -0.25360131418E+01 -0.28059856935E+01  0.57273792294E+01  0.68635115988E+01  0.51100000000E-03 0.  1.
        -12    1    3    3    0    0  0.82412602969E+01 -0.96544421611E+01  0.94522159331E+01  0.15826275960E+02  0.00000000000E+00 0.  1.
</event>
<event>
 7    1  0.1418970E-010  0.4778727E+02  0.7816164E-02  0.1312668E+00
        -11   -1    0    0    0    0  0.00000000000E+00  0.00000000000E+00  0.45593999997E+02  0.45594000000E+02  0.51100000000E-03 0.  1.
         11   -1    0    0    0    0 -0.00000000000E+00 -0.00000000000E+00 -0.45593999997E+02  0.45594000000E+02  0.51100000000E-03 0. -1.
    9900012    2    1    2    0    0 -0.43392005450E+00 -0.34807079489E+02  0.25921071220E+02  0.47787274172E+02  0.20000014260E+02 0.  0.
         12    1    1    2    0    0  0.43392005450E+00  0.34807079489E+02 -0.25921071220E+02  0.43400725828E+02  0.00000000000E+00 0. -1.
         11    1    3    3    0    0  0.20410974648E+01 -0.16530562015E+02  0.20493428922E+02  0.26408449190E+02  0.51100000000E-03 0. -1.
        -11    1    3    3    0    0 -0.16500789355E+01  0.11184133223E+00 -0.93920643508E+00  0.19019405789E+01  0.51100000000E-03 0.  1.
        -12    1    3    3    0    0 -0.82493858377E+00 -0.18388358806E+02  0.63668487335E+01  0.19476884403E+02  0.00000000000E+00 0.  1.
</event>
<event>
 7    1  0.1418970E-010  0.4778724E+02  0.7816164E-02  0.1312668E+00
        -11   -1    0    0    0    0  0.00000000000E+00  0.00000000000E+00  0.45593999997E+02  0.45594000000E+02  0.51100000000E-03 0.  1.
         11   -1    0    0    0    0 -0.00000000000E+00 -0.00000000000E+00 -0.45593999997E+02  0.45594000000E+02  0.51100000000E-03 0. -1.
    9900012    2    1    2    0    0 -0.31548268098E+02  0.28950502948E+02  0.70852724279E+01  0.47787240487E+02  0.19999860676E+02 0.  0.
         12    1    1    2    0    0  0.31548268098E+02 -0.28950502948E+02 -0.70852724279E+01  0.43400759513E+02  0.00000000000E+00 0. -1.
         11    1    3    3    0    0 -0.14189516825E+02  0.24528074523E+02  0.75760525884E+01  0.29331985965E+02  0.51100000000E-03 0. -1.
        -11    1    3    3    0    0 -0.31444963342E+01  0.48064391047E+00 -0.17854947011E+01  0.36478579130E+01  0.51100000000E-03 0.  1.
        -12    1    3    3    0    0 -0.14214254938E+02  0.39417845148E+01  0.12947145406E+01  0.14807396610E+02  0.00000000000E+00 0.  1.
</event>
<event>
 7    1  0.1418970E-010  0.4778726E+02  0.7816164E-02  0.1312668E+00
        -11   -1    0    0    0    0  0.00000000000E+00  0.00000000000E+00  0.45593999997E+02  0.45594000000E+02  0.51100000000E-03 0.  1.
         11   -1    0    0    0    0 -0.00000000000E+00 -0.00000000000E+00 -0.45593999997E+02  0.45594000000E+02  0.51100000000E-03 0. -1.
    9900012    2    1    2    0    0  0.20183414551E+02 -0.25693561785E+01  0.38336046236E+02  0.47787259740E+02  0.19999948460E+02 0.  0.
         12    1    1    2    0    0 -0.20183414551E+02  0.25693561785E+01 -0.38336046236E+02  0.43400740260E+02  0.00000000000E+00 0. -1.
         11    1    3    3    0    0 -0.28291519413E+01 -0.11600189609E+01  0.38266945839E+01  0.48982993371E+01  0.51100000000E-03 0. -1.
        -11    1    3    3    0    0 -0.42718852241E+00 -0.70637924984E+00 -0.33295154057E+00  0.89012283859E+00  0.51100000000E-03 0.  1.
        -12    1    3    3    0    0  0.23439755015E+02 -0.70295796778E+00  0.34842303192E+02  0.41998837565E+02  0.00000000000E+00 0.  1.
</event>
<event>
 7    1  0.1418970E-010  0.4778727E+02  0.7816164E-02  0.1312668E+00
        -11   -1    0    0    0    0  0.00000000000E+00  0.00000000000E+00  0.45593999997E+02  0.45594000000E+02  0.51100000000E-03 0.  1.
         11   -1    0    0    0    0 -0.00000000000E+00 -0.00000000000E+00 -0.45593999997E+02  0.45594000000E+02  0.51100000000E-03 0. -1.
    9900012    2    1    2    0    0 -0.22488172825E+02 -0.30364639916E+02  0.21351675532E+02  0.47787270487E+02  0.19999997459E+02 0.  0.
         12    1    1    2    0    0  0.22488172825E+02  0.30364639916E+02 -0.21351675532E+02  0.43400729513E+02  0.00000000000E+00 0. -1.
         11    1    3    3    0    0 -0.17694338972E+02 -0.14718613011E+02  0.18404137961E+02  0.29469297497E+02  0.51100000000E-03 0. -1.
        -11    1    3    3    0    0 -0.44053237665E+01 -0.77659822816E+01  0.49078845548E+01  0.10188458635E+02  0.51100000000E-03 0.  1.
        -12    1    3    3    0    0 -0.38851008598E+00 -0.78800446235E+01 -0.19603469838E+01  0.81295143552E+01  0.00000000000E+00 0.  1.
</event>
<event>
 7    1  0.1418970E-010  0.4778727E+02  0.7816164E-02  0.1312668E+00
        -11   -1    0    0    0    0  0.00000000000E+00  0.00000000000E+00  0.45593999997E+02  0.45594000000E+02  0.51100000000E-03 0.  1.
         11   -1    0    0    0    0 -0.00000000000E+00 -0.00000000000E+00 -0.45593999997E+02  0.45594000000E+02  0.51100000000E-03 0. -1.
    9900012    2    1    2    0    0 -0.11047368298E+02  0.15049337743E+02  0.39180302420E+02  0.47787274079E+02  0.20000013835E+02 0.  0.
         12    1    1    2    0    0  0.11047368298E+02 -0.15049337743E+02 -0.39180302420E+02  0.43400725921E+02  0.00000000000E+00 0. -1.
         11    1    3    3    0    0 -0.77984723804E+01  0.15424032568E+02  0.39108917441E+02  0.42757740536E+02  0.51100000000E-03 0.  1.
        -11    1    3    3    0    0 -0.46100213483E-01 -0.15691630170E+01  0.32036365088E+00  0.16021956602E+01  0.51100000000E-03 0. -1.
        -12    1    3    3    0    0 -0.32027957038E+01  0.11944681913E+01 -0.24897867183E+00  0.34273378822E+01  0.00000000000E+00 0.  1.
</event>
<event>
 7    1  0.1418970E-010  0.4778727E+02  0.7816164E-02  0.1312668E+00
        -11   -1    0    0    0    0  0.00000000000E+00  0.00000000000E+00  0.45593999997E+02  0.45594000000E+02  0.51100000000E-03 0.  1.
         11   -1    0    0    0    0 -0.00000000000E+00 -0.00000000000E+00 -0.45593999997E+02  0.45594000000E+02  0.51100000000E-03 0. -1.
    9900012    2    1    2    0    0  0.58579568320E+01 -0.39393318242E+02  0.17247433839E+02  0.47787272421E+02  0.20000006277E+02 0.  0.
         12    1    1    2    0    0 -0.58579568320E+01  0.39393318242E+02 -0.17247433839E+02  0.43400727579E+02  0.00000000000E+00 0. -1.
         11    1    3    3    0    0 -0.23190865677E+01 -0.30744196797E+00  0.10367171160E-01  0.23393996691E+01  0.51100000000E-03 0. -1.
        -11    1    3    3    0    0  0.98183034961E+01 -0.17813492675E+02  0.53829758338E+01  0.21040343008E+02  0.51100000000E-03 0.  1.
         12    1    3    3    0    0 -0.16412600964E+01 -0.21272383599E+02  0.11854090834E+02  0.24407529744E+02  0.00000000000E+00 0. -1.
</event>
<event>
 7    1  0.1418970E-010  0.4778729E+02  0.7816164E-02  0.1312668E+00
        -11   -1    0    0    0    0  0.00000000000E+00  0.00000000000E+00  0.45593999997E+02  0.45594000000E+02  0.51100000000E-03 0. -1.
         11   -1    0    0    0    0 -0.00000000000E+00 -0.00000000000E+00 -0.45593999997E+02  0.45594000000E+02  0.51100000000E-03 0.  1.
    9900012    2    1    2    0    0  0.27764129284E+02  0.32624320898E+02 -0.69590246220E+01  0.47787294791E+02  0.20000108268E+02 0.  0.
         12    1    1    2    0    0 -0.27764129284E+02 -0.32624320898E+02  0.69590246220E+01  0.43400705209E+02  0.00000000000E+00 0. -1.
         11    1    3    3    0    0  0.12573592588E+02  0.91003630669E+01  0.42647459243E+00  0.15527192900E+02  0.51100000000E-03 0. -1.
        -11    1    3    3    0    0  0.15355094736E+02  0.17870333422E+02 -0.79393244199E+00  0.23574521839E+02  0.51100000000E-03 0.  1.
         12    1    3    3    0    0 -0.16455803988E+00  0.56536244094E+01 -0.65915667725E+01  0.86855800512E+01  0.00000000000E+00 0. -1.
</event>
<event>
 7    1  0.1418970E-010  0.4778727E+02  0.7816164E-02  0.1312668E+00
        -11   -1    0    0    0    0  0.00000000000E+00  0.00000000000E+00  0.45593999997E+02  0.45594000000E+02  0.51100000000E-03 0.  1.
         11   -1    0    0    0    0 -0.00000000000E+00 -0.00000000000E+00 -0.45593999997E+02  0.45594000000E+02  0.51100000000E-03 0. -1.
    9900012    2    1    2    0    0  0.37924410397E+02  0.19362667063E+02 -0.83934120881E+01  0.47787272515E+02  0.20000006703E+02 0.  0.
         12    1    1    2    0    0 -0.37924410397E+02 -0.19362667063E+02  0.83934120881E+01  0.43400727485E+02  0.00000000000E+00 0. -1.
         11    1    3    3    0    0 -0.10065890772E+00  0.49072870347E+00 -0.38855936236E+01  0.39177525375E+01  0.51100000000E-03 0. -1.
        -11    1    3    3    0    0  0.17288731718E+02  0.14146396864E+02 -0.31297512428E+01  0.22556953069E+02  0.51100000000E-03 0.  1.
        -12    1    3    3    0    0  0.20736337587E+02  0.47255414963E+01 -0.13780672217E+01  0.21312566909E+02  0.00000000000E+00 0.  1.
</event>
<event>
 7    1  0.1418970E-010  0.4778727E+02  0.7816164E-02  0.1312668E+00
        -11   -1    0    0    0    0  0.00000000000E+00  0.00000000000E+00  0.45593999997E+02  0.45594000000E+02  0.51100000000E-03 0.  1.
         11   -1    0    0    0    0 -0.00000000000E+00 -0.00000000000E+00 -0.45593999997E+02  0.45594000000E+02  0.51100000000E-03 0. -1.
    9900012    2    1    2    0    0 -0.42299873508E+02 -0.55168040667E+01  0.79943098424E+01  0.47787269409E+02  0.19999992546E+02 0.  0.
         12    1    1    2    0    0  0.42299873508E+02  0.55168040667E+01 -0.79943098424E+01  0.43400730591E+02  0.00000000000E+00 0. -1.
         11    1    3    3    0    0 -0.12582180671E+02 -0.22025217606E+01  0.24018363591E+01  0.12997353219E+02  0.51100000000E-03 0. -1.
        -11    1    3    3    0    0 -0.31879553535E+02 -0.37832361260E+01  0.55358401005E+01  0.32577052277E+02  0.51100000000E-03 0.  1.
         12    1    3    3    0    0  0.21618606974E+01  0.46895381998E+00  0.56633382757E-01  0.22128639137E+01  0.00000000000E+00 0. -1.
</event>
<event>
 7    1  0.1418970E-010  0.4778727E+02  0.7816164E-02  0.1312668E+00
        -11   -1    0    0    0    0  0.00000000000E+00  0.00000000000E+00  0.45593999997E+02  0.45594000000E+02  0.51100000000E-03 0.  1.
         11   -1    0    0    0    0 -0.00000000000E+00 -0.00000000000E+00 -0.45593999997E+02  0.45594000000E+02  0.51100000000E-03 0. -1.
    9900012    2    1    2    0    0 -0.14166818960E+02  0.22789994235E+02  0.34110714643E+02  0.47787269014E+02  0.19999990743E+02 0.  0.
         12    1    1    2    0    0  0.14166818960E+02 -0.22789994235E+02 -0.34110714643E+02  0.43400730986E+02  0.00000000000E+00 0. -1.
         11    1    3    3    0    0 -0.55690548271E+00 -0.10523973419E+01 -0.68342812442E+00  0.13728649403E+01  0.51100000000E-03 0. -1.
        -11    1    3    3    0    0 -0.25380814225E+01  0.17761935090E+02  0.18170973761E+02  0.25536493164E+02  0.51100000000E-03 0.  1.
         12    1    3    3    0    0 -0.11071832055E+02  0.60804564872E+01  0.16623169006E+02  0.20877910910E+02  0.00000000000E+00 0. -1.
</event>
<event>
 7    1  0.1418970E-010  0.4778727E+02  0.7816164E-02  0.1312668E+00
        -11   -1    0    0    0    0  0.00000000000E+00  0.00000000000E+00  0.45593999997E+02  0.45594000000E+02  0.51100000000E-03 0.  1.
         11   -1    0    0    0    0 -0.00000000000E+00 -0.00000000000E+00 -0.45593999997E+02  0.45594000000E+02  0.51100000000E-03 0. -1.
    9900012    2    1    2    0    0 -0.48855812811E+01  0.43030822183E+02 -0.28465257237E+01  0.47787271079E+02  0.20000000156E+02 0.  0.
         12    1    1    2    0    0  0.48855812811E+01 -0.43030822183E+02  0.28465257237E+01  0.43400728921E+02  0.00000000000E+00 0. -1.
         11    1    3    3    0    0 -0.49616536841E+01  0.51313706964E+01 -0.32960766577E+01  0.78621303792E+01  0.51100000000E-03 0. -1.
        -11    1    3    3    0    0  0.18087320271E+01  0.28552997562E+02 -0.48859190432E+01  0.29024427410E+02  0.51100000000E-03 0.  1.
        -12    1    3    3    0    0 -0.17326596241E+01  0.93464539247E+01  0.53354699772E+01  0.10900713289E+02  0.00000000000E+00 0.  1.
</event>
<event>
 7    1  0.1418970E-010  0.4778727E+02  0.7816164E-02  0.1312668E+00
        -11   -1    0    0    0    0  0.00000000000E+00  0.00000000000E+00  0.45593999997E+02  0.45594000000E+02  0.51100000000E-03 0.  1.
         11   -1    0    0    0    0 -0.00000000000E+00 -0.00000000000E+00 -0.45593999997E+02  0.45594000000E+02  0.51100000000E-03 0. -1.
    9900012    2    1    2    0    0  0.24419647257E+02  0.12265313082E+01  0.35858052836E+02  0.47787268389E+02  0.19999987891E+02 0.  0.
         12    1    1    2    0    0 -0.24419647257E+02 -0.12265313082E+01 -0.35858052836E+02  0.43400731611E+02  0.00000000000E+00 0. -1.
         11    1    3    3    0    0 -0.11034528291E+01  0.29420939018E+00  0.20354961210E+00  0.11600000073E+01  0.51100000000E-03 0. -1.
        -11    1    3    3    0    0  0.22877643480E+02 -0.31953496404E+01  0.21161168740E+02  0.31327174996E+02  0.51100000000E-03 0.  1.
        -12    1    3    3    0    0  0.26454566068E+01  0.41276715584E+01  0.14493334484E+02  0.15300093386E+02  0.00000000000E+00 0.  1.
</event>
<event>
 7    1  0.1418970E-010  0.4778727E+02  0.7816164E-02  0.1312668E+00
        -11   -1    0    0    0    0  0.00000000000E+00  0.00000000000E+00  0.45593999997E+02  0.45594000000E+02  0.51100000000E-03 0.  1.
         11   -1    0    0    0    0 -0.00000000000E+00 -0.00000000000E+00 -0.45593999997E+02  0.45594000000E+02  0.51100000000E-03 0. -1.
    9900012    2    1    2    0    0 -0.35290495577E+02 -0.25016694830E+02  0.35169912561E+01  0.47787270446E+02  0.19999997271E+02 0.  0.
         12    1    1    2    0    0  0.35290495577E+02  0.25016694830E+02 -0.35169912561E+01  0.43400729554E+02  0.00000000000E+00 0. -1.
         11    1    3    3    0    0 -0.18564022920E+02 -0.43674746862E+01  0.88115088537E-01  0.19071065692E+02  0.51100000000E-03 0. -1.
        -11    1    3    3    0    0  0.17317871183E+00 -0.26367265168E+01 -0.21361710906E+01  0.33978735674E+01  0.51100000000E-03 0.  1.
        -12    1    3    3    0    0 -0.16899651369E+02 -0.18012493627E+02  0.55650472582E+01  0.25318331186E+02  0.00000000000E+00 0.  1.
</event>
<event>
 7    1  0.1418970E-010  0.4778727E+02  0.7816164E-02  0.1312668E+00
        -11   -1    0    0    0    0  0.00000000000E+00  0.00000000000E+00  0.45593999997E+02  0.45594000000E+02  0.51100000000E-03 0. -1.
         11   -1    0    0    0    0 -0.00000000000E+00 -0.00000000000E+00 -0.45593999997E+02  0.45594000000E+02  0.51100000000E-03 0.  1.
    9900012    2    1    2    0    0  0.19173845071E+02 -0.26145531486E+02 -0.28851309421E+02  0.47787271817E+02  0.20000003522E+02 0.  0.
         12    1    1    2    0    0 -0.19173845071E+02  0.26145531486E+02  0.28851309421E+02  0.43400728183E+02  0.00000000000E+00 0. -1.
         11    1    3    3    0    0  0.52257217606E+01 -0.15791087778E+02 -0.52590685599E+01  0.17444896776E+02  0.51100000000E-03 0. -1.
        -11    1    3    3    0    0  0.11236531950E+02 -0.10993371188E+02 -0.16834329982E+02  0.23032770710E+02  0.51100000000E-03 0.  1.
        -12    1    3    3    0    0  0.27115913600E+01  0.63892748057E+00 -0.67579108793E+01  0.73096043314E+01  0.00000000000E+00 0.  1.
</event>
<event>
 7    1  0.1418970E-010  0.4778728E+02  0.7816164E-02  0.1312668E+00
        -11   -1    0    0    0    0  0.00000000000E+00  0.00000000000E+00  0.45593999997E+02  0.45594000000E+02  0.51100000000E-03 0. -1.
         11   -1    0    0    0    0 -0.00000000000E+00 -0.00000000000E+00 -0.45593999997E+02  0.45594000000E+02  0.51100000000E-03 0.  1.
    9900012    2    1    2    0    0 -0.21434173728E+02  0.19666374312E+02 -0.32209195845E+02  0.47787281354E+02  0.20000047005E+02 0.  0.
         12    1    1    2    0    0  0.21434173728E+02 -0.19666374312E+02  0.32209195845E+02  0.43400718646E+02  0.00000000000E+00 0. -1.
         11    1    3    3    0    0 -0.41990350166E+01  0.13380490156E+02 -0.11617276786E+02  0.18210725742E+02  0.51100000000E-03 0. -1.
        -11    1    3    3    0    0 -0.41537361903E+01  0.14876995576E+01 -0.12958416894E+02  0.13688949666E+02  0.51100000000E-03 0.  1.
        -12    1    3    3    0    0 -0.13081402521E+02  0.47981845992E+01 -0.76335021658E+01  0.15887605945E+02  0.00000000000E+00 0.  1.
</event>
<event>
 7    1  0.1418970E-010  0.4778727E+02  0.7816164E-02  0.1312668E+00
        -11   -1    0    0    0    0  0.00000000000E+00  0.00000000000E+00  0.45593999997E+02  0.45594000000E+02  0.51100000000E-03 0.  1.
         11   -1    0    0    0    0 -0.00000000000E+00 -0.00000000000E+00 -0.45593999997E+02  0.45594000000E+02  0.51100000000E-03 0. -1.
    9900012    2    1    2    0    0 -0.42166252027E+02 -0.53298003155E+01  0.87876852069E+01  0.47787274283E+02  0.20000014768E+02 0.  0.
         12    1    1    2    0    0  0.42166252027E+02  0.53298003155E+01 -0.87876852069E+01  0.43400725717E+02  0.00000000000E+00 0. -1.
         11    1    3    3    0    0 -0.43380594451E+01  0.37050881376E+00  0.11663522178E+01  0.45073733246E+01  0.51100000000E-03 0. -1.
        -11    1    3    3    0    0 -0.63464761584E+01  0.62624999050E+01  0.12245415892E+01  0.89997870561E+01  0.51100000000E-03 0.  1.
        -12    1    3    3    0    0 -0.31481716424E+02 -0.11962809034E+02  0.63967913999E+01  0.34280113903E+02  0.00000000000E+00 0.  1.
</event>
<event>
 7    1  0.1549374E-010  0.4778727E+02  0.7816164E-02  0.1312668E+00
        -11   -1    0    0    0    0  0.00000000000E+00  0.00000000000E+00  0.45593999997E+02  0.45594000000E+02  0.51100000000E-03 0. -1.
         11   -1    0    0    0    0 -0.00000000000E+00 -0.00000000000E+00 -0.45593999997E+02  0.45594000000E+02  0.51100000000E-03 0.  1.
    9900012    2    1    2    0    0  0.61400800985E+01 -0.13245811552E+01 -0.42943783567E+02  0.47787266759E+02  0.19999980460E+02 0.  0.
         12    1    1    2    0    0 -0.61400800985E+01  0.13245811552E+01  0.42943783567E+02  0.43400733241E+02  0.00000000000E+00 0. -1.
         11    1    3    3    0    0  0.79505109594E+00 -0.78376747143E+01 -0.21195771646E+02  0.22612429925E+02  0.51100000000E-03 0. -1.
        -11    1    3    3    0    0  0.27044875190E+01  0.34100874554E+01 -0.20436044061E+02  0.20894373556E+02  0.51100000000E-03 0.  1.
         12    1    3    3    0    0  0.26405414836E+01  0.31030061036E+01 -0.13119678595E+01  0.42804632775E+01  0.00000000000E+00 0. -1.
</event>
<event>
 7    1  0.4793173E-010  0.4778727E+02  0.7816164E-02  0.1312668E+00
        -11   -1    0    0    0    0  0.00000000000E+00  0.00000000000E+00  0.45593999997E+02  0.45594000000E+02  0.51100000000E-03 0. -1.
         11   -1    0    0    0    0 -0.00000000000E+00 -0.00000000000E+00 -0.45593999997E+02  0.45594000000E+02  0.51100000000E-03 0.  1.
    9900012    2    1    2    0    0 -0.40732587923E+02  0.94434477436E+01 -0.11631886365E+02  0.47787271842E+02  0.20000003637E+02 0.  0.
         12    1    1    2    0    0  0.40732587923E+02 -0.94434477436E+01  0.11631886365E+02  0.43400728158E+02  0.00000000000E+00 0. -1.
         11    1    3    3    0    0 -0.19637670545E+02  0.79913898201E+01  0.16192115530E+01  0.21263166791E+02  0.51100000000E-03 0. -1.
        -11    1    3    3    0    0 -0.14092264822E+02  0.52122997348E+01 -0.84557259596E+01  0.17241209300E+02  0.51100000000E-03 0.  1.
         12    1    3    3    0    0 -0.70026525563E+01 -0.37602418114E+01 -0.47953719584E+01  0.92828957510E+01  0.00000000000E+00 0. -1.
</event>
<event>
 7    1  0.1418970E-010  0.4778727E+02  0.7816164E-02  0.1312668E+00
        -11   -1    0    0    0    0  0.00000000000E+00  0.00000000000E+00  0.45593999997E+02  0.45594000000E+02  0.51100000000E-03 0. -1.
         11   -1    0    0    0    0 -0.00000000000E+00 -0.00000000000E+00 -0.45593999997E+02  0.45594000000E+02  0.51100000000E-03 0.  1.
    9900012    2    1    2    0    0  0.37785895025E+02  0.16215186565E+02 -0.13889466333E+02  0.47787269439E+02  0.19999992682E+02 0.  0.
         12    1    1    2    0    0 -0.37785895025E+02 -0.16215186565E+02  0.13889466333E+02  0.43400730561E+02  0.00000000000E+00 0. -1.
         11    1    3    3    0    0  0.11505687357E+02 -0.24028393568E+01 -0.70034062617E+01  0.13682184696E+02  0.51100000000E-03 0. -1.
        -11    1    3    3    0    0  0.80343926603E+01  0.47520474581E+01 -0.61465222873E+01  0.11176455474E+02  0.51100000000E-03 0.  1.
         12    1    3    3    0    0  0.18245815008E+02  0.13865978464E+02 -0.73953778442E+00  0.22928629270E+02  0.00000000000E+00 0. -1.
</event>
<event>
 7    1  0.1418970E-010  0.4778727E+02  0.7816164E-02  0.1312668E+00
        -11   -1    0    0    0    0  0.00000000000E+00  0.00000000000E+00  0.45593999997E+02  0.45594000000E+02  0.51100000000E-03 0.  1.
         11   -1    0    0    0    0 -0.00000000000E+00 -0.00000000000E+00 -0.45593999997E+02  0.45594000000E+02  0.51100000000E-03 0. -1.
    9900012    2    1    2    0    0  0.31063414148E+02 -0.29945150636E+02  0.46878370595E+01  0.47787267732E+02  0.19999984895E+02 0.  0.
         12    1    1    2    0    0 -0.31063414148E+02  0.29945150636E+02 -0.46878370595E+01  0.43400732268E+02  0.00000000000E+00 0. -1.
         11    1    3    3    0    0  0.88300296316E+01 -0.18270708701E+02  0.44291252971E+01  0.20770300212E+02  0.51100000000E-03 0. -1.
        -11    1    3    3    0    0  0.14736010413E+02 -0.80148257810E+01  0.48926326891E+01  0.17473559743E+02  0.51100000000E-03 0.  1.
        -12    1    3    3    0    0  0.74973741030E+01 -0.36596161538E+01 -0.46339209267E+01  0.95434077765E+01  0.00000000000E+00 0.  1.
</event>
<event>
 7    1  0.1418970E-010  0.4778728E+02  0.7816164E-02  0.1312668E+00
        -11   -1    0    0    0    0  0.00000000000E+00  0.00000000000E+00  0.45593999997E+02  0.45594000000E+02  0.51100000000E-03 0.  1.
         11   -1    0    0    0    0 -0.00000000000E+00 -0.00000000000E+00 -0.45593999997E+02  0.45594000000E+02  0.51100000000E-03 0. -1.
    9900012    2    1    2    0    0 -0.29504306190E+02  0.19234102058E+02  0.25360758395E+02  0.47787276134E+02  0.20000023204E+02 0.  0.
         12    1    1    2    0    0  0.29504306190E+02 -0.19234102058E+02 -0.25360758395E+02  0.43400723866E+02  0.00000000000E+00 0. -1.
         11    1    3    3    0    0 -0.23249051969E+01  0.54942773783E+01  0.52590886348E+01  0.79530045652E+01  0.51100000000E-03 0. -1.
        -11    1    3    3    0    0 -0.19631649385E+02  0.13997303499E+01  0.13902822056E+02  0.24096667073E+02  0.51100000000E-03 0.  1.
        -12    1    3    3    0    0 -0.75477516086E+01  0.12340094329E+02  0.61988477042E+01  0.15737604496E+02  0.00000000000E+00 0.  1.
</event>
<event>
 7    1  0.1418970E-010  0.4778727E+02  0.7816164E-02  0.1312668E+00
        -11   -1    0    0    0    0  0.00000000000E+00  0.00000000000E+00  0.45593999997E+02  0.45594000000E+02  0.51100000000E-03 0.  1.
         11   -1    0    0    0    0 -0.00000000000E+00 -0.00000000000E+00 -0.45593999997E+02  0.45594000000E+02  0.51100000000E-03 0. -1.
    9900012    2    1    2    0    0 -0.25692012809E+02  0.95657703733E+01  0.33645802709E+02  0.47787268151E+02  0.19999986810E+02 0.  0.
         12    1    1    2    0    0  0.25692012809E+02 -0.95657703733E+01 -0.33645802709E+02  0.43400731849E+02  0.00000000000E+00 0. -1.
         11    1    3    3    0    0 -0.28495747463E+01 -0.49141565943E+01  0.70504236285E+01  0.90541418627E+01  0.51100000000E-03 0. -1.
        -11    1    3    3    0    0 -0.52575886978E+01  0.13054724764E+01  0.20562506105E+01  0.57943648604E+01  0.51100000000E-03 0.  1.
        -12    1    3    3    0    0 -0.17584849365E+02  0.13174454491E+02  0.24539128470E+02  0.32938761428E+02  0.00000000000E+00 0.  1.
</event>
<event>
 7    1  0.1418970E-010  0.4778727E+02  0.7816164E-02  0.1312668E+00
        -11   -1    0    0    0    0  0.00000000000E+00  0.00000000000E+00  0.45593999997E+02  0.45594000000E+02  0.51100000000E-03 0.  1.
         11   -1    0    0    0    0 -0.00000000000E+00 -0.00000000000E+00 -0.45593999997E+02  0.45594000000E+02  0.51100000000E-03 0. -1.
    9900012    2    1    2    0    0 -0.26155941172E+02  0.34114257350E+02 -0.59755927400E+01  0.47787268189E+02  0.19999986982E+02 0.  0.
         12    1    1    2    0    0  0.26155941172E+02 -0.34114257350E+02  0.59755927400E+01  0.43400731811E+02  0.00000000000E+00 0. -1.
         11    1    3    3    0    0  0.89256844813E+00  0.10725248803E+01  0.12544146113E+01  0.18763113632E+01  0.51100000000E-03 0. -1.
        -11    1    3    3    0    0 -0.65451958072E+01  0.19953909361E+02 -0.39133933160E+01  0.21361477815E+02  0.51100000000E-03 0.  1.
        -12    1    3    3    0    0 -0.20503313813E+02  0.13087823108E+02 -0.33166140352E+01  0.24549479010E+02  0.00000000000E+00 0.  1.
</event>
<event>
 7    1  0.1418970E-010  0.4778727E+02  0.7816164E-02  0.1312668E+00
        -11   -1    0    0    0    0  0.00000000000E+00  0.00000000000E+00  0.45593999997E+02  0.45594000000E+02  0.51100000000E-03 0. -1.
         11   -1    0    0    0    0 -0.00000000000E+00 -0.00000000000E+00 -0.45593999997E+02  0.45594000000E+02  0.51100000000E-03 0.  1.
    9900012    2    1    2    0    0 -0.17730005221E+02 -0.26642166416E+02  0.29316639502E+02  0.47787268806E+02  0.19999989795E+02 0.  0.
         12    1    1    2    0    0  0.17730005221E+02  0.26642166416E+02 -0.29316639502E+02  0.43400731194E+02  0.00000000000E+00 0. -1.
         11    1    3    3    0    0 -0.26758998728E+01 -0.63296835430E+01  0.98302171690E+01  0.11994102873E+02  0.51100000000E-03 0. -1.
        -11    1    3    3    0    0 -0.11468236062E+02 -0.20412430252E+02  0.21406627882E+02  0.31724304007E+02  0.51100000000E-03 0.  1.
         12    1    3    3    0    0 -0.35858692870E+01  0.99947379415E-01 -0.19202055493E+01  0.40688619261E+01  0.00000000000E+00 0. -1.
</event>
<event>
 7    1  0.1418970E-010  0.4778727E+02  0.7816164E-02  0.1312668E+00
        -11   -1    0    0    0    0  0.00000000000E+00  0.00000000000E+00  0.45593999997E+02  0.45594000000E+02  0.51100000000E-03 0.  1.
         11   -1    0    0    0    0 -0.00000000000E+00 -0.00000000000E+00 -0.45593999997E+02  0.45594000000E+02  0.51100000000E-03 0. -1.
    9900012    2    1    2    0    0 -0.37790680298E+02 -0.13686709686E+02  0.16375634667E+02  0.47787274773E+02  0.20000017002E+02 0.  0.
         12    1    1    2    0    0  0.37790680298E+02  0.13686709686E+02 -0.16375634667E+02  0.43400725227E+02  0.00000000000E+00 0. -1.
         11    1    3    3    0    0 -0.22007055834E+02 -0.16569851807E+00  0.68561564420E+01  0.23050918505E+02  0.51100000000E-03 0. -1.
        -11    1    3    3    0    0 -0.16302207446E+02 -0.10277928104E+02  0.66854515831E+01  0.20398358680E+02  0.51100000000E-03 0.  1.
         12    1    3    3    0    0  0.51858298176E+00 -0.32430830638E+01  0.28340266422E+01  0.43379975883E+01  0.00000000000E+00 0. -1.
</event>
<event>
 7    1  0.1418970E-010  0.4778727E+02  0.7816164E-02  0.1312668E+00
        -11   -1    0    0    0    0  0.00000000000E+00  0.00000000000E+00  0.45593999997E+02  0.45594000000E+02  0.51100000000E-03 0. -1.
         11   -1    0    0    0    0 -0.00000000000E+00 -0.00000000000E+00 -0.45593999997E+02  0.45594000000E+02  0.51100000000E-03 0.  1.
    9900012    2    1    2    0    0 -0.23324634786E+02 -0.34634759874E+02  0.11832925687E+02  0.47787270631E+02  0.19999998115E+02 0.  0.
         12    1    1    2    0    0  0.23324634786E+02  0.34634759874E+02 -0.11832925687E+02  0.43400729369E+02  0.00000000000E+00 0. -1.
         11    1    3    3    0    0 -0.39675223310E+01 -0.56560248837E+01  0.10481605657E+02  0.12553720896E+02  0.51100000000E-03 0. -1.
        -11    1    3    3    0    0 -0.10196561127E+02 -0.11750682332E+02  0.21464224856E+01  0.15705270575E+02  0.51100000000E-03 0.  1.
         12    1    3    3    0    0 -0.91605513279E+01 -0.17228052659E+02 -0.79510245546E+00  0.19528279160E+02  0.00000000000E+00 0. -1.
</event>
<event>
 7    1  0.1418970E-010  0.4778727E+02  0.7816164E-02  0.1312668E+00
        -11   -1    0    0    0    0  0.00000000000E+00  0.00000000000E+00  0.45593999997E+02  0.45594000000E+02  0.51100000000E-03 0. -1.
         11   -1    0    0    0    0 -0.00000000000E+00 -0.00000000000E+00 -0.45593999997E+02  0.45594000000E+02  0.51100000000E-03 0.  1.
    9900012    2    1    2    0    0  0.30857945332E+02 -0.20676522787E+02 -0.22447537529E+02  0.47787270447E+02  0.19999997275E+02 0.  0.
         12    1    1    2    0    0 -0.30857945332E+02  0.20676522787E+02  0.22447537529E+02  0.43400729553E+02  0.00000000000E+00 0. -1.
         11    1    3    3    0    0  0.10771341578E+02 -0.31590243349E+01 -0.57568039012E+01  0.12615150635E+02  0.51100000000E-03 0. -1.
        -11    1    3    3    0    0  0.10089598915E+02 -0.14925409132E+02 -0.17096412524E+02  0.24836569117E+02  0.51100000000E-03 0.  1.
        -12    1    3    3    0    0  0.99970048391E+01 -0.25920893204E+01  0.40567889719E+00  0.10335550695E+02  0.00000000000E+00 0.  1.
</event>
<event>
 7    1  0.1418970E-010  0.4778727E+02  0.7816164E-02  0.1312668E+00
        -11   -1    0    0    0    0  0.00000000000E+00  0.00000000000E+00  0.45593999997E+02  0.45594000000E+02  0.51100000000E-03 0.  1.
         11   -1    0    0    0    0 -0.00000000000E+00 -0.00000000000E+00 -0.45593999997E+02  0.45594000000E+02  0.51100000000E-03 0. -1.
    9900012    2    1    2    0    0 -0.32888532267E+02  0.15757478851E+02  0.23530184290E+02  0.47787271122E+02  0.20000000353E+02 0.  0.
         12    1    1    2    0    0  0.32888532267E+02 -0.15757478851E+02 -0.23530184290E+02  0.43400728878E+02  0.00000000000E+00 0. -1.
         11    1    3    3    0    0 -0.47006975645E+01  0.20366171147E+01  0.12870767552E+02  0.13852834530E+02  0.51100000000E-03 0.  1.
        -11    1    3    3    0    0 -0.11505512540E+02  0.96443974938E+01  0.42348486095E+01  0.15598883449E+02  0.51100000000E-03 0. -1.
        -12    1    3    3    0    0 -0.16682322162E+02  0.40764642430E+01  0.64245681281E+01  0.18335553144E+02  0.00000000000E+00 0.  1.
</event>
<event>
 7    1  0.1418970E-010  0.4778727E+02  0.7816164E-02  0.1312668E+00
        -11   -1    0    0    0    0  0.00000000000E+00  0.00000000000E+00  0.45593999997E+02  0.45594000000E+02  0.51100000000E-03 0.  1.
         11   -1    0    0    0    0 -0.00000000000E+00 -0.00000000000E+00 -0.45593999997E+02  0.45594000000E+02  0.51100000000E-03 0. -1.
    9900012    2    1    2    0    0 -0.28519394405E+02 -0.31985822021E+02  0.68683835697E+01  0.47787270047E+02  0.19999995452E+02 0.  0.
         12    1    1    2    0    0  0.28519394405E+02  0.31985822021E+02 -0.68683835697E+01  0.43400729953E+02  0.00000000000E+00 0. -1.
         11    1    3    3    0    0 -0.24754151029E+02 -0.19371440231E+02 -0.24283041713E+01  0.31526454783E+02  0.51100000000E-03 0. -1.
        -11    1    3    3    0    0 -0.24252671742E+01 -0.46836600434E+01  0.41588955156E+01  0.67167703875E+01  0.51100000000E-03 0.  1.
         12    1    3    3    0    0 -0.13399762021E+01 -0.79307217472E+01  0.51377922254E+01  0.95440448766E+01  0.00000000000E+00 0. -1.
</event>
<event>
 7    1  0.1418970E-010  0.4778727E+02  0.7816164E-02  0.1312668E+00
        -11   -1    0    0    0    0  0.00000000000E+00  0.00000000000E+00  0.45593999997E+02  0.45594000000E+02  0.51100000000E-03 0. -1.
         11   -1    0    0    0    0 -0.00000000000E+00 -0.00000000000E+00 -0.45593999997E+02  0.45594000000E+02  0.51100000000E-03 0.  1.
    9900012    2    1    2    0    0 -0.40421407715E+02  0.15691155941E+02 -0.18763240187E+01  0.47787272261E+02  0.20000005547E+02 0.  0.
         12    1    1    2    0    0  0.40421407715E+02 -0.15691155941E+02  0.18763240187E+01  0.43400727739E+02  0.00000000000E+00 0. -1.
         11    1    3    3    0    0 -0.52552977613E-01  0.21042921920E+00  0.17234200612E+01  0.17370144618E+01  0.51100000000E-03 0. -1.
        -11    1    3    3    0    0 -0.25266301024E+02  0.12474879258E+02 -0.92347839352E+01  0.29652821359E+02  0.51100000000E-03 0.  1.
         12    1    3    3    0    0 -0.15102553713E+02  0.30058474637E+01  0.56350398553E+01  0.16397436440E+02  0.00000000000E+00 0. -1.
</event>
<event>
 7    1  0.1418970E-010  0.4778725E+02  0.7816164E-02  0.1312668E+00
        -11   -1    0    0    0    0  0.00000000000E+00  0.00000000000E+00  0.45593999997E+02  0.45594000000E+02  0.51100000000E-03 0. -1.
         11   -1    0    0    0    0 -0.00000000000E+00 -0.00000000000E+00 -0.45593999997E+02  0.45594000000E+02  0.51100000000E-03 0.  1.
    9900012    2    1    2    0    0  0.13641715353E+02  0.37007338487E+02 -0.18110383785E+02  0.47787245392E+02  0.19999883041E+02 0.  0.
         12    1    1    2    0    0 -0.13641715353E+02 -0.37007338487E+02  0.18110383785E+02  0.43400754608E+02  0.00000000000E+00 0. -1.
         11    1    3    3    0    0  0.58282199849E+01  0.17968015012E+02 -0.14289514584E+02  0.23685606156E+02  0.51100000000E-03 0. -1.
        -11    1    3    3    0    0  0.11039061068E+02  0.15113668052E+02 -0.29729136370E+01  0.18950515745E+02  0.51100000000E-03 0.  1.
         12    1    3    3    0    0 -0.32255656995E+01  0.39256554231E+01 -0.84795556308E+00  0.51511234910E+01  0.00000000000E+00 0. -1.
</event>
<event>
 7    1  0.1418970E-010  0.4778727E+02  0.7816164E-02  0.1312668E+00
        -11   -1    0    0    0    0  0.00000000000E+00  0.00000000000E+00  0.45593999997E+02  0.45594000000E+02  0.51100000000E-03 0. -1.
         11   -1    0    0    0    0 -0.00000000000E+00 -0.00000000000E+00 -0.45593999997E+02  0.45594000000E+02  0.51100000000E-03 0.  1.
    9900012    2    1    2    0    0  0.17999424952E+02  0.12996035269E+02 -0.37292727032E+02  0.47787265896E+02  0.19999976525E+02 0.  0.
         12    1    1    2    0    0 -0.17999424952E+02 -0.12996035269E+02  0.37292727032E+02  0.43400734104E+02  0.00000000000E+00 0. -1.
         11    1    3    3    0    0  0.36863012963E+01  0.10045215360E+02 -0.83651716972E+01  0.13582019977E+02  0.51100000000E-03 0. -1.
        -11    1    3    3    0    0  0.31044092696E+01  0.26293400769E+01 -0.18331520865E+02  0.18777524960E+02  0.51100000000E-03 0.  1.
         12    1    3    3    0    0  0.11208714386E+02  0.32147983150E+00 -0.10596034470E+02  0.15427720958E+02  0.00000000000E+00 0. -1.
</event>
<event>
 7    1  0.1418970E-010  0.4778727E+02  0.7816164E-02  0.1312668E+00
        -11   -1    0    0    0    0  0.00000000000E+00  0.00000000000E+00  0.45593999997E+02  0.45594000000E+02  0.51100000000E-03 0. -1.
         11   -1    0    0    0    0 -0.00000000000E+00 -0.00000000000E+00 -0.45593999997E+02  0.45594000000E+02  0.51100000000E-03 0.  1.
    9900012    2    1    2    0    0  0.29753330651E+02 -0.30754377547E+02  0.72478213863E+01  0.47787270306E+02  0.19999996632E+02 0.  0.
         12    1    1    2    0    0 -0.29753330651E+02  0.30754377547E+02 -0.72478213863E+01  0.43400729694E+02  0.00000000000E+00 0. -1.
         11    1    3    3    0    0  0.14399118969E+02 -0.33507614325E+01  0.50638257035E+01  0.15627045795E+02  0.51100000000E-03 0. -1.
        -11    1    3    3    0    0  0.50092881185E+01 -0.37611124732E+01  0.34836831582E-01  0.62641957469E+01  0.51100000000E-03 0.  1.
         12    1    3    3    0    0  0.10344923564E+02 -0.23642503641E+02  0.21491588512E+01  0.25896028764E+02  0.00000000000E+00 0. -1.
</event>
<event>
 7    1  0.1418970E-010  0.4778726E+02  0.7816164E-02  0.1312668E+00
        -11   -1    0    0    0    0  0.00000000000E+00  0.00000000000E+00  0.45593999997E+02  0.45594000000E+02  0.51100000000E-03 0.  1.
         11   -1    0    0    0    0 -0.00000000000E+00 -0.00000000000E+00 -0.45593999997E+02  0.45594000000E+02  0.51100000000E-03 0. -1.
    9900012    2    1    2    0    0 -0.37158029353E+02 -0.85126353248E+01  0.20747047602E+02  0.47787261645E+02  0.19999957146E+02 0.  0.
         12    1    1    2    0    0  0.37158029353E+02  0.85126353248E+01 -0.20747047602E+02  0.43400738355E+02  0.00000000000E+00 0. -1.
         11    1    3    3    0    0 -0.10481132656E+02 -0.83334870902E+01  0.44564649383E+01  0.14112449427E+02  0.51100000000E-03 0. -1.
        -11    1    3    3    0    0 -0.15920525351E+02 -0.21676253404E+01  0.28046350854E+01  0.16310355768E+02  0.51100000000E-03 0.  1.
         12    1    3    3    0    0 -0.10756371346E+02  0.19884771058E+01  0.13485947578E+02  0.17364456450E+02  0.00000000000E+00 0. -1.
</event>
<event>
 7    1  0.1418970E-010  0.4778727E+02  0.7816164E-02  0.1312668E+00
        -11   -1    0    0    0    0  0.00000000000E+00  0.00000000000E+00  0.45593999997E+02  0.45594000000E+02  0.51100000000E-03 0.  1.
         11   -1    0    0    0    0 -0.00000000000E+00 -0.00000000000E+00 -0.45593999997E+02  0.45594000000E+02  0.51100000000E-03 0. -1.
    9900012    2    1    2    0    0  0.26989955239E+02  0.23519022674E+02  0.24536118289E+02  0.47787271757E+02  0.20000003248E+02 0.  0.
         12    1    1    2    0    0 -0.26989955239E+02 -0.23519022674E+02 -0.24536118289E+02  0.43400728243E+02  0.00000000000E+00 0. -1.
         11    1    3    3    0    0  0.47150433473E+01  0.41421811248E+00  0.32515573544E+01  0.57424590466E+01  0.51100000000E-03 0. -1.
        -11    1    3    3    0    0  0.11348087395E+02  0.22369223869E+02  0.12612681368E+02  0.28075629923E+02  0.51100000000E-03 0.  1.
        -12    1    3    3    0    0  0.10926824496E+02  0.73558069318E+00  0.86718795666E+01  0.13969182787E+02  0.00000000000E+00 0.  1.
</event>
<event>
 7    1  0.1418970E-010  0.4778727E+02  0.7816164E-02  0.1312668E+00
        -11   -1    0    0    0    0  0.00000000000E+00  0.00000000000E+00  0.45593999997E+02  0.45594000000E+02  0.51100000000E-03 0. -1.
         11   -1    0    0    0    0 -0.00000000000E+00 -0.00000000000E+00 -0.45593999997E+02  0.45594000000E+02  0.51100000000E-03 0.  1.
    9900012    2    1    2    0    0  0.19442364033E+02 -0.38800535222E+02  0.36868693027E+00  0.47787274399E+02  0.20000015293E+02 0.  0.
         12    1    1    2    0    0 -0.19442364033E+02  0.38800535222E+02 -0.36868693027E+00  0.43400725601E+02  0.00000000000E+00 0. -1.
         11    1    3    3    0    0 -0.35906157015E+01 -0.58378309256E+01  0.24428729519E+01  0.72760167367E+01  0.51100000000E-03 0. -1.
        -11    1    3    3    0    0  0.18161341792E+02 -0.23140904606E+02 -0.39091338285E+00  0.29419187874E+02  0.51100000000E-03 0.  1.
         12    1    3    3    0    0  0.48716379429E+01 -0.98217996901E+01 -0.16832726388E+01  0.11092069788E+02  0.00000000000E+00 0. -1.
</event>
<event>
 7    1  0.1418970E-010  0.4778727E+02  0.7816164E-02  0.1312668E+00
        -11   -1    0    0    0    0  0.00000000000E+00  0.00000000000E+00  0.45593999997E+02  0.45594000000E+02  0.51100000000E-03 0.  1.
         11   -1    0    0    0    0 -0.00000000000E+00 -0.00000000000E+00 -0.45593999997E+02  0.45594000000E+02  0.51100000000E-03 0. -1.
    9900012    2    1    2    0    0  0.47395422805E+01 -0.26982396112E+02  0.33661705005E+02  0.47787270228E+02  0.19999996275E+02 0.  0.
         12    1    1    2    0    0 -0.47395422805E+01  0.26982396112E+02 -0.33661705005E+02  0.43400729772E+02  0.00000000000E+00 0. -1.
         11    1    3    3    0    0  0.18455012325E+01 -0.86940938916E+01  0.60775136994E+01  0.10767047712E+02  0.51100000000E-03 0. -1.
        -11    1    3    3    0    0  0.13486041570E+01  0.30181613184E+01  0.42482440078E+01  0.53828996208E+01  0.51100000000E-03 0.  1.
        -12    1    3    3    0    0  0.15454368910E+01 -0.21306463538E+02  0.23335947298E+02  0.31637322895E+02  0.00000000000E+00 0.  1.
</event>
<event>
 7    1  0.1418970E-010  0.4778727E+02  0.7816164E-02  0.1312668E+00
        -11   -1    0    0    0    0  0.00000000000E+00  0.00000000000E+00  0.45593999997E+02  0.45594000000E+02  0.51100000000E-03 0.  1.
         11   -1    0    0    0    0 -0.00000000000E+00 -0.00000000000E+00 -0.45593999997E+02  0.45594000000E+02  0.51100000000E-03 0. -1.
    9900012    2    1    2    0    0 -0.30489814338E+01  0.41784919926E+02 -0.11329050553E+02  0.47787271810E+02  0.20000003492E+02 0.  0.
         12    1    1    2    0    0  0.30489814338E+01 -0.41784919926E+02  0.11329050553E+02  0.43400728190E+02  0.00000000000E+00 0. -1.
         11    1    3    3    0    0 -0.17333085590E+01 -0.63098647731E+00 -0.63191019804E+00  0.19498239036E+01  0.51100000000E-03 0. -1.
        -11    1    3    3    0    0  0.40253034183E+01  0.23923617540E+02 -0.98997490609E+00  0.24280086375E+02  0.51100000000E-03 0.  1.
         12    1    3    3    0    0 -0.53409762931E+01  0.18492288863E+02 -0.97071654486E+01  0.21557361531E+02  0.00000000000E+00 0. -1.
</event>
<event>
 7    1  0.1418970E-010  0.4778727E+02  0.7816164E-02  0.1312668E+00
        -11   -1    0    0    0    0  0.00000000000E+00  0.00000000000E+00  0.45593999997E+02  0.45594000000E+02  0.51100000000E-03 0.  1.
         11   -1    0    0    0    0 -0.00000000000E+00 -0.00000000000E+00 -0.45593999997E+02  0.45594000000E+02  0.51100000000E-03 0. -1.
    9900012    2    1    2    0    0  0.52743041069E+01  0.14281775055E+02  0.40642785590E+02  0.47787269556E+02  0.19999993216E+02 0.  0.
         12    1    1    2    0    0 -0.52743041069E+01 -0.14281775055E+02 -0.40642785590E+02  0.43400730444E+02  0.00000000000E+00 0. -1.
         11    1    3    3    0    0 -0.22790437830E+01  0.40955419753E+01  0.12047001906E+01  0.48392982391E+01  0.51100000000E-03 0. -1.
        -11    1    3    3    0    0  0.33758624888E+00  0.90521975350E+01  0.27490233051E+02  0.28944242228E+02  0.51100000000E-03 0.  1.
        -12    1    3    3    0    0  0.72157616410E+01  0.11340355442E+01  0.11947852349E+02  0.14003729090E+02  0.00000000000E+00 0.  1.
</event>
<event>
 7    1  0.1418970E-010  0.4778727E+02  0.7816164E-02  0.1312668E+00
        -11   -1    0    0    0    0  0.00000000000E+00  0.00000000000E+00  0.45593999997E+02  0.45594000000E+02  0.51100000000E-03 0. -1.
         11   -1    0    0    0    0 -0.00000000000E+00 -0.00000000000E+00 -0.45593999997E+02  0.45594000000E+02  0.51100000000E-03 0.  1.
    9900012    2    1    2    0    0 -0.94084814111E+01  0.41136511061E+02  0.10143545215E+02  0.47787267584E+02  0.19999984223E+02 0.  0.
         12    1    1    2    0    0  0.94084814111E+01 -0.41136511061E+02 -0.10143545215E+02  0.43400732416E+02  0.00000000000E+00 0. -1.
         11    1    3    3    0    0  0.20828478822E+01  0.12789495800E+01 -0.17501371651E+01  0.30061516407E+01  0.51100000000E-03 0.  1.
        -11    1    3    3    0    0 -0.10089533141E+02  0.28974135127E+02  0.33282344115E+01  0.30860595100E+02  0.51100000000E-03 0. -1.
         12    1    3    3    0    0 -0.14017961520E+01  0.10883426353E+02  0.85654479690E+01  0.13920520843E+02  0.00000000000E+00 0. -1.
</event>
<event>
 7    1  0.1418970E-010  0.4778727E+02  0.7816164E-02  0.1312668E+00
        -11   -1    0    0    0    0  0.00000000000E+00  0.00000000000E+00  0.45593999997E+02  0.45594000000E+02  0.51100000000E-03 0. -1.
         11   -1    0    0    0    0 -0.00000000000E+00 -0.00000000000E+00 -0.45593999997E+02  0.45594000000E+02  0.51100000000E-03 0.  1.
    9900012    2    1    2    0    0 -0.41269341960E+01  0.26443651507E+02 -0.34166137927E+02  0.47787271069E+02  0.20000000114E+02 0.  0.
         12    1    1    2    0    0  0.41269341960E+01 -0.26443651507E+02  0.34166137927E+02  0.43400728931E+02  0.00000000000E+00 0. -1.
         11    1    3    3    0    0  0.90804135839E+00  0.10695415132E+02 -0.48140068145E+01  0.11763974916E+02  0.51100000000E-03 0. -1.
        -11    1    3    3    0    0  0.38362589777E+01  0.78304552726E+01 -0.96060630471E+01  0.12973409739E+02  0.51100000000E-03 0.  1.
         12    1    3    3    0    0 -0.88712345321E+01  0.79177811028E+01 -0.19746068065E+02  0.23049886415E+02  0.00000000000E+00 0. -1.
</event>
<event>
 7    1  0.1418970E-010  0.4778727E+02  0.7816164E-02  0.1312668E+00
        -11   -1    0    0    0    0  0.00000000000E+00  0.00000000000E+00  0.45593999997E+02  0.45594000000E+02  0.51100000000E-03 0. -1.
         11   -1    0    0    0    0 -0.00000000000E+00 -0.00000000000E+00 -0.45593999997E+02  0.45594000000E+02  0.51100000000E-03 0.  1.
    9900012    2    1    2    0    0  0.40592134331E+02 -0.14576238267E+02  0.48410082072E+01  0.47787268993E+02  0.19999990644E+02 0.  0.
         12    1    1    2    0    0 -0.40592134331E+02  0.14576238267E+02 -0.48410082072E+01  0.43400731007E+02  0.00000000000E+00 0. -1.
         11    1    3    3    0    0  0.21206475856E+02 -0.15211675023E+02  0.20488314818E+01  0.26178376304E+02  0.51100000000E-03 0. -1.
        -11    1    3    3    0    0  0.14824009811E+02 -0.30581891001E+01  0.39118739636E+01  0.15633507144E+02  0.51100000000E-03 0.  1.
        -12    1    3    3    0    0  0.45616486636E+01  0.36936258563E+01 -0.11196972382E+01  0.59753855441E+01  0.00000000000E+00 0.  1.
</event>
<event>
 7    1  0.1418970E-010  0.4778729E+02  0.7816164E-02  0.1312668E+00
        -11   -1    0    0    0    0  0.00000000000E+00  0.00000000000E+00  0.45593999997E+02  0.45594000000E+02  0.51100000000E-03 0.  1.
         11   -1    0    0    0    0 -0.00000000000E+00 -0.00000000000E+00 -0.45593999997E+02  0.45594000000E+02  0.51100000000E-03 0. -1.
    9900012    2    1    2    0    0 -0.23928195528E+02 -0.10054240526E+01  0.36194643936E+02  0.47787289540E+02  0.20000084328E+02 0.  0.
         12    1    1    2    0    0  0.23928195528E+02  0.10054240526E+01 -0.36194643936E+02  0.43400710460E+02  0.00000000000E+00 0. -1.
         11    1    3    3    0    0 -0.33195441153E+01 -0.54578114939E+01  0.38210684733E+01  0.74436311015E+01  0.51100000000E-03 0. -1.
        -11    1    3    3    0    0 -0.81548571586E+01 -0.38776396334E+01  0.13589455334E+02  0.16315976248E+02  0.51100000000E-03 0.  1.
         12    1    3    3    0    0 -0.12453794254E+02  0.83300270748E+01  0.18784120129E+02  0.24027682190E+02  0.00000000000E+00 0. -1.
</event>
<event>
 7    1  0.1418970E-010  0.4778727E+02  0.7816164E-02  0.1312668E+00
        -11   -1    0    0    0    0  0.00000000000E+00  0.00000000000E+00  0.45593999997E+02  0.45594000000E+02  0.51100000000E-03 0.  1.
         11   -1    0    0    0    0 -0.00000000000E+00 -0.00000000000E+00 -0.45593999997E+02  0.45594000000E+02  0.51100000000E-03 0. -1.
    9900012    2    1    2    0    0  0.47436614353E+01  0.23703871929E+02  0.36045077870E+02  0.47787268360E+02  0.19999987758E+02 0.  0.
         12    1    1    2    0    0 -0.47436614353E+01 -0.23703871929E+02 -0.36045077870E+02  0.43400731640E+02  0.00000000000E+00 0. -1.
         11    1    3    3    0    0 -0.68243939560E+01  0.14366543191E+02  0.17326471588E+02  0.23519705229E+02  0.51100000000E-03 0. -1.
        -11    1    3    3    0    0  0.46158916621E+01  0.62896471075E+01  0.84933539176E+01  0.11532700360E+02  0.51100000000E-03 0.  1.
        -12    1    3    3    0    0  0.69521637292E+01  0.30476816307E+01  0.10225252365E+02  0.12734862770E+02  0.00000000000E+00 0.  1.
</event>
<event>
 7    1  0.1418970E-010  0.4778731E+02  0.7816164E-02  0.1312668E+00
        -11   -1    0    0    0    0  0.00000000000E+00  0.00000000000E+00  0.45593999997E+02  0.45594000000E+02  0.51100000000E-03 0.  1.
         11   -1    0    0    0    0 -0.00000000000E+00 -0.00000000000E+00 -0.45593999997E+02  0.45594000000E+02  0.51100000000E-03 0. -1.
    9900012    2    1    2    0    0  0.11546195705E+02  0.63600068231E+01  0.41350396526E+02  0.47787313198E+02  0.20000192194E+02 0.  0.
         12    1    1    2    0    0 -0.11546195705E+02 -0.63600068231E+01 -0.41350396526E+02  0.43400686802E+02  0.00000000000E+00 0. -1.
         11    1    3    3    0    0  0.12337237180E+01  0.90481384781E+01  0.14390266836E+02  0.17043199934E+02  0.51100000000E-03 0. -1.
        -11    1    3    3    0    0  0.77622683887E+01  0.11922838402E+01  0.23963987762E+02  0.25217990820E+02  0.51100000000E-03 0.  1.
        -12    1    3    3    0    0  0.25502035983E+01 -0.38804154952E+01  0.29961419282E+01  0.55261224436E+01  0.00000000000E+00 0.  1.
</event>
<event>
 7    1  0.1418970E-010  0.4778727E+02  0.7816164E-02  0.1312668E+00
        -11   -1    0    0    0    0  0.00000000000E+00  0.00000000000E+00  0.45593999997E+02  0.45594000000E+02  0.51100000000E-03 0.  1.
         11   -1    0    0    0    0 -0.00000000000E+00 -0.00000000000E+00 -0.45593999997E+02  0.45594000000E+02  0.51100000000E-03 0. -1.
    9900012    2    1    2    0    0 -0.84772057245E+01  0.38362081148E+02 -0.18442101034E+02  0.47787269851E+02  0.19999994559E+02 0.  0.
         12    1    1    2    0    0  0.84772057245E+01 -0.38362081148E+02  0.18442101034E+02  0.43400730149E+02  0.00000000000E+00 0. -1.
         11    1    3    3    0    0 -0.85327754274E+01  0.41716411259E+01 -0.59729965463E+01  0.11219961416E+02  0.51100000000E-03 0. -1.
        -11    1    3    3    0    0 -0.16089955281E+01  0.15413746691E+02 -0.48942310480E+01  0.16251952236E+02  0.51100000000E-03 0.  1.
         12    1    3    3    0    0  0.16645652309E+01  0.18776693332E+02 -0.75748734393E+01  0.20315356199E+02  0.00000000000E+00 0. -1.
</event>
<event>
 7    1  0.1418970E-010  0.4778727E+02  0.7816164E-02  0.1312668E+00
        -11   -1    0    0    0    0  0.00000000000E+00  0.00000000000E+00  0.45593999997E+02  0.45594000000E+02  0.51100000000E-03 0.  1.
         11   -1    0    0    0    0 -0.00000000000E+00 -0.00000000000E+00 -0.45593999997E+02  0.45594000000E+02  0.51100000000E-03 0. -1.
    9900012    2    1    2    0    0 -0.26899153985E+02  0.20260003949E+02  0.27378660742E+02  0.47787270638E+02  0.19999998148E+02 0.  0.
         12    1    1    2    0    0  0.26899153985E+02 -0.20260003949E+02 -0.27378660742E+02  0.43400729362E+02  0.00000000000E+00 0. -1.
         11    1    3    3    0    0 -0.81744445925E+01  0.31022245306E+01  0.50012798963E+01  0.10072643263E+02  0.51100000000E-03 0. -1.
        -11    1    3    3    0    0 -0.63401706806E+01  0.10701561542E+02  0.19992422749E+02  0.23546085690E+02  0.51100000000E-03 0.  1.
         12    1    3    3    0    0 -0.12384538712E+02  0.64562178756E+01  0.23849580967E+01  0.14168541685E+02  0.00000000000E+00 0. -1.
</event>
<event>
 7    1  0.1418970E-010  0.4778727E+02  0.7816164E-02  0.1312668E+00
        -11   -1    0    0    0    0  0.00000000000E+00  0.00000000000E+00  0.45593999997E+02  0.45594000000E+02  0.51100000000E-03 0.  1.
         11   -1    0    0    0    0 -0.00000000000E+00 -0.00000000000E+00 -0.45593999997E+02  0.45594000000E+02  0.51100000000E-03 0. -1.
    9900012    2    1    2    0    0 -0.32223228105E+02 -0.33650067994E+01  0.28878426555E+02  0.47787271659E+02  0.20000002803E+02 0.  0.
         12    1    1    2    0    0  0.32223228105E+02  0.33650067994E+01 -0.28878426555E+02  0.43400728341E+02  0.00000000000E+00 0. -1.
         11    1    3    3    0    0  0.22041482488E+01 -0.89383943273E+00  0.31801591200E+01  0.39712253428E+01  0.51100000000E-03 0. -1.
        -11    1    3    3    0    0 -0.15335353935E+02 -0.51994667679E+01  0.11215141296E+02  0.19697383825E+02  0.51100000000E-03 0.  1.
        -12    1    3    3    0    0 -0.19092022418E+02  0.27282994013E+01  0.14483126138E+02  0.24118662492E+02  0.00000000000E+00 0.  1.
</event>
<event>
 7    1  0.1418970E-010  0.4778727E+02  0.7816164E-02  0.1312668E+00
        -11   -1    0    0    0    0  0.00000000000E+00  0.00000000000E+00  0.45593999997E+02  0.45594000000E+02  0.51100000000E-03 0.  1.
         11   -1    0    0    0    0 -0.00000000000E+00 -0.00000000000E+00 -0.45593999997E+02  0.45594000000E+02  0.51100000000E-03 0. -1.
    9900012    2    1    2    0    0  0.17996889044E+01 -0.18591570237E+02  0.39175730142E+02  0.47787271939E+02  0.20000004079E+02 0.  0.
         12    1    1    2    0    0 -0.17996889044E+01  0.18591570237E+02 -0.39175730142E+02  0.43400728061E+02  0.00000000000E+00 0. -1.
         11    1    3    3    0    0 -0.29750759936E+01  0.81995109149E+00  0.45717195011E+00  0.31196800178E+01  0.51100000000E-03 0. -1.
        -11    1    3    3    0    0 -0.16564517493E+01 -0.12066062162E+02  0.17618752229E+02  0.21418546143E+02  0.51100000000E-03 0.  1.
         12    1    3    3    0    0  0.64312166473E+01 -0.73454591663E+01  0.21099805963E+02  0.23249045778E+02  0.00000000000E+00 0. -1.
</event>
<event>
 7    1  0.1418970E-010  0.4778727E+02  0.7816164E-02  0.1312668E+00
        -11   -1    0    0    0    0  0.00000000000E+00  0.00000000000E+00  0.45593999997E+02  0.45594000000E+02  0.51100000000E-03 0.  1.
         11   -1    0    0    0    0 -0.00000000000E+00 -0.00000000000E+00 -0.45593999997E+02  0.45594000000E+02  0.51100000000E-03 0. -1.
    9900012    2    1    2    0    0 -0.35560915878E+02  0.22648008524E+01  0.24777314754E+02  0.47787269737E+02  0.19999994038E+02 0.  0.
         12    1    1    2    0    0  0.35560915878E+02 -0.22648008524E+01 -0.24777314754E+02  0.43400730263E+02  0.00000000000E+00 0. -1.
         11    1    3    3    0    0 -0.19030778695E+02  0.66532387268E+01  0.13421302175E+02  0.24219155139E+02  0.51100000000E-03 0. -1.
        -11    1    3    3    0    0 -0.16144291291E+02 -0.52963006590E+01  0.13173931971E+02  0.21499800599E+02  0.51100000000E-03 0.  1.
         12    1    3    3    0    0 -0.38584589137E+00  0.90786278463E+00 -0.18179193910E+01  0.20683139993E+01  0.00000000000E+00 0. -1.
</event>
<event>
 7    1  0.1418970E-010  0.4778727E+02  0.7816164E-02  0.1312668E+00
        -11   -1    0    0    0    0  0.00000000000E+00  0.00000000000E+00  0.45593999997E+02  0.45594000000E+02  0.51100000000E-03 0.  1.
         11   -1    0    0    0    0 -0.00000000000E+00 -0.00000000000E+00 -0.45593999997E+02  0.45594000000E+02  0.51100000000E-03 0. -1.
    9900012    2    1    2    0    0 -0.37051973548E+02  0.67626970532E+01  0.21564802841E+02  0.47787268015E+02  0.19999986187E+02 0.  0.
         12    1    1    2    0    0  0.37051973548E+02 -0.67626970532E+01 -0.21564802841E+02  0.43400731985E+02  0.00000000000E+00 0. -1.
         11    1    3    3    0    0 -0.91319310688E+01  0.25373106424E+01  0.11374660362E+02  0.14805843743E+02  0.51100000000E-03 0.  1.
        -11    1    3    3    0    0 -0.12072877020E+02 -0.40017084674E+01  0.79177223493E+01  0.14981934376E+02  0.51100000000E-03 0. -1.
         12    1    3    3    0    0 -0.15847165460E+02  0.82270948782E+01  0.22724201299E+01  0.17999489895E+02  0.00000000000E+00 0. -1.
</event>
<event>
 7    1  0.1418970E-010  0.4778727E+02  0.7816164E-02  0.1312668E+00
        -11   -1    0    0    0    0  0.00000000000E+00  0.00000000000E+00  0.45593999997E+02  0.45594000000E+02  0.51100000000E-03 0.  1.
         11   -1    0    0    0    0 -0.00000000000E+00 -0.00000000000E+00 -0.45593999997E+02  0.45594000000E+02  0.51100000000E-03 0. -1.
    9900012    2    1    2    0    0  0.26735579882E+02  0.27827496158E+02  0.19861090542E+02  0.47787266233E+02  0.19999978061E+02 0.  0.
         12    1    1    2    0    0 -0.26735579882E+02 -0.27827496158E+02 -0.19861090542E+02  0.43400733767E+02  0.00000000000E+00 0. -1.
         11    1    3    3    0    0  0.66989089407E+01  0.93027119795E+01  0.12649555878E+02  0.17071235906E+02  0.51100000000E-03 0.  1.
        -11    1    3    3    0    0  0.19364327697E+02  0.19523489737E+02  0.46537781753E+01  0.27889092676E+02  0.51100000000E-03 0. -1.
         12    1    3    3    0    0  0.67234324374E+00 -0.99870555901E+00  0.25577564883E+01  0.28269376513E+01  0.00000000000E+00 0. -1.
</event>
<event>
 7    1  0.1418970E-010  0.4778726E+02  0.7816164E-02  0.1312668E+00
        -11   -1    0    0    0    0  0.00000000000E+00  0.00000000000E+00  0.45593999997E+02  0.45594000000E+02  0.51100000000E-03 0.  1.
         11   -1    0    0    0    0 -0.00000000000E+00 -0.00000000000E+00 -0.45593999997E+02  0.45594000000E+02  0.51100000000E-03 0. -1.
    9900012    2    1    2    0    0 -0.12185499439E+02  0.26566623409E+01  0.41570178154E+02  0.47787263104E+02  0.19999963797E+02 0.  0.
         12    1    1    2    0    0  0.12185499439E+02 -0.26566623409E+01 -0.41570178154E+02  0.43400736896E+02  0.00000000000E+00 0. -1.
         11    1    3    3    0    0 -0.43508402386E+01  0.91651724530E-01  0.21672912862E+01  0.48616213963E+01  0.51100000000E-03 0. -1.
        -11    1    3    3    0    0 -0.47525432018E+01  0.86848335333E+01  0.26968480016E+02  0.28728242463E+02  0.51100000000E-03 0.  1.
        -12    1    3    3    0    0 -0.30821159984E+01 -0.61198229169E+01  0.12434406852E+02  0.14197399245E+02  0.00000000000E+00 0.  1.
</event>
<event>
 7    1  0.1418970E-010  0.4778727E+02  0.7816164E-02  0.1312668E+00
        -11   -1    0    0    0    0  0.00000000000E+00  0.00000000000E+00  0.45593999997E+02  0.45594000000E+02  0.51100000000E-03 0.  1.
         11   -1    0    0    0    0 -0.00000000000E+00 -0.00000000000E+00 -0.45593999997E+02  0.45594000000E+02  0.51100000000E-03 0. -1.
    9900012    2    1    2    0    0  0.95325958291E+01 -0.27455779094E+02  0.32232484610E+02  0.47787271284E+02  0.20000001094E+02 0.  0.
         12    1    1    2    0    0 -0.95325958291E+01  0.27455779094E+02 -0.32232484610E+02  0.43400728716E+02  0.00000000000E+00 0. -1.
         11    1    3    3    0    0  0.42809505265E+01 -0.87155978082E+01  0.51792896337E+01  0.11005145339E+02  0.51100000000E-03 0. -1.
        -11    1    3    3    0    0 -0.12842086552E+01 -0.15699733117E+02  0.24515529729E+02  0.29140041352E+02  0.51100000000E-03 0.  1.
         12    1    3    3    0    0  0.65358539578E+01 -0.30404481689E+01  0.25376652468E+01  0.76420845932E+01  0.00000000000E+00 0. -1.
</event>
<event>
 7    1  0.1418970E-010  0.4778727E+02  0.7816164E-02  0.1312668E+00
        -11   -1    0    0    0    0  0.00000000000E+00  0.00000000000E+00  0.45593999997E+02  0.45594000000E+02  0.51100000000E-03 0.  1.
         11   -1    0    0    0    0 -0.00000000000E+00 -0.00000000000E+00 -0.45593999997E+02  0.45594000000E+02  0.51100000000E-03 0. -1.
    9900012    2    1    2    0    0  0.38782384988E+02 -0.95778241490E+01  0.16965109236E+02  0.47787273829E+02  0.20000012697E+02 0.  0.
         12    1    1    2    0    0 -0.38782384988E+02  0.95778241490E+01 -0.16965109236E+02  0.43400726171E+02  0.00000000000E+00 0. -1.
         11    1    3    3    0    0  0.10642874335E+01 -0.44375759963E+01  0.12304596406E+01  0.47263960533E+01  0.51100000000E-03 0. -1.
        -11    1    3    3    0    0  0.23999668850E+02  0.26288130982E+01  0.75427256077E+01  0.25294020500E+02  0.51100000000E-03 0.  1.
        -12    1    3    3    0    0  0.13718428704E+02 -0.77690612510E+01  0.81919239876E+01  0.17766857275E+02  0.00000000000E+00 0.  1.
</event>
<event>
 7    1  0.1418970E-010  0.4778727E+02  0.7816164E-02  0.1312668E+00
        -11   -1    0    0    0    0  0.00000000000E+00  0.00000000000E+00  0.45593999997E+02  0.45594000000E+02  0.51100000000E-03 0.  1.
         11   -1    0    0    0    0 -0.00000000000E+00 -0.00000000000E+00 -0.45593999997E+02  0.45594000000E+02  0.51100000000E-03 0. -1.
    9900012    2    1    2    0    0 -0.41371106968E+02 -0.12765895500E+02 -0.30144870657E+01  0.47787265997E+02  0.19999976988E+02 0.  0.
         12    1    1    2    0    0  0.41371106968E+02  0.12765895500E+02  0.30144870657E+01  0.43400734003E+02  0.00000000000E+00 0. -1.
         11    1    3    3    0    0 -0.13351214390E+02 -0.19158759394E+01 -0.64663475794E+01  0.14957912875E+02  0.51100000000E-03 0. -1.
        -11    1    3    3    0    0 -0.15232976375E+02 -0.51501370696E+01  0.81950467420E+01  0.18047888309E+02  0.51100000000E-03 0.  1.
         12    1    3    3    0    0 -0.12786916204E+02 -0.56998824907E+01 -0.47431862283E+01  0.14781464812E+02  0.00000000000E+00 0. -1.
</event>
<event>
 7    1  0.1418970E-010  0.4778727E+02  0.7816164E-02  0.1312668E+00
        -11   -1    0    0    0    0  0.00000000000E+00  0.00000000000E+00  0.45593999997E+02  0.45594000000E+02  0.51100000000E-03 0.  1.
         11   -1    0    0    0    0 -0.00000000000E+00 -0.00000000000E+00 -0.45593999997E+02  0.45594000000E+02  0.51100000000E-03 0. -1.
    9900012    2    1    2    0    0  0.23846319860E+02 -0.19868653484E+01  0.36208130798E+02  0.47787270274E+02  0.19999996490E+02 0.  0.
         12    1    1    2    0    0 -0.23846319860E+02  0.19868653484E+01 -0.36208130798E+02  0.43400729726E+02  0.00000000000E+00 0. -1.
         11    1    3    3    0    0 -0.26997518390E+00 -0.13692063599E+01  0.79177899062E+01  0.80398389234E+01  0.51100000000E-03 0. -1.
        -11    1    3    3    0    0  0.67651145826E+01  0.36431026721E+01  0.16884136633E+02  0.18550284162E+02  0.51100000000E-03 0.  1.
        -12    1    3    3    0    0  0.17351180462E+02 -0.42607616606E+01  0.11406204259E+02  0.21197147189E+02  0.00000000000E+00 0.  1.
</event>
<event>
 7    1  0.1418970E-010  0.4778727E+02  0.7816164E-02  0.1312668E+00
        -11   -1    0    0    0    0  0.00000000000E+00  0.00000000000E+00  0.45593999997E+02  0.45594000000E+02  0.51100000000E-03 0.  1.
         11   -1    0    0    0    0 -0.00000000000E+00 -0.00000000000E+00 -0.45593999997E+02  0.45594000000E+02  0.51100000000E-03 0. -1.
    9900012    2    1    2    0    0  0.40366892441E+02 -0.10004598327E+02 -0.12411494625E+02  0.47787271990E+02  0.20000004310E+02 0.  0.
         12    1    1    2    0    0 -0.40366892441E+02  0.10004598327E+02  0.12411494625E+02  0.43400728010E+02  0.00000000000E+00 0. -1.
         11    1    3    3    0    0  0.41424768308E+01  0.27524821975E+01 -0.19167863834E+01  0.53301353493E+01  0.51100000000E-03 0.  1.
        -11    1    3    3    0    0  0.88809881317E+01 -0.10378404192E+02 -0.26845452959E+01  0.13920847944E+02  0.51100000000E-03 0. -1.
         12    1    3    3    0    0  0.27343427478E+02 -0.23786763324E+01 -0.78101629453E+01  0.28536288697E+02  0.00000000000E+00 0. -1.
</event>
<event>
 7    1  0.1418970E-010  0.4778727E+02  0.7816164E-02  0.1312668E+00
        -11   -1    0    0    0    0  0.00000000000E+00  0.00000000000E+00  0.45593999997E+02  0.45594000000E+02  0.51100000000E-03 0.  1.
         11   -1    0    0    0    0 -0.00000000000E+00 -0.00000000000E+00 -0.45593999997E+02  0.45594000000E+02  0.51100000000E-03 0. -1.
    9900012    2    1    2    0    0  0.41265124918E+02  0.89901957752E+01  0.99994522035E+01  0.47787271908E+02  0.20000003935E+02 0.  0.
         12    1    1    2    0    0 -0.41265124918E+02 -0.89901957752E+01 -0.99994522035E+01  0.43400728092E+02  0.00000000000E+00 0. -1.
         11    1    3    3    0    0  0.93574221186E+01  0.27519897535E+01 -0.48336675412E+01  0.10885730957E+02  0.51100000000E-03 0. -1.
        -11    1    3    3    0    0  0.71019833328E+01  0.53733454157E+01  0.49201765153E+01  0.10174435877E+02  0.51100000000E-03 0.  1.
        -12    1    3    3    0    0  0.24805719467E+02  0.86486060596E+00  0.99129432294E+01  0.26727105073E+02  0.00000000000E+00 0.  1.
</event>
<event>
 7    1  0.1418970E-010  0.4778726E+02  0.7816164E-02  0.1312668E+00
        -11   -1    0    0    0    0  0.00000000000E+00  0.00000000000E+00  0.45593999997E+02  0.45594000000E+02  0.51100000000E-03 0.  1.
         11   -1    0    0    0    0 -0.00000000000E+00 -0.00000000000E+00 -0.45593999997E+02  0.45594000000E+02  0.51100000000E-03 0. -1.
    9900012    2    1    2    0    0  0.77249809371E+01 -0.33231498324E+02  0.26825672238E+02  0.47787256892E+02  0.19999935471E+02 0.  0.
         12    1    1    2    0    0 -0.77249809371E+01  0.33231498324E+02 -0.26825672238E+02  0.43400743108E+02  0.00000000000E+00 0. -1.
         11    1    3    3    0    0 -0.19416228719E+01  0.30900973150E-01  0.39093257161E+01  0.43650523550E+01  0.51100000000E-03 0. -1.
        -11    1    3    3    0    0  0.10868259484E+02 -0.14789038832E+02  0.12071226245E+02  0.21967003371E+02  0.51100000000E-03 0.  1.
         12    1    3    3    0    0 -0.12016556746E+01 -0.18473360465E+02  0.10845120277E+02  0.21455201166E+02  0.00000000000E+00 0. -1.
</event>
<event>
 7    1  0.1418970E-010  0.4778727E+02  0.7816164E-02  0.1312668E+00
        -11   -1    0    0    0    0  0.00000000000E+00  0.00000000000E+00  0.45593999997E+02  0.45594000000E+02  0.51100000000E-03 0. -1.
         11   -1    0    0    0    0 -0.00000000000E+00 -0.00000000000E+00 -0.45593999997E+02  0.45594000000E+02  0.51100000000E-03 0.  1.
    9900012    2    1    2    0    0  0.29776651982E+02 -0.30758643677E+02 -0.71330282924E+01  0.47787271242E+02  0.20000000900E+02 0.  0.
         12    1    1    2    0    0 -0.29776651982E+02  0.30758643677E+02  0.71330282924E+01  0.43400728758E+02  0.00000000000E+00 0. -1.
         11    1    3    3    0    0  0.84438021289E+01 -0.50705212765E+01  0.41149311084E+01  0.10674298042E+02  0.51100000000E-03 0. -1.
        -11    1    3    3    0    0  0.12207081117E+01 -0.94216437472E+01 -0.29736265196E+01  0.99548959880E+01  0.51100000000E-03 0.  1.
        -12    1    3    3    0    0  0.20112141741E+02 -0.16266478654E+02 -0.82743328812E+01  0.27158077212E+02  0.00000000000E+00 0.  1.
</event>
<event>
 7    1  0.1418970E-010  0.4778727E+02  0.7816164E-02  0.1312668E+00
        -11   -1    0    0    0    0  0.00000000000E+00  0.00000000000E+00  0.45593999997E+02  0.45594000000E+02  0.51100000000E-03 0.  1.
         11   -1    0    0    0    0 -0.00000000000E+00 -0.00000000000E+00 -0.45593999997E+02  0.45594000000E+02  0.51100000000E-03 0. -1.
    9900012    2    1    2    0    0 -0.22616929785E+02 -0.80180882930E+01  0.36163627108E+02  0.47787272144E+02  0.20000005016E+02 0.  0.
         12    1    1    2    0    0  0.22616929785E+02  0.80180882930E+01 -0.36163627108E+02  0.43400727856E+02  0.00000000000E+00 0. -1.
         11    1    3    3    0    0 -0.47279362622E-01 -0.25961457821E+01 -0.13906224803E+01  0.29455117389E+01  0.51100000000E-03 0. -1.
        -11    1    3    3    0    0 -0.96206350931E+01  0.62298561541E-01  0.98279333058E+01  0.13753136880E+02  0.51100000000E-03 0.  1.
        -12    1    3    3    0    0 -0.12949015329E+02 -0.54842410724E+01  0.27726316283E+02  0.31088623526E+02  0.00000000000E+00 0.  1.
</event>
<event>
 7    1  0.1418970E-010  0.4778727E+02  0.7816164E-02  0.1312668E+00
        -11   -1    0    0    0    0  0.00000000000E+00  0.00000000000E+00  0.45593999997E+02  0.45594000000E+02  0.51100000000E-03 0. -1.
         11   -1    0    0    0    0 -0.00000000000E+00 -0.00000000000E+00 -0.45593999997E+02  0.45594000000E+02  0.51100000000E-03 0.  1.
    9900012    2    1    2    0    0 -0.25099267067E+01 -0.43072197041E+02 -0.47020645977E+01  0.47787270726E+02  0.19999998550E+02 0.  0.
         12    1    1    2    0    0  0.25099267067E+01  0.43072197041E+02  0.47020645977E+01  0.43400729274E+02  0.00000000000E+00 0. -1.
         11    1    3    3    0    0  0.12656716070E+01 -0.23852865034E+02 -0.42327885458E+01  0.24258557131E+02  0.51100000000E-03 0. -1.
        -11    1    3    3    0    0 -0.55826585903E+01 -0.16765137865E+02  0.40018201130E+01  0.18117684428E+02  0.51100000000E-03 0.  1.
         12    1    3    3    0    0  0.18070602765E+01 -0.24541941415E+01 -0.44710961650E+01  0.54110291667E+01  0.00000000000E+00 0. -1.
</event>
<event>
 7    1  0.1418970E-010  0.4778727E+02  0.7816164E-02  0.1312668E+00
        -11   -1    0    0    0    0  0.00000000000E+00  0.00000000000E+00  0.45593999997E+02  0.45594000000E+02  0.51100000000E-03 0. -1.
         11   -1    0    0    0    0 -0.00000000000E+00 -0.00000000000E+00 -0.45593999997E+02  0.45594000000E+02  0.51100000000E-03 0.  1.
    9900012    2    1    2    0    0 -0.14064690881E+02  0.60921792465E+01 -0.40604101986E+02  0.47787271024E+02  0.19999999908E+02 0.  0.
         12    1    1    2    0    0  0.14064690881E+02 -0.60921792465E+01  0.40604101986E+02  0.43400728976E+02  0.00000000000E+00 0. -1.
         11    1    3    3    0    0 -0.72367171888E+01  0.11719495917E+02 -0.18849840055E+02  0.23345944628E+02  0.51100000000E-03 0. -1.
        -11    1    3    3    0    0 -0.19267429387E+01 -0.80145101525E+00 -0.13663499387E+02  0.13821934663E+02  0.51100000000E-03 0.  1.
         12    1    3    3    0    0 -0.49012307536E+01 -0.48258656557E+01 -0.80907625443E+01  0.10619391733E+02  0.00000000000E+00 0. -1.
</event>
<event>
 7    1  0.1418970E-010  0.4778727E+02  0.7816164E-02  0.1312668E+00
        -11   -1    0    0    0    0  0.00000000000E+00  0.00000000000E+00  0.45593999997E+02  0.45594000000E+02  0.51100000000E-03 0.  1.
         11   -1    0    0    0    0 -0.00000000000E+00 -0.00000000000E+00 -0.45593999997E+02  0.45594000000E+02  0.51100000000E-03 0. -1.
    9900012    2    1    2    0    0  0.32318515049E+02 -0.25511388846E+02 -0.13722453583E+02  0.47787272954E+02  0.20000008704E+02 0.  0.
         12    1    1    2    0    0 -0.32318515049E+02  0.25511388846E+02  0.13722453583E+02  0.43400727046E+02  0.00000000000E+00 0. -1.
         11    1    3    3    0    0  0.17625092815E+02 -0.23814494652E+01 -0.39538794099E+01  0.18219450072E+02  0.51100000000E-03 0. -1.
        -11    1    3    3    0    0  0.20524039040E+01 -0.60936640893E+01 -0.60188804325E+00  0.64581245959E+01  0.51100000000E-03 0.  1.
         12    1    3    3    0    0  0.12641018330E+02 -0.17036275292E+02 -0.91666861303E+01  0.23109698285E+02  0.00000000000E+00 0. -1.
</event>
<event>
 7    1  0.1418970E-010  0.4778727E+02  0.7816164E-02  0.1312668E+00
        -11   -1    0    0    0    0  0.00000000000E+00  0.00000000000E+00  0.45593999997E+02  0.45594000000E+02  0.51100000000E-03 0. -1.
         11   -1    0    0    0    0 -0.00000000000E+00 -0.00000000000E+00 -0.45593999997E+02  0.45594000000E+02  0.51100000000E-03 0.  1.
    9900012    2    1    2    0    0 -0.10262785914E+02  0.12332536564E+02 -0.40326257003E+02  0.47787271473E+02  0.20000001954E+02 0.  0.
         12    1    1    2    0    0  0.10262785914E+02 -0.12332536564E+02  0.40326257003E+02  0.43400728527E+02  0.00000000000E+00 0. -1.
         11    1    3    3    0    0 -0.77107902853E+01  0.10054099195E+02 -0.30055348432E+02  0.32616946011E+02  0.51100000000E-03 0.  1.
        -11    1    3    3    0    0  0.11588528340E+01 -0.24076827212E+01 -0.85385564394E+01  0.89468889737E+01  0.51100000000E-03 0. -1.
         12    1    3    3    0    0 -0.37108484630E+01  0.46861200911E+01 -0.17323521314E+01  0.62234364888E+01  0.00000000000E+00 0. -1.
</event>
<event>
 7    1  0.1418970E-010  0.4778727E+02  0.7816164E-02  0.1312668E+00
        -11   -1    0    0    0    0  0.00000000000E+00  0.00000000000E+00  0.45593999997E+02  0.45594000000E+02  0.51100000000E-03 0.  1.
         11   -1    0    0    0    0 -0.00000000000E+00 -0.00000000000E+00 -0.45593999997E+02  0.45594000000E+02  0.51100000000E-03 0. -1.
    9900012    2    1    2    0    0  0.12997428829E+02  0.22647007978E+02  0.34667032038E+02  0.47787271471E+02  0.20000001947E+02 0.  0.
         12    1    1    2    0    0 -0.12997428829E+02 -0.22647007978E+02 -0.34667032038E+02  0.43400728529E+02  0.00000000000E+00 0. -1.
         11    1    3    3    0    0  0.50679824894E+00  0.89753534664E+01  0.12761210951E+01  0.90797742055E+01  0.51100000000E-03 0. -1.
        -11    1    3    3    0    0  0.80291745639E+01  0.51620221872E+01  0.12632956548E+02  0.15833689041E+02  0.51100000000E-03 0.  1.
         12    1    3    3    0    0  0.44614560158E+01  0.85096323244E+01  0.20757954394E+02  0.22873808225E+02  0.00000000000E+00 0. -1.
</event>
<event>
 7    1  0.1418970E-010  0.4778727E+02  0.7816164E-02  0.1312668E+00
        -11   -1    0    0    0    0  0.00000000000E+00  0.00000000000E+00  0.45593999997E+02  0.45594000000E+02  0.51100000000E-03 0. -1.
         11   -1    0    0    0    0 -0.00000000000E+00 -0.00000000000E+00 -0.45593999997E+02  0.45594000000E+02  0.51100000000E-03 0.  1.
    9900012    2    1    2    0    0 -0.26137898522E+01 -0.43163682835E+02  0.36996959863E+01  0.47787272314E+02  0.20000005789E+02 0.  0.
         12    1    1    2    0    0  0.26137898522E+01  0.43163682835E+02 -0.36996959863E+01  0.43400727686E+02  0.00000000000E+00 0. -1.
         11    1    3    3    0    0 -0.87473148623E+01 -0.96199759963E+01  0.14483631615E+00  0.13003093220E+02  0.51100000000E-03 0. -1.
        -11    1    3    3    0    0  0.23821694087E+01 -0.25544404996E+02  0.38582144726E+01  0.25943730974E+02  0.51100000000E-03 0.  1.
         12    1    3    3    0    0  0.37513556014E+01 -0.79993018429E+01 -0.30335480247E+00  0.88404481198E+01  0.00000000000E+00 0. -1.
</event>
<event>
 7    1  0.1418970E-010  0.4778726E+02  0.7816164E-02  0.1312668E+00
        -11   -1    0    0    0    0  0.00000000000E+00  0.00000000000E+00  0.45593999997E+02  0.45594000000E+02  0.51100000000E-03 0.  1.
         11   -1    0    0    0    0 -0.00000000000E+00 -0.00000000000E+00 -0.45593999997E+02  0.45594000000E+02  0.51100000000E-03 0. -1.
    9900012    2    1    2    0    0 -0.23723148180E+01 -0.17763503880E+02  0.39527889173E+02  0.47787263023E+02  0.19999963427E+02 0.  0.
         12    1    1    2    0    0  0.23723148180E+01  0.17763503880E+02 -0.39527889173E+02  0.43400736977E+02  0.00000000000E+00 0. -1.
         11    1    3    3    0    0 -0.23705092196E+01 -0.11588971433E+02  0.19520473604E+02  0.22824821200E+02  0.51100000000E-03 0. -1.
        -11    1    3    3    0    0  0.67628235015E+01 -0.28121901028E+01  0.88398571058E+01  0.11479863623E+02  0.51100000000E-03 0.  1.
         12    1    3    3    0    0 -0.67646290999E+01 -0.33623423443E+01  0.11167558463E+02  0.13482578201E+02  0.00000000000E+00 0. -1.
</event>
<event>
 7    1  0.1418970E-010  0.4778727E+02  0.7816164E-02  0.1312668E+00
        -11   -1    0    0    0    0  0.00000000000E+00  0.00000000000E+00  0.45593999997E+02  0.45594000000E+02  0.51100000000E-03 0. -1.
         11   -1    0    0    0    0 -0.00000000000E+00 -0.00000000000E+00 -0.45593999997E+02  0.45594000000E+02  0.51100000000E-03 0.  1.
    9900012    2    1    2    0    0  0.57175098728E+01 -0.13653692430E+02 -0.40798406791E+02  0.47787271518E+02  0.20000002159E+02 0.  0.
         12    1    1    2    0    0 -0.57175098728E+01  0.13653692430E+02  0.40798406791E+02  0.43400728482E+02  0.00000000000E+00 0. -1.
         11    1    3    3    0    0  0.35743619227E+01  0.72410062701E+00 -0.83522190790E+01  0.91137230964E+01  0.51100000000E-03 0. -1.
        -11    1    3    3    0    0 -0.18556456388E+01 -0.79040795790E+01 -0.36728804885E+01  0.89111136269E+01  0.51100000000E-03 0.  1.
        -12    1    3    3    0    0  0.39987935888E+01 -0.64737134777E+01 -0.28773307223E+02  0.29762434795E+02  0.00000000000E+00 0.  1.
</event>
<event>
 7    1  0.1418970E-010  0.4778727E+02  0.7816164E-02  0.1312668E+00
        -11   -1    0    0    0    0  0.00000000000E+00  0.00000000000E+00  0.45593999997E+02  0.45594000000E+02  0.51100000000E-03 0.  1.
         11   -1    0    0    0    0 -0.00000000000E+00 -0.00000000000E+00 -0.45593999997E+02  0.45594000000E+02  0.51100000000E-03 0. -1.
    9900012    2    1    2    0    0 -0.36468426010E+02 -0.60640462105E+01  0.22735535201E+02  0.47787270594E+02  0.19999997948E+02 0.  0.
         12    1    1    2    0    0  0.36468426010E+02  0.60640462105E+01 -0.22735535201E+02  0.43400729406E+02  0.00000000000E+00 0. -1.
         11    1    3    3    0    0  0.49193171595E+00 -0.12843934994E+01  0.15393913595E+01  0.20643133224E+01  0.51100000000E-03 0. -1.
        -11    1    3    3    0    0 -0.26967783767E+02  0.32243129283E+01  0.17814433767E+02  0.32480942195E+02  0.51100000000E-03 0.  1.
        -12    1    3    3    0    0 -0.99925739586E+01 -0.80039656395E+01  0.33817100744E+01  0.13242015077E+02  0.00000000000E+00 0.  1.
</event>
<event>
 7    1  0.1418970E-010  0.4778728E+02  0.7816164E-02  0.1312668E+00
        -11   -1    0    0    0    0  0.00000000000E+00  0.00000000000E+00  0.45593999997E+02  0.45594000000E+02  0.51100000000E-03 0.  1.
         11   -1    0    0    0    0 -0.00000000000E+00 -0.00000000000E+00 -0.45593999997E+02  0.45594000000E+02  0.51100000000E-03 0. -1.
    9900012    2    1    2    0    0 -0.31880308257E+02  0.15140935184E+02  0.25259061477E+02  0.47787283883E+02  0.20000058534E+02 0.  0.
         12    1    1    2    0    0  0.31880308257E+02 -0.15140935184E+02 -0.25259061477E+02  0.43400716117E+02  0.00000000000E+00 0. -1.
         11    1    3    3    0    0 -0.28059743790E+02  0.90264076112E+01  0.14835157989E+02  0.32998593435E+02  0.51100000000E-03 0. -1.
        -11    1    3    3    0    0 -0.56427010212E+01  0.51273883646E+01  0.10155563745E+02  0.12699041755E+02  0.51100000000E-03 0.  1.
         12    1    3    3    0    0  0.18221365541E+01  0.98713920833E+00  0.26833974365E+00  0.20896486921E+01  0.00000000000E+00 0. -1.
</event>
<event>
 7    1  0.1418970E-010  0.4778726E+02  0.7816164E-02  0.1312668E+00
        -11   -1    0    0    0    0  0.00000000000E+00  0.00000000000E+00  0.45593999997E+02  0.45594000000E+02  0.51100000000E-03 0.  1.
         11   -1    0    0    0    0 -0.00000000000E+00 -0.00000000000E+00 -0.45593999997E+02  0.45594000000E+02  0.51100000000E-03 0. -1.
    9900012    2    1    2    0    0  0.30174199016E+02  0.26716460276E+02 -0.16105062248E+02  0.47787256159E+02  0.19999932132E+02 0.  0.
         12    1    1    2    0    0 -0.30174199016E+02 -0.26716460276E+02  0.16105062248E+02  0.43400743841E+02  0.00000000000E+00 0. -1.
         11    1    3    3    0    0  0.17192799071E+02  0.16587701169E+02 -0.11242726820E+02  0.26403467132E+02  0.51100000000E-03 0. -1.
        -11    1    3    3    0    0  0.10213263611E+02 -0.10537790517E+00 -0.26811108498E+01  0.10559839664E+02  0.51100000000E-03 0.  1.
         12    1    3    3    0    0  0.27681363337E+01  0.10234137012E+02 -0.21812245785E+01  0.10823949363E+02  0.00000000000E+00 0. -1.
</event>
<event>
 7    1  0.1418970E-010  0.4778728E+02  0.7816164E-02  0.1312668E+00
        -11   -1    0    0    0    0  0.00000000000E+00  0.00000000000E+00  0.45593999997E+02  0.45594000000E+02  0.51100000000E-03 0.  1.
         11   -1    0    0    0    0 -0.00000000000E+00 -0.00000000000E+00 -0.45593999997E+02  0.45594000000E+02  0.51100000000E-03 0. -1.
    9900012    2    1    2    0    0 -0.56442267694E+01 -0.16246784325E+02  0.39847303778E+02  0.47787275178E+02  0.20000018845E+02 0.  0.
         12    1    1    2    0    0  0.56442267694E+01  0.16246784325E+02 -0.39847303778E+02  0.43400724822E+02  0.00000000000E+00 0. -1.
         11    1    3    3    0    0 -0.15671508285E+01 -0.44214163179E+01  0.15670603658E+02  0.16357649686E+02  0.51100000000E-03 0.  1.
        -11    1    3    3    0    0 -0.39215772124E+01 -0.63689696655E+01  0.24830002116E+02  0.25932056373E+02  0.51100000000E-03 0. -1.
         12    1    3    3    0    0 -0.15549872844E+00 -0.54563983416E+01 -0.65330199541E+00  0.54975691187E+01  0.00000000000E+00 0. -1.
</event>
<event>
 7    1  0.1418970E-010  0.4778727E+02  0.7816164E-02  0.1312668E+00
        -11   -1    0    0    0    0  0.00000000000E+00  0.00000000000E+00  0.45593999997E+02  0.45594000000E+02  0.51100000000E-03 0.  1.
         11   -1    0    0    0    0 -0.00000000000E+00 -0.00000000000E+00 -0.45593999997E+02  0.45594000000E+02  0.51100000000E-03 0. -1.
    9900012    2    1    2    0    0 -0.33824285534E+02 -0.20513563277E+02  0.17853141434E+02  0.47787271558E+02  0.20000002342E+02 0.  0.
         12    1    1    2    0    0  0.33824285534E+02  0.20513563277E+02 -0.17853141434E+02  0.43400728442E+02  0.00000000000E+00 0. -1.
         11    1    3    3    0    0 -0.23792016503E+01 -0.63860796235E+01  0.60320063701E+01  0.91009732755E+01  0.51100000000E-03 0. -1.
        -11    1    3    3    0    0 -0.16087236996E+02 -0.14218663730E+02  0.65017475563E+01  0.22433062965E+02  0.51100000000E-03 0.  1.
        -12    1    3    3    0    0 -0.15357846888E+02  0.91180076690E-01  0.53193875077E+01  0.16253235318E+02  0.00000000000E+00 0.  1.
</event>
<event>
 7    1  0.1418970E-010  0.4778727E+02  0.7816164E-02  0.1312668E+00
        -11   -1    0    0    0    0  0.00000000000E+00  0.00000000000E+00  0.45593999997E+02  0.45594000000E+02  0.51100000000E-03 0.  1.
         11   -1    0    0    0    0 -0.00000000000E+00 -0.00000000000E+00 -0.45593999997E+02  0.45594000000E+02  0.51100000000E-03 0. -1.
    9900012    2    1    2    0    0 -0.77591507356E+01 -0.41995640238E+02  0.77320597657E+01  0.47787274575E+02  0.20000016098E+02 0.  0.
         12    1    1    2    0    0  0.77591507356E+01  0.41995640238E+02 -0.77320597657E+01  0.43400725425E+02  0.00000000000E+00 0. -1.
         11    1    3    3    0    0 -0.13948509378E+01 -0.15405703633E+02  0.12243050634E+02  0.19727483435E+02  0.51100000000E-03 0. -1.
        -11    1    3    3    0    0 -0.40856011162E+01 -0.95154573149E+01 -0.46919879251E+00  0.10366108824E+02  0.51100000000E-03 0.  1.
         12    1    3    3    0    0 -0.22786986816E+01 -0.17074479290E+02 -0.40417920759E+01  0.17693682316E+02  0.00000000000E+00 0. -1.
</event>
<event>
 7    1  0.1418970E-010  0.4778727E+02  0.7816164E-02  0.1312668E+00
        -11   -1    0    0    0    0  0.00000000000E+00  0.00000000000E+00  0.45593999997E+02  0.45594000000E+02  0.51100000000E-03 0.  1.
         11   -1    0    0    0    0 -0.00000000000E+00 -0.00000000000E+00 -0.45593999997E+02  0.45594000000E+02  0.51100000000E-03 0. -1.
    9900012    2    1    2    0    0 -0.34303228663E+02 -0.11517255523E+02  0.23963816323E+02  0.47787272307E+02  0.20000005757E+02 0.  0.
         12    1    1    2    0    0  0.34303228663E+02  0.11517255523E+02 -0.23963816323E+02  0.43400727693E+02  0.00000000000E+00 0. -1.
         11    1    3    3    0    0 -0.12472261947E+02 -0.38394806187E+00  0.13283179975E+01  0.12548671769E+02  0.51100000000E-03 0. -1.
        -11    1    3    3    0    0 -0.20174393295E+02 -0.53703999611E+01  0.16059605956E+02  0.26339291644E+02  0.51100000000E-03 0.  1.
         12    1    3    3    0    0 -0.16565734212E+01 -0.57629075000E+01  0.65758923691E+01  0.88993088947E+01  0.00000000000E+00 0. -1.
</event>
<event>
 7    1  0.1418970E-010  0.4778727E+02  0.7816164E-02  0.1312668E+00
        -11   -1    0    0    0    0  0.00000000000E+00  0.00000000000E+00  0.45593999997E+02  0.45594000000E+02  0.51100000000E-03 0.  1.
         11   -1    0    0    0    0 -0.00000000000E+00 -0.00000000000E+00 -0.45593999997E+02  0.45594000000E+02  0.51100000000E-03 0. -1.
    9900012    2    1    2    0    0  0.24767789041E+02 -0.86871965677E+01  0.34564613297E+02  0.47787271313E+02  0.20000001223E+02 0.  0.
         12    1    1    2    0    0 -0.24767789041E+02  0.86871965677E+01 -0.34564613297E+02  0.43400728687E+02  0.00000000000E+00 0. -1.
         11    1    3    3    0    0  0.16931648140E+02 -0.58262441605E+01  0.12831602791E+02  0.22028977739E+02  0.51100000000E-03 0. -1.
        -11    1    3    3    0    0  0.93851891938E+01 -0.39851386102E+01  0.21544000877E+02  0.23834996958E+02  0.51100000000E-03 0.  1.
         12    1    3    3    0    0 -0.15490482930E+01  0.11241862029E+01  0.18900962936E+00  0.19232966160E+01  0.00000000000E+00 0. -1.
</event>
<event>
 7    1  0.1418970E-010  0.4778728E+02  0.7816164E-02  0.1312668E+00
        -11   -1    0    0    0    0  0.00000000000E+00  0.00000000000E+00  0.45593999997E+02  0.45594000000E+02  0.51100000000E-03 0. -1.
         11   -1    0    0    0    0 -0.00000000000E+00 -0.00000000000E+00 -0.45593999997E+02  0.45594000000E+02  0.51100000000E-03 0.  1.
    9900012    2    1    2    0    0 -0.67653136378E+01 -0.41697818648E+02 -0.99571685851E+01  0.47787277024E+02  0.20000027264E+02 0.  0.
         12    1    1    2    0    0  0.67653136378E+01  0.41697818648E+02  0.99571685851E+01  0.43400722976E+02  0.00000000000E+00 0. -1.
         11    1    3    3    0    0  0.31286420457E-01 -0.53799188372E+01  0.30423873125E+01  0.61806655269E+01  0.51100000000E-03 0. -1.
        -11    1    3    3    0    0 -0.92487329871E+01 -0.23304229382E+02 -0.13256871591E+02  0.28361431797E+02  0.51100000000E-03 0.  1.
        -12    1    3    3    0    0  0.24521329289E+01 -0.13013670429E+02  0.25731569344E+00  0.13245179700E+02  0.00000000000E+00 0.  1.
</event>
<event>
 7    1  0.1418970E-010  0.4778728E+02  0.7816164E-02  0.1312668E+00
        -11   -1    0    0    0    0  0.00000000000E+00  0.00000000000E+00  0.45593999997E+02  0.45594000000E+02  0.51100000000E-03 0.  1.
         11   -1    0    0    0    0 -0.00000000000E+00 -0.00000000000E+00 -0.45593999997E+02  0.45594000000E+02  0.51100000000E-03 0. -1.
    9900012    2    1    2    0    0 -0.18923526430E+02 -0.13144288659E+02  0.36779759826E+02  0.47787275240E+02  0.20000019128E+02 0.  0.
         12    1    1    2    0    0  0.18923526430E+02  0.13144288659E+02 -0.36779759826E+02  0.43400724760E+02  0.00000000000E+00 0. -1.
         11    1    3    3    0    0 -0.53681746522E+01 -0.10394990145E+02  0.16326977256E+02  0.20085898182E+02  0.51100000000E-03 0. -1.
        -11    1    3    3    0    0 -0.15640704545E+02 -0.63737941409E+00  0.17969831137E+02  0.23831758696E+02  0.51100000000E-03 0.  1.
         12    1    3    3    0    0  0.20853527675E+01 -0.21119191002E+01  0.24829514326E+01  0.38696183620E+01  0.00000000000E+00 0. -1.
</event>
<event>
 7    1  0.1418970E-010  0.4778727E+02  0.7816164E-02  0.1312668E+00
        -11   -1    0    0    0    0  0.00000000000E+00  0.00000000000E+00  0.45593999997E+02  0.45594000000E+02  0.51100000000E-03 0.  1.
         11   -1    0    0    0    0 -0.00000000000E+00 -0.00000000000E+00 -0.45593999997E+02  0.45594000000E+02  0.51100000000E-03 0. -1.
    9900012    2    1    2    0    0 -0.39149147542E+02  0.70887059319E+01  0.17341227525E+02  0.47787266399E+02  0.19999978820E+02 0.  0.
         12    1    1    2    0    0  0.39149147542E+02 -0.70887059319E+01 -0.17341227525E+02  0.43400733601E+02  0.00000000000E+00 0. -1.
         11    1    3    3    0    0 -0.14710676951E+02  0.64096098764E+00  0.25982354216E+01  0.14952112724E+02  0.51100000000E-03 0. -1.
        -11    1    3    3    0    0 -0.19529347416E+02 -0.23216227003E+00  0.52337417690E+01  0.20219825988E+02  0.51100000000E-03 0.  1.
        -12    1    3    3    0    0 -0.49091231742E+01  0.66799072143E+01  0.95092503341E+01  0.12615327687E+02  0.00000000000E+00 0.  1.
</event>
<event>
 7    1  0.1418970E-010  0.4778727E+02  0.7816164E-02  0.1312668E+00
        -11   -1    0    0    0    0  0.00000000000E+00  0.00000000000E+00  0.45593999997E+02  0.45594000000E+02  0.51100000000E-03 0.  1.
         11   -1    0    0    0    0 -0.00000000000E+00 -0.00000000000E+00 -0.45593999997E+02  0.45594000000E+02  0.51100000000E-03 0. -1.
    9900012    2    1    2    0    0  0.19595014770E+02  0.38542975343E+02  0.37547150425E+01  0.47787269163E+02  0.19999991423E+02 0.  0.
         12    1    1    2    0    0 -0.19595014770E+02 -0.38542975343E+02 -0.37547150425E+01  0.43400730837E+02  0.00000000000E+00 0. -1.
         11    1    3    3    0    0  0.49888256200E+01  0.68644795127E+00  0.27077908846E+01  0.57176676706E+01  0.51100000000E-03 0. -1.
        -11    1    3    3    0    0 -0.18367707466E+00  0.35066804991E+01  0.30022511345E+01  0.46199629356E+01  0.51100000000E-03 0.  1.
         12    1    3    3    0    0  0.14789866225E+02  0.34349846892E+02 -0.19553269765E+01  0.37449638557E+02  0.00000000000E+00 0. -1.
</event>
<event>
 7    1  0.1418970E-010  0.4778727E+02  0.7816164E-02  0.1312668E+00
        -11   -1    0    0    0    0  0.00000000000E+00  0.00000000000E+00  0.45593999997E+02  0.45594000000E+02  0.51100000000E-03 0. -1.
         11   -1    0    0    0    0 -0.00000000000E+00 -0.00000000000E+00 -0.45593999997E+02  0.45594000000E+02  0.51100000000E-03 0.  1.
    9900012    2    1    2    0    0  0.34576026701E+02  0.21297990511E+02 -0.15313957491E+02  0.47787270556E+02  0.19999997774E+02 0.  0.
         12    1    1    2    0    0 -0.34576026701E+02 -0.21297990511E+02  0.15313957491E+02  0.43400729444E+02  0.00000000000E+00 0. -1.
         11    1    3    3    0    0  0.10572190209E+02  0.10738632635E+02 -0.30100024678E+01  0.15367158222E+02  0.51100000000E-03 0.  1.
        -11    1    3    3    0    0  0.48452940328E+01 -0.32491677856E+01 -0.50471261362E+01  0.77141070811E+01  0.51100000000E-03 0. -1.
         12    1    3    3    0    0  0.19158542459E+02  0.13808525661E+02 -0.72568288867E+01  0.24706005254E+02  0.00000000000E+00 0. -1.
</event>
<event>
 7    1  0.1418970E-010  0.4778727E+02  0.7816164E-02  0.1312668E+00
        -11   -1    0    0    0    0  0.00000000000E+00  0.00000000000E+00  0.45593999997E+02  0.45594000000E+02  0.51100000000E-03 0.  1.
         11   -1    0    0    0    0 -0.00000000000E+00 -0.00000000000E+00 -0.45593999997E+02  0.45594000000E+02  0.51100000000E-03 0. -1.
    9900012    2    1    2    0    0  0.76780602777E+01 -0.18932884938E+02  0.38291204881E+02  0.47787272899E+02  0.20000008455E+02 0.  0.
         12    1    1    2    0    0 -0.76780602777E+01  0.18932884938E+02 -0.38291204881E+02  0.43400727101E+02  0.00000000000E+00 0. -1.
         11    1    3    3    0    0  0.22972700686E+01 -0.12721930990E+02  0.17498405328E+02  0.21755899594E+02  0.51100000000E-03 0. -1.
        -11    1    3    3    0    0  0.76069977941E+01 -0.40105366875E+01  0.21197263358E+02  0.22875200417E+02  0.51100000000E-03 0.  1.
         12    1    3    3    0    0 -0.22262075850E+01 -0.22004172604E+01 -0.40446380503E+00  0.31561728883E+01  0.00000000000E+00 0. -1.
</event>
<event>
 7    1  0.1418970E-010  0.4778727E+02  0.7816164E-02  0.1312668E+00
        -11   -1    0    0    0    0  0.00000000000E+00  0.00000000000E+00  0.45593999997E+02  0.45594000000E+02  0.51100000000E-03 0. -1.
         11   -1    0    0    0    0 -0.00000000000E+00 -0.00000000000E+00 -0.45593999997E+02  0.45594000000E+02  0.51100000000E-03 0.  1.
    9900012    2    1    2    0    0 -0.12892899905E+02  0.41387521755E+02 -0.21141175319E+01  0.47787270537E+02  0.19999997686E+02 0.  0.
         12    1    1    2    0    0  0.12892899905E+02 -0.41387521755E+02  0.21141175319E+01  0.43400729463E+02  0.00000000000E+00 0. -1.
         11    1    3    3    0    0 -0.39785656107E+01  0.19711497883E+02  0.19654481040E+00  0.20109966763E+02  0.51100000000E-03 0. -1.
        -11    1    3    3    0    0 -0.49264129572E+01  0.20986473570E+02 -0.58110534662E+01  0.22326440831E+02  0.51100000000E-03 0.  1.
        -12    1    3    3    0    0 -0.39879213371E+01  0.68955030237E+00  0.35003911239E+01  0.53508629426E+01  0.00000000000E+00 0.  1.
</event>
<event>
 7    1  0.1418970E-010  0.4778727E+02  0.7816164E-02  0.1312668E+00
        -11   -1    0    0    0    0  0.00000000000E+00  0.00000000000E+00  0.45593999997E+02  0.45594000000E+02  0.51100000000E-03 0.  1.
         11   -1    0    0    0    0 -0.00000000000E+00 -0.00000000000E+00 -0.45593999997E+02  0.45594000000E+02  0.51100000000E-03 0. -1.
    9900012    2    1    2    0    0 -0.16952139099E+02 -0.22479949735E+01  0.39889784459E+02  0.47787269526E+02  0.19999993078E+02 0.  0.
         12    1    1    2    0    0  0.16952139099E+02  0.22479949735E+01 -0.39889784459E+02  0.43400730474E+02  0.00000000000E+00 0. -1.
         11    1    3    3    0    0 -0.26099506601E-01 -0.39620992701E+01  0.52340044867E+01  0.65645803398E+01  0.51100000000E-03 0. -1.
        -11    1    3    3    0    0 -0.88308296085E+01  0.56579120708E+01  0.28354912432E+02  0.30232376352E+02  0.51100000000E-03 0.  1.
         12    1    3    3    0    0 -0.80952099841E+01 -0.39438077741E+01  0.63008675406E+01  0.10990312835E+02  0.00000000000E+00 0. -1.
</event>
<event>
 7    1  0.1418970E-010  0.4778727E+02  0.7816164E-02  0.1312668E+00
        -11   -1    0    0    0    0  0.00000000000E+00  0.00000000000E+00  0.45593999997E+02  0.45594000000E+02  0.51100000000E-03 0.  1.
         11   -1    0    0    0    0 -0.00000000000E+00 -0.00000000000E+00 -0.45593999997E+02  0.45594000000E+02  0.51100000000E-03 0. -1.
    9900012    2    1    2    0    0 -0.41847838660E+02 -0.76260049025E+01 -0.86154242721E+01  0.47787273201E+02  0.20000009832E+02 0.  0.
         12    1    1    2    0    0  0.41847838660E+02  0.76260049025E+01  0.86154242721E+01  0.43400726799E+02  0.00000000000E+00 0. -1.
         11    1    3    3    0    0 -0.67948206744E+01 -0.63079039851E+01  0.83700627904E+00  0.93091256547E+01  0.51100000000E-03 0. -1.
        -11    1    3    3    0    0 -0.98445843014E+01  0.52705411967E+01 -0.39775500083E+01  0.11853917028E+02  0.51100000000E-03 0.  1.
         12    1    3    3    0    0 -0.25208433684E+02 -0.65886421141E+01 -0.54748805429E+01  0.26624230518E+02  0.00000000000E+00 0. -1.
</event>
<event>
 7    1  0.1418970E-010  0.4778727E+02  0.7816164E-02  0.1312668E+00
        -11   -1    0    0    0    0  0.00000000000E+00  0.00000000000E+00  0.45593999997E+02  0.45594000000E+02  0.51100000000E-03 0.  1.
         11   -1    0    0    0    0 -0.00000000000E+00 -0.00000000000E+00 -0.45593999997E+02  0.45594000000E+02  0.51100000000E-03 0. -1.
    9900012    2    1    2    0    0  0.15808392598E+02 -0.11710963696E+02  0.38685541424E+02  0.47787273480E+02  0.20000011103E+02 0.  0.
         12    1    1    2    0    0 -0.15808392598E+02  0.11710963696E+02 -0.38685541424E+02  0.43400726520E+02  0.00000000000E+00 0. -1.
         11    1    3    3    0    0  0.69455678883E+01  0.18052104976E+01  0.72124609788E+01  0.10174443074E+02  0.51100000000E-03 0. -1.
        -11    1    3    3    0    0  0.39646309066E+01 -0.60964528991E+00  0.17563418890E+02  0.18015650112E+02  0.51100000000E-03 0.  1.
         12    1    3    3    0    0  0.48981938034E+01 -0.12906528904E+02  0.13909661555E+02  0.19597180294E+02  0.00000000000E+00 0. -1.
</event>
<event>
 7    1  0.1418970E-010  0.4778727E+02  0.7816164E-02  0.1312668E+00
        -11   -1    0    0    0    0  0.00000000000E+00  0.00000000000E+00  0.45593999997E+02  0.45594000000E+02  0.51100000000E-03 0.  1.
         11   -1    0    0    0    0 -0.00000000000E+00 -0.00000000000E+00 -0.45593999997E+02  0.45594000000E+02  0.51100000000E-03 0. -1.
    9900012    2    1    2    0    0 -0.22676481469E+02  0.11820567418E+02  0.35066716867E+02  0.47787271231E+02  0.20000000848E+02 0.  0.
         12    1    1    2    0    0  0.22676481469E+02 -0.11820567418E+02 -0.35066716867E+02  0.43400728769E+02  0.00000000000E+00 0. -1.
         11    1    3    3    0    0 -0.57390101771E+01 -0.12444519470E+01 -0.11307163515E+00  0.58734729008E+01  0.51100000000E-03 0. -1.
        -11    1    3    3    0    0 -0.24328015621E+01  0.57784004490E+01  0.12956423321E+02  0.14393656266E+02  0.51100000000E-03 0.  1.
        -12    1    3    3    0    0 -0.14504669729E+02  0.72866189161E+01  0.22223365182E+02  0.27520142063E+02  0.00000000000E+00 0.  1.
</event>
<event>
 7    1  0.1418970E-010  0.4778727E+02  0.7816164E-02  0.1312668E+00
        -11   -1    0    0    0    0  0.00000000000E+00  0.00000000000E+00  0.45593999997E+02  0.45594000000E+02  0.51100000000E-03 0.  1.
         11   -1    0    0    0    0 -0.00000000000E+00 -0.00000000000E+00 -0.45593999997E+02  0.45594000000E+02  0.51100000000E-03 0. -1.
    9900012    2    1    2    0    0  0.31722446059E+01 -0.25642310109E+01  0.43208618622E+02  0.47787272590E+02  0.20000007046E+02 0.  0.
         12    1    1    2    0    0 -0.31722446059E+01  0.25642310109E+01 -0.43208618622E+02  0.43400727410E+02  0.00000000000E+00 0. -1.
         11    1    3    3    0    0  0.16062714591E+01  0.63597571706E+01  0.66260301852E+01  0.93236739296E+01  0.51100000000E-03 0. -1.
        -11    1    3    3    0    0  0.72948152282E+00 -0.17761552685E+01  0.23107777220E+02  0.23187415534E+02  0.51100000000E-03 0.  1.
         12    1    3    3    0    0  0.83649162402E+00 -0.71478329130E+01  0.13474811217E+02  0.15276183127E+02  0.00000000000E+00 0. -1.
</event>
<event>
 7    1  0.1418970E-010  0.4778727E+02  0.7816164E-02  0.1312668E+00
        -11   -1    0    0    0    0  0.00000000000E+00  0.00000000000E+00  0.45593999997E+02  0.45594000000E+02  0.51100000000E-03 0. -1.
         11   -1    0    0    0    0 -0.00000000000E+00 -0.00000000000E+00 -0.45593999997E+02  0.45594000000E+02  0.51100000000E-03 0.  1.
    9900012    2    1    2    0    0  0.34316656670E+02 -0.13652025283E+02 -0.22795017135E+02  0.47787268145E+02  0.19999986781E+02 0.  0.
         12    1    1    2    0    0 -0.34316656670E+02  0.13652025283E+02  0.22795017135E+02  0.43400731855E+02  0.00000000000E+00 0. -1.
         11    1    3    3    0    0  0.73854459046E+01  0.33416748619E+01 -0.33835097249E+01  0.87840617264E+01  0.51100000000E-03 0. -1.
        -11    1    3    3    0    0  0.23099220733E+02 -0.10475578981E+02 -0.10866773813E+02  0.27593450796E+02  0.51100000000E-03 0.  1.
         12    1    3    3    0    0  0.38319900321E+01 -0.65181211639E+01 -0.85447335979E+01  0.11409755623E+02  0.00000000000E+00 0. -1.
</event>
<event>
 7    1  0.1418970E-010  0.4778727E+02  0.7816164E-02  0.1312668E+00
        -11   -1    0    0    0    0  0.00000000000E+00  0.00000000000E+00  0.45593999997E+02  0.45594000000E+02  0.51100000000E-03 0.  1.
         11   -1    0    0    0    0 -0.00000000000E+00 -0.00000000000E+00 -0.45593999997E+02  0.45594000000E+02  0.51100000000E-03 0. -1.
    9900012    2    1    2    0    0 -0.84869281117E+01  0.14177349139E+02  0.40132253587E+02  0.47787274714E+02  0.20000016730E+02 0.  0.
         12    1    1    2    0    0  0.84869281117E+01 -0.14177349139E+02 -0.40132253587E+02  0.43400725286E+02  0.00000000000E+00 0. -1.
         11    1    3    3    0    0 -0.71598010848E+01  0.37810565969E+01  0.34937218627E+02  0.35863189850E+02  0.51100000000E-03 0.  1.
        -11    1    3    3    0    0  0.11827708252E+00  0.35804077327E+01  0.75167124054E+00  0.36603714177E+01  0.51100000000E-03 0. -1.
        -12    1    3    3    0    0 -0.14454041094E+01  0.68158848093E+01  0.44433637197E+01  0.82637134461E+01  0.00000000000E+00 0.  1.
</event>
<event>
 7    1  0.1418970E-010  0.4778727E+02  0.7816164E-02  0.1312668E+00
        -11   -1    0    0    0    0  0.00000000000E+00  0.00000000000E+00  0.45593999997E+02  0.45594000000E+02  0.51100000000E-03 0.  1.
         11   -1    0    0    0    0 -0.00000000000E+00 -0.00000000000E+00 -0.45593999997E+02  0.45594000000E+02  0.51100000000E-03 0. -1.
    9900012    2    1    2    0    0 -0.32922431034E+01  0.26787412138E+02  0.33988512941E+02  0.47787270448E+02  0.19999997282E+02 0.  0.
         12    1    1    2    0    0  0.32922431034E+01 -0.26787412138E+02 -0.33988512941E+02  0.43400729552E+02  0.00000000000E+00 0. -1.
         11    1    3    3    0    0 -0.57103575303E+01  0.59690549859E+01  0.11130440951E+02  0.13860898837E+02  0.51100000000E-03 0. -1.
        -11    1    3    3    0    0  0.36442669289E+01  0.14697690848E+01 -0.31530918257E-01  0.39296179294E+01  0.51100000000E-03 0.  1.
        -12    1    3    3    0    0 -0.12261525020E+01  0.19348588067E+02  0.22889602908E+02  0.29996753682E+02  0.00000000000E+00 0.  1.
</event>
<event>
 7    1  0.1418970E-010  0.4778727E+02  0.7816164E-02  0.1312668E+00
        -11   -1    0    0    0    0  0.00000000000E+00  0.00000000000E+00  0.45593999997E+02  0.45594000000E+02  0.51100000000E-03 0.  1.
         11   -1    0    0    0    0 -0.00000000000E+00 -0.00000000000E+00 -0.45593999997E+02  0.45594000000E+02  0.51100000000E-03 0. -1.
    9900012    2    1    2    0    0  0.31592139059E+02  0.26552309834E+02  0.13436323523E+02  0.47787271922E+02  0.20000004003E+02 0.  0.
         12    1    1    2    0    0 -0.31592139059E+02 -0.26552309834E+02 -0.13436323523E+02  0.43400728078E+02  0.00000000000E+00 0. -1.
         11    1    3    3    0    0  0.28905342573E+01  0.61327570405E+01  0.66061839016E+01  0.94661271497E+01  0.51100000000E-03 0. -1.
        -11    1    3    3    0    0  0.28337799420E+02  0.19630685397E+02  0.92978695606E+01  0.35704972535E+02  0.51100000000E-03 0.  1.
         12    1    3    3    0    0  0.36380538228E+00  0.78886739593E+00 -0.24677299389E+01  0.26161722374E+01  0.00000000000E+00 0. -1.
</event>
<event>
 7    1  0.1418970E-010  0.4778728E+02  0.7816164E-02  0.1312668E+00
        -11   -1    0    0    0    0  0.00000000000E+00  0.00000000000E+00  0.45593999997E+02  0.45594000000E+02  0.51100000000E-03 0.  1.
         11   -1    0    0    0    0 -0.00000000000E+00 -0.00000000000E+00 -0.45593999997E+02  0.45594000000E+02  0.51100000000E-03 0. -1.
    9900012    2    1    2    0    0  0.51949056041E+01 -0.43080857003E+02 -0.82163135929E+00  0.47787281545E+02  0.20000047876E+02 0.  0.
         12    1    1    2    0    0 -0.51949056041E+01  0.43080857003E+02  0.82163135929E+00  0.43400718455E+02  0.00000000000E+00 0. -1.
         11    1    3    3    0    0  0.48294239187E+01 -0.71626389444E+01  0.34633548191E+01  0.93070703714E+01  0.51100000000E-03 0. -1.
        -11    1    3    3    0    0  0.14338255414E+01 -0.31188807517E+02  0.10909202575E+01  0.31240801483E+02  0.51100000000E-03 0.  1.
        -12    1    3    3    0    0 -0.10683438560E+01 -0.47294105416E+01 -0.53759064358E+01  0.72394096909E+01  0.00000000000E+00 0.  1.
</event>
<event>
 7    1  0.1418970E-010  0.4778727E+02  0.7816164E-02  0.1312668E+00
        -11   -1    0    0    0    0  0.00000000000E+00  0.00000000000E+00  0.45593999997E+02  0.45594000000E+02  0.51100000000E-03 0.  1.
         11   -1    0    0    0    0 -0.00000000000E+00 -0.00000000000E+00 -0.45593999997E+02  0.45594000000E+02  0.51100000000E-03 0. -1.
    9900012    2    1    2    0    0 -0.18299180008E+02  0.76816796070E+01  0.38597345961E+02  0.47787270677E+02  0.19999998324E+02 0.  0.
         12    1    1    2    0    0  0.18299180008E+02 -0.76816796070E+01 -0.38597345961E+02  0.43400729323E+02  0.00000000000E+00 0. -1.
         11    1    3    3    0    0 -0.59919229088E+01 -0.12976546296E+01  0.14582574326E+02  0.15818929228E+02  0.51100000000E-03 0.  1.
        -11    1    3    3    0    0 -0.71042631896E+01  0.12751856107E+02  0.17899940735E+02  0.23097364962E+02  0.51100000000E-03 0. -1.
         12    1    3    3    0    0 -0.52029939095E+01 -0.37725218702E+01  0.61148309005E+01  0.88709764866E+01  0.00000000000E+00 0. -1.
</event>
<event>
 7    1  0.1418970E-010  0.4778727E+02  0.7816164E-02  0.1312668E+00
        -11   -1    0    0    0    0  0.00000000000E+00  0.00000000000E+00  0.45593999997E+02  0.45594000000E+02  0.51100000000E-03 0.  1.
         11   -1    0    0    0    0 -0.00000000000E+00 -0.00000000000E+00 -0.45593999997E+02  0.45594000000E+02  0.51100000000E-03 0. -1.
    9900012    2    1    2    0    0 -0.62136097518E+01 -0.40726842719E+02  0.13650592422E+02  0.47787270311E+02  0.19999996658E+02 0.  0.
         12    1    1    2    0    0  0.62136097518E+01  0.40726842719E+02 -0.13650592422E+02  0.43400729689E+02  0.00000000000E+00 0. -1.
         11    1    3    3    0    0  0.21876025102E+01  0.49270911985E+00 -0.40875426696E+00  0.22793523930E+01  0.51100000000E-03 0. -1.
        -11    1    3    3    0    0 -0.69926913793E+01 -0.14990982168E+02  0.21962879434E+01  0.16686849914E+02  0.51100000000E-03 0.  1.
         12    1    3    3    0    0 -0.14085208827E+01 -0.26228569671E+02  0.11863058746E+02  0.28821068004E+02  0.00000000000E+00 0. -1.
</event>
<event>
 7    1  0.1418970E-010  0.4778727E+02  0.7816164E-02  0.1312668E+00
        -11   -1    0    0    0    0  0.00000000000E+00  0.00000000000E+00  0.45593999997E+02  0.45594000000E+02  0.51100000000E-03 0.  1.
         11   -1    0    0    0    0 -0.00000000000E+00 -0.00000000000E+00 -0.45593999997E+02  0.45594000000E+02  0.51100000000E-03 0. -1.
    9900012    2    1    2    0    0 -0.47344580495E+01  0.35252221666E+02  0.24869434557E+02  0.47787274192E+02  0.20000014353E+02 0.  0.
         12    1    1    2    0    0  0.47344580495E+01 -0.35252221666E+02 -0.24869434557E+02  0.43400725808E+02  0.00000000000E+00 0. -1.
         11    1    3    3    0    0  0.33239340414E+01  0.26713101699E+02  0.99294670088E+01  0.28692031215E+02  0.51100000000E-03 0. -1.
        -11    1    3    3    0    0 -0.17820953252E+01  0.12589397532E+01  0.18852805116E+01  0.28835873351E+01  0.51100000000E-03 0.  1.
         12    1    3    3    0    0 -0.62762967657E+01  0.72801802140E+01  0.13054687037E+02  0.16211655642E+02  0.00000000000E+00 0. -1.
</event>
<event>
 7    1  0.1418970E-010  0.4778725E+02  0.7816164E-02  0.1312668E+00
        -11   -1    0    0    0    0  0.00000000000E+00  0.00000000000E+00  0.45593999997E+02  0.45594000000E+02  0.51100000000E-03 0.  1.
         11   -1    0    0    0    0 -0.00000000000E+00 -0.00000000000E+00 -0.45593999997E+02  0.45594000000E+02  0.51100000000E-03 0. -1.
    9900012    2    1    2    0    0  0.18505855986E+01  0.33215461745E+02  0.27873524609E+02  0.47787251848E+02  0.19999912477E+02 0.  0.
         12    1    1    2    0    0 -0.18505855986E+01 -0.33215461745E+02 -0.27873524609E+02  0.43400748152E+02  0.00000000000E+00 0. -1.
         11    1    3    3    0    0  0.20208090241E+01  0.22804808077E+02  0.78184891196E+01  0.24192389566E+02  0.51100000000E-03 0. -1.
        -11    1    3    3    0    0  0.69802556912E+00  0.10860430261E+02  0.15518604655E+02  0.18954241632E+02  0.51100000000E-03 0.  1.
        -12    1    3    3    0    0 -0.86824899460E+00 -0.44977659292E+00  0.45364308348E+01  0.46406206502E+01  0.00000000000E+00 0.  1.
</event>
<event>
 7    1  0.1418970E-010  0.4778725E+02  0.7816164E-02  0.1312668E+00
        -11   -1    0    0    0    0  0.00000000000E+00  0.00000000000E+00  0.45593999997E+02  0.45594000000E+02  0.51100000000E-03 0.  1.
         11   -1    0    0    0    0 -0.00000000000E+00 -0.00000000000E+00 -0.45593999997E+02  0.45594000000E+02  0.51100000000E-03 0. -1.
    9900012    2    1    2    0    0  0.11334694511E+02 -0.41372473763E+02  0.65930673414E+01  0.47787246298E+02  0.19999887170E+02 0.  0.
         12    1    1    2    0    0 -0.11334694511E+02  0.41372473763E+02 -0.65930673414E+01  0.43400753702E+02  0.00000000000E+00 0. -1.
         11    1    3    3    0    0  0.60650335562E+01 -0.26881694046E+02 -0.39333184167E+01  0.27836686240E+02  0.51100000000E-03 0.  1.
        -11    1    3    3    0    0 -0.22157362840E+00 -0.41986700909E+00  0.30689525193E+01  0.31054553619E+01  0.51100000000E-03 0. -1.
        -12    1    3    3    0    0  0.54912345834E+01 -0.14070912708E+02  0.74574332389E+01  0.16845104696E+02  0.00000000000E+00 0.  1.
</event>
<event>
 7    1  0.1418970E-010  0.4778727E+02  0.7816164E-02  0.1312668E+00
        -11   -1    0    0    0    0  0.00000000000E+00  0.00000000000E+00  0.45593999997E+02  0.45594000000E+02  0.51100000000E-03 0.  1.
         11   -1    0    0    0    0 -0.00000000000E+00 -0.00000000000E+00 -0.45593999997E+02  0.45594000000E+02  0.51100000000E-03 0. -1.
    9900012    2    1    2    0    0 -0.21060302164E+02  0.90464277676E+00  0.37937694734E+02  0.47787269735E+02  0.19999994032E+02 0.  0.
         12    1    1    2    0    0  0.21060302164E+02 -0.90464277676E+00 -0.37937694734E+02  0.43400730265E+02  0.00000000000E+00 0. -1.
         11    1    3    3    0    0 -0.12525680335E+02 -0.68079737507E+01  0.26882976572E+02  0.30429190001E+02  0.51100000000E-03 0. -1.
        -11    1    3    3    0    0  0.10037300373E+01  0.20315060802E+01  0.21873337355E+01  0.31494317064E+01  0.51100000000E-03 0.  1.
         12    1    3    3    0    0 -0.95383518664E+01  0.56811104473E+01  0.88673844259E+01  0.14208648028E+02  0.00000000000E+00 0. -1.
</event>
<event>
 7    1  0.1418970E-010  0.4778727E+02  0.7816164E-02  0.1312668E+00
        -11   -1    0    0    0    0  0.00000000000E+00  0.00000000000E+00  0.45593999997E+02  0.45594000000E+02  0.51100000000E-03 0. -1.
         11   -1    0    0    0    0 -0.00000000000E+00 -0.00000000000E+00 -0.45593999997E+02  0.45594000000E+02  0.51100000000E-03 0.  1.
    9900012    2    1    2    0    0 -0.23070256332E+02 -0.24266497147E+02 -0.27613827503E+02  0.47787273274E+02  0.20000010164E+02 0.  0.
         12    1    1    2    0    0  0.23070256332E+02  0.24266497147E+02  0.27613827503E+02  0.43400726726E+02  0.00000000000E+00 0. -1.
         11    1    3    3    0    0 -0.50078280541E+01  0.88971653069E+00 -0.46859377191E+01  0.69157754368E+01  0.51100000000E-03 0. -1.
        -11    1    3    3    0    0 -0.46658940786E+01 -0.15421906724E+01 -0.92429509188E+01  0.10468097323E+02  0.51100000000E-03 0.  1.
        -12    1    3    3    0    0 -0.13396534199E+02 -0.23614023005E+02 -0.13684938865E+02  0.30403400514E+02  0.00000000000E+00 0.  1.
</event>
<event>
 7    1  0.1418970E-010  0.4778726E+02  0.7816164E-02  0.1312668E+00
        -11   -1    0    0    0    0  0.00000000000E+00  0.00000000000E+00  0.45593999997E+02  0.45594000000E+02  0.51100000000E-03 0.  1.
         11   -1    0    0    0    0 -0.00000000000E+00 -0.00000000000E+00 -0.45593999997E+02  0.45594000000E+02  0.51100000000E-03 0. -1.
    9900012    2    1    2    0    0 -0.20904964809E+02  0.23982586538E+02  0.29520201197E+02  0.47787259344E+02  0.19999946655E+02 0.  0.
         12    1    1    2    0    0  0.20904964809E+02 -0.23982586538E+02 -0.29520201197E+02  0.43400740656E+02  0.00000000000E+00 0. -1.
         11    1    3    3    0    0 -0.12434270979E+02  0.91090946574E+01  0.17451508682E+02  0.23283939868E+02  0.51100000000E-03 0. -1.
        -11    1    3    3    0    0  0.29650292059E+01  0.40968620045E+01  0.55015285912E+01  0.74727835226E+01  0.51100000000E-03 0.  1.
         12    1    3    3    0    0 -0.11435723037E+02  0.10776629876E+02  0.65671639239E+01  0.17030535954E+02  0.00000000000E+00 0. -1.
</event>
<event>
 7    1  0.1418970E-010  0.4778727E+02  0.7816164E-02  0.1312668E+00
        -11   -1    0    0    0    0  0.00000000000E+00  0.00000000000E+00  0.45593999997E+02  0.45594000000E+02  0.51100000000E-03 0.  1.
         11   -1    0    0    0    0 -0.00000000000E+00 -0.00000000000E+00 -0.45593999997E+02  0.45594000000E+02  0.51100000000E-03 0. -1.
    9900012    2    1    2    0    0  0.29151047646E+02  0.34656130000E+01  0.31966058951E+02  0.47787274462E+02  0.20000015582E+02 0.  0.
         12    1    1    2    0    0 -0.29151047646E+02 -0.34656130000E+01 -0.31966058951E+02  0.43400725538E+02  0.00000000000E+00 0. -1.
         11    1    3    3    0    0  0.46743413067E+01 -0.30474083702E+01  0.85903146348E+01  0.10243518449E+02  0.51100000000E-03 0. -1.
        -11    1    3    3    0    0  0.18769322239E+02  0.40928551784E+01  0.77168814919E+01  0.20702395539E+02  0.51100000000E-03 0.  1.
         12    1    3    3    0    0  0.57073841006E+01  0.24201661918E+01  0.15658862825E+02  0.16841360474E+02  0.00000000000E+00 0. -1.
</event>
<event>
 7    1  0.1418970E-010  0.4778727E+02  0.7816164E-02  0.1312668E+00
        -11   -1    0    0    0    0  0.00000000000E+00  0.00000000000E+00  0.45593999997E+02  0.45594000000E+02  0.51100000000E-03 0.  1.
         11   -1    0    0    0    0 -0.00000000000E+00 -0.00000000000E+00 -0.45593999997E+02  0.45594000000E+02  0.51100000000E-03 0. -1.
    9900012    2    1    2    0    0 -0.72198952135E+01 -0.20991868001E+02  0.37293938579E+02  0.47787271160E+02  0.20000000528E+02 0.  0.
         12    1    1    2    0    0  0.72198952135E+01  0.20991868001E+02 -0.37293938579E+02  0.43400728840E+02  0.00000000000E+00 0. -1.
         11    1    3    3    0    0  0.87474749458E+00 -0.65550146092E+01  0.12311131906E+02  0.13974883498E+02  0.51100000000E-03 0. -1.
        -11    1    3    3    0    0 -0.12771151967E+02 -0.94253644960E+01  0.18524558683E+02  0.24394652961E+02  0.51100000000E-03 0.  1.
        -12    1    3    3    0    0  0.46765092585E+01 -0.50114888956E+01  0.64582479900E+01  0.94177347009E+01  0.00000000000E+00 0.  1.
</event>
<event>
 7    1  0.1418970E-010  0.4778727E+02  0.7816164E-02  0.1312668E+00
        -11   -1    0    0    0    0  0.00000000000E+00  0.00000000000E+00  0.45593999997E+02  0.45594000000E+02  0.51100000000E-03 0.  1.
         11   -1    0    0    0    0 -0.00000000000E+00 -0.00000000000E+00 -0.45593999997E+02  0.45594000000E+02  0.51100000000E-03 0. -1.
    9900012    2    1    2    0    0  0.23195741264E+02 -0.12520244050E+02  0.34479334916E+02  0.47787268898E+02  0.19999990216E+02 0.  0.
         12    1    1    2    0    0 -0.23195741264E+02  0.12520244050E+02 -0.34479334916E+02  0.43400731102E+02  0.00000000000E+00 0. -1.
         11    1    3    3    0    0  0.56634144764E+01 -0.15588968728E+01  0.66123660668E+01  0.88446485659E+01  0.51100000000E-03 0. -1.
        -11    1    3    3    0    0  0.10916921241E+02 -0.69828714159E+01  0.28387406387E+02  0.31205520413E+02  0.51100000000E-03 0.  1.
         12    1    3    3    0    0  0.66154055468E+01 -0.39784757615E+01 -0.52043753771E+00  0.77370999195E+01  0.00000000000E+00 0. -1.
</event>
<event>
 7    1  0.1418970E-010  0.4778727E+02  0.7816164E-02  0.1312668E+00
        -11   -1    0    0    0    0  0.00000000000E+00  0.00000000000E+00  0.45593999997E+02  0.45594000000E+02  0.51100000000E-03 0.  1.
         11   -1    0    0    0    0 -0.00000000000E+00 -0.00000000000E+00 -0.45593999997E+02  0.45594000000E+02  0.51100000000E-03 0. -1.
    9900012    2    1    2    0    0  0.14695198289E+02 -0.11484682609E+01  0.40821014435E+02  0.47787273605E+02  0.20000011677E+02 0.  0.
         12    1    1    2    0    0 -0.14695198289E+02  0.11484682609E+01 -0.40821014435E+02  0.43400726395E+02  0.00000000000E+00 0. -1.
         11    1    3    3    0    0  0.11758800430E+01 -0.46754900983E+01  0.18871459050E+02  0.19477547804E+02  0.51100000000E-03 0. -1.
        -11    1    3    3    0    0  0.15531321992E+01 -0.31551690530E+01  0.80737879732E+01  0.88064387739E+01  0.51100000000E-03 0.  1.
        -12    1    3    3    0    0  0.11966186047E+02  0.66821908904E+01  0.13875767411E+02  0.19503287027E+02  0.00000000000E+00 0.  1.
</event>
<event>
 7    1  0.1445953E-010  0.4778727E+02  0.7816164E-02  0.1312668E+00
        -11   -1    0    0    0    0  0.00000000000E+00  0.00000000000E+00  0.45593999997E+02  0.45594000000E+02  0.51100000000E-03 0.  1.
         11   -1    0    0    0    0 -0.00000000000E+00 -0.00000000000E+00 -0.45593999997E+02  0.45594000000E+02  0.51100000000E-03 0. -1.
    9900012    2    1    2    0    0  0.30555143329E+02  0.21623554113E+02  0.21964254074E+02  0.47787270359E+02  0.19999996875E+02 0.  0.
         12    1    1    2    0    0 -0.30555143329E+02 -0.21623554113E+02 -0.21964254074E+02  0.43400729641E+02  0.00000000000E+00 0. -1.
         11    1    3    3    0    0  0.91655623671E+01  0.56708379352E+01 -0.66589336990E+00  0.10798580955E+02  0.51100000000E-03 0. -1.
        -11    1    3    3    0    0  0.89192028820E+00  0.62514776429E+01  0.71068661405E+01  0.95070521783E+01  0.51100000000E-03 0.  1.
        -12    1    3    3    0    0  0.20497660673E+02  0.97012385349E+01  0.15523281304E+02  0.27481637226E+02  0.00000000000E+00 0.  1.
</event>
<event>
 7    1  0.1418970E-010  0.4778727E+02  0.7816164E-02  0.1312668E+00
        -11   -1    0    0    0    0  0.00000000000E+00  0.00000000000E+00  0.45593999997E+02  0.45594000000E+02  0.51100000000E-03 0.  1.
         11   -1    0    0    0    0 -0.00000000000E+00 -0.00000000000E+00 -0.45593999997E+02  0.45594000000E+02  0.51100000000E-03 0. -1.
    9900012    2    1    2    0    0  0.12249248188E+02  0.12982243325E+02  0.39560589500E+02  0.47787274609E+02  0.20000016251E+02 0.  0.
         12    1    1    2    0    0 -0.12249248188E+02 -0.12982243325E+02 -0.39560589500E+02  0.43400725391E+02  0.00000000000E+00 0. -1.
         11    1    3    3    0    0  0.84060799978E+01  0.62754140940E+01  0.19057543465E+02  0.21753918409E+02  0.51100000000E-03 0.  1.
        -11    1    3    3    0    0 -0.88841555513E+00 -0.24431461941E+01  0.13081525933E+02  0.13337337310E+02  0.51100000000E-03 0. -1.
         12    1    3    3    0    0  0.47315837450E+01  0.91499754252E+01  0.74215201019E+01  0.12696018889E+02  0.00000000000E+00 0. -1.
</event>
<event>
 7    1  0.1418970E-010  0.4778727E+02  0.7816164E-02  0.1312668E+00
        -11   -1    0    0    0    0  0.00000000000E+00  0.00000000000E+00  0.45593999997E+02  0.45594000000E+02  0.51100000000E-03 0.  1.
         11   -1    0    0    0    0 -0.00000000000E+00 -0.00000000000E+00 -0.45593999997E+02  0.45594000000E+02  0.51100000000E-03 0. -1.
    9900012    2    1    2    0    0 -0.36823220960E+02  0.17185177709E+02  0.15242807718E+02  0.47787272795E+02  0.20000007984E+02 0.  0.
         12    1    1    2    0    0  0.36823220960E+02 -0.17185177709E+02 -0.15242807718E+02  0.43400727205E+02  0.00000000000E+00 0. -1.
         11    1    3    3    0    0 -0.40334670457E+01  0.26149043271E+01 -0.30441630850E+01  0.56897724206E+01  0.51100000000E-03 0. -1.
        -11    1    3    3    0    0 -0.19740268962E+02  0.14863064411E+02  0.10132158319E+02  0.26706732014E+02  0.51100000000E-03 0.  1.
        -12    1    3    3    0    0 -0.13049484952E+02 -0.29279102949E+00  0.81548124838E+01  0.15390768361E+02  0.00000000000E+00 0.  1.
</event>
<event>
 7    1  0.1418970E-010  0.4778728E+02  0.7816164E-02  0.1312668E+00
        -11   -1    0    0    0    0  0.00000000000E+00  0.00000000000E+00  0.45593999997E+02  0.45594000000E+02  0.51100000000E-03 0. -1.
         11   -1    0    0    0    0 -0.00000000000E+00 -0.00000000000E+00 -0.45593999997E+02  0.45594000000E+02  0.51100000000E-03 0.  1.
    9900012    2    1    2    0    0 -0.27907952936E+02  0.32311538750E+02  0.77931690686E+01  0.47787275840E+02  0.20000021866E+02 0.  0.
         12    1    1    2    0    0  0.27907952936E+02 -0.32311538750E+02 -0.77931690686E+01  0.43400724160E+02  0.00000000000E+00 0. -1.
         11    1    3    3    0    0 -0.23292971941E+02  0.14812637912E+02  0.59746767822E+00  0.27610392095E+02  0.51100000000E-03 0. -1.
        -11    1    3    3    0    0 -0.53137048523E+01  0.11403763155E+02  0.36905396632E+01  0.13111115766E+02  0.51100000000E-03 0.  1.
        -12    1    3    3    0    0  0.69872385736E+00  0.60951376826E+01  0.35051617272E+01  0.70657679790E+01  0.00000000000E+00 0.  1.
</event>
<event>
 7    1  0.1418970E-010  0.4778727E+02  0.7816164E-02  0.1312668E+00
        -11   -1    0    0    0    0  0.00000000000E+00  0.00000000000E+00  0.45593999997E+02  0.45594000000E+02  0.51100000000E-03 0.  1.
         11   -1    0    0    0    0 -0.00000000000E+00 -0.00000000000E+00 -0.45593999997E+02  0.45594000000E+02  0.51100000000E-03 0. -1.
    9900012    2    1    2    0    0 -0.26911612846E+02  0.24562171686E+02  0.23581520570E+02  0.47787270786E+02  0.19999998819E+02 0.  0.
         12    1    1    2    0    0  0.26911612846E+02 -0.24562171686E+02 -0.23581520570E+02  0.43400729214E+02  0.00000000000E+00 0. -1.
         11    1    3    3    0    0  0.25612703573E-01  0.15343218639E+01  0.49470527318E+00  0.16123067825E+01  0.51100000000E-03 0. -1.
        -11    1    3    3    0    0 -0.93828692825E+01  0.20029937792E+02  0.11509310043E+02  0.24933929932E+02  0.51100000000E-03 0.  1.
         12    1    3    3    0    0 -0.17554356267E+02  0.29979120307E+01  0.11577505254E+02  0.21241034071E+02  0.00000000000E+00 0. -1.
</event>
<event>
 7    1  0.1418970E-010  0.4778727E+02  0.7816164E-02  0.1312668E+00
        -11   -1    0    0    0    0  0.00000000000E+00  0.00000000000E+00  0.45593999997E+02  0.45594000000E+02  0.51100000000E-03 0. -1.
         11   -1    0    0    0    0 -0.00000000000E+00 -0.00000000000E+00 -0.45593999997E+02  0.45594000000E+02  0.51100000000E-03 0.  1.
    9900012    2    1    2    0    0  0.40367670440E+02  0.59638773831E+01 -0.14781963702E+02  0.47787273035E+02  0.20000009076E+02 0.  0.
         12    1    1    2    0    0 -0.40367670440E+02 -0.59638773831E+01  0.14781963702E+02  0.43400726965E+02  0.00000000000E+00 0. -1.
         11    1    3    3    0    0  0.69109211587E+00 -0.25923145619E+01 -0.74760819032E+00  0.27850711603E+01  0.51100000000E-03 0. -1.
        -11    1    3    3    0    0  0.24415447403E+02  0.35557084409E+01 -0.16609141810E+01  0.24728844910E+02  0.51100000000E-03 0.  1.
        -12    1    3    3    0    0  0.15261130922E+02  0.50004835041E+01 -0.12373441330E+02  0.20273356965E+02  0.00000000000E+00 0.  1.
</event>
<event>
 7    1  0.1418970E-010  0.4778727E+02  0.7816164E-02  0.1312668E+00
        -11   -1    0    0    0    0  0.00000000000E+00  0.00000000000E+00  0.45593999997E+02  0.45594000000E+02  0.51100000000E-03 0.  1.
         11   -1    0    0    0    0 -0.00000000000E+00 -0.00000000000E+00 -0.45593999997E+02  0.45594000000E+02  0.51100000000E-03 0. -1.
    9900012    2    1    2    0    0  0.30356484122E+02  0.10254746835E+01  0.31000894237E+02  0.47787272240E+02  0.20000005453E+02 0.  0.
         12    1    1    2    0    0 -0.30356484122E+02 -0.10254746835E+01 -0.31000894237E+02  0.43400727760E+02  0.00000000000E+00 0. -1.
         11    1    3    3    0    0  0.78805276103E+01  0.25155457611E+01  0.99622754053E+01  0.12949039246E+02  0.51100000000E-03 0. -1.
        -11    1    3    3    0    0  0.24915663659E+01 -0.49588701009E+01 -0.88913976991E-01  0.55503334665E+01  0.51100000000E-03 0.  1.
        -12    1    3    3    0    0  0.19984390146E+02  0.34687990233E+01  0.21127532808E+02  0.29287899528E+02  0.00000000000E+00 0.  1.
</event>
<event>
 7    1  0.1418970E-010  0.4778727E+02  0.7816164E-02  0.1312668E+00
        -11   -1    0    0    0    0  0.00000000000E+00  0.00000000000E+00  0.45593999997E+02  0.45594000000E+02  0.51100000000E-03 0. -1.
         11   -1    0    0    0    0 -0.00000000000E+00 -0.00000000000E+00 -0.45593999997E+02  0.45594000000E+02  0.51100000000E-03 0.  1.
    9900012    2    1    2    0    0 -0.28325523408E+01 -0.63889654763E+01 -0.42834341576E+02  0.47787273614E+02  0.20000011715E+02 0.  0.
         12    1    1    2    0    0  0.28325523408E+01  0.63889654763E+01  0.42834341576E+02  0.43400726386E+02  0.00000000000E+00 0. -1.
         11    1    3    3    0    0  0.33528690388E+01 -0.29371541552E+01 -0.11216958500E+02  0.12070160048E+02  0.51100000000E-03 0.  1.
        -11    1    3    3    0    0 -0.71292437056E+01 -0.74758110156E+01 -0.12786763517E+02  0.16438223373E+02  0.51100000000E-03 0. -1.
        -12    1    3    3    0    0  0.94382232598E+00  0.40239996945E+01 -0.18830619559E+02  0.19278890194E+02  0.00000000000E+00 0.  1.
</event>
<event>
 7    1  0.1418970E-010  0.4778725E+02  0.7816164E-02  0.1312668E+00
        -11   -1    0    0    0    0  0.00000000000E+00  0.00000000000E+00  0.45593999997E+02  0.45594000000E+02  0.51100000000E-03 0.  1.
         11   -1    0    0    0    0 -0.00000000000E+00 -0.00000000000E+00 -0.45593999997E+02  0.45594000000E+02  0.51100000000E-03 0. -1.
    9900012    2    1    2    0    0 -0.50111481344E+01  0.17608614241E+02  0.39350350218E+02  0.47787251580E+02  0.19999911256E+02 0.  0.
         12    1    1    2    0    0  0.50111481344E+01 -0.17608614241E+02 -0.39350350218E+02  0.43400748420E+02  0.00000000000E+00 0. -1.
         11    1    3    3    0    0  0.25846537064E+00  0.20972581082E+01  0.57761816184E+01  0.61505747918E+01  0.51100000000E-03 0. -1.
        -11    1    3    3    0    0 -0.10662463169E+02  0.37508286905E+01  0.19343683051E+02  0.22403903921E+02  0.51100000000E-03 0.  1.
         12    1    3    3    0    0  0.53928496635E+01  0.11760527443E+02  0.14230485549E+02  0.19232772867E+02  0.00000000000E+00 0. -1.
</event>
<event>
 7    1  0.1418970E-010  0.4778727E+02  0.7816164E-02  0.1312668E+00
        -11   -1    0    0    0    0  0.00000000000E+00  0.00000000000E+00  0.45593999997E+02  0.45594000000E+02  0.51100000000E-03 0. -1.
         11   -1    0    0    0    0 -0.00000000000E+00 -0.00000000000E+00 -0.45593999997E+02  0.45594000000E+02  0.51100000000E-03 0.  1.
    9900012    2    1    2    0    0  0.91268612906E+01  0.34737614034E+02 -0.24364360568E+02  0.47787268535E+02  0.19999988560E+02 0.  0.
         12    1    1    2    0    0 -0.91268612906E+01 -0.34737614034E+02  0.24364360568E+02  0.43400731465E+02  0.00000000000E+00 0. -1.
         11    1    3    3    0    0  0.13054222747E+02  0.20714002255E+02 -0.19740727384E+02  0.31451215221E+02  0.51100000000E-03 0.  1.
        -11    1    3    3    0    0 -0.23397392168E+00  0.72211710059E+01  0.17820631282E+00  0.72271579644E+01  0.51100000000E-03 0. -1.
        -12    1    3    3    0    0 -0.36933875344E+01  0.68024407723E+01 -0.48018394968E+01  0.91088953497E+01  0.00000000000E+00 0.  1.
</event>
<event>
 7    1  0.1418970E-010  0.4778727E+02  0.7816164E-02  0.1312668E+00
        -11   -1    0    0    0    0  0.00000000000E+00  0.00000000000E+00  0.45593999997E+02  0.45594000000E+02  0.51100000000E-03 0. -1.
         11   -1    0    0    0    0 -0.00000000000E+00 -0.00000000000E+00 -0.45593999997E+02  0.45594000000E+02  0.51100000000E-03 0.  1.
    9900012    2    1    2    0    0 -0.27054559020E+01  0.43260204325E+02 -0.22042185008E+01  0.47787270178E+02  0.19999996051E+02 0.  0.
         12    1    1    2    0    0  0.27054559020E+01 -0.43260204325E+02  0.22042185008E+01  0.43400729822E+02  0.00000000000E+00 0. -1.
         11    1    3    3    0    0 -0.16940622199E+01  0.14204482053E+02  0.75184253403E+00  0.14324888294E+02  0.51100000000E-03 0. -1.
        -11    1    3    3    0    0 -0.77949754590E+01  0.18056269724E+02  0.16665159325E+01  0.19737471834E+02  0.51100000000E-03 0.  1.
         12    1    3    3    0    0  0.67835817769E+01  0.10999452548E+02 -0.46225769673E+01  0.13724910051E+02  0.00000000000E+00 0. -1.
</event>
<event>
 7    1  0.1418970E-010  0.4778727E+02  0.7816164E-02  0.1312668E+00
        -11   -1    0    0    0    0  0.00000000000E+00  0.00000000000E+00  0.45593999997E+02  0.45594000000E+02  0.51100000000E-03 0.  1.
         11   -1    0    0    0    0 -0.00000000000E+00 -0.00000000000E+00 -0.45593999997E+02  0.45594000000E+02  0.51100000000E-03 0. -1.
    9900012    2    1    2    0    0  0.11027678219E+02 -0.25195935490E+02  0.33573475480E+02  0.47787272956E+02  0.20000008716E+02 0.  0.
         12    1    1    2    0    0 -0.11027678219E+02  0.25195935490E+02 -0.33573475480E+02  0.43400727044E+02  0.00000000000E+00 0. -1.
         11    1    3    3    0    0  0.84486687658E+01 -0.39804958202E+01  0.11941492518E+02  0.15159933862E+02  0.51100000000E-03 0. -1.
        -11    1    3    3    0    0  0.11790509334E+01 -0.12726794043E+02  0.20202440748E+02  0.23906067434E+02  0.51100000000E-03 0.  1.
        -12    1    3    3    0    0  0.13999585200E+01 -0.84886456268E+01  0.14295422150E+01  0.87212716607E+01  0.00000000000E+00 0.  1.
</event>
<event>
 7    1  0.1418970E-010  0.4778728E+02  0.7816164E-02  0.1312668E+00
        -11   -1    0    0    0    0  0.00000000000E+00  0.00000000000E+00  0.45593999997E+02  0.45594000000E+02  0.51100000000E-03 0.  1.
         11   -1    0    0    0    0 -0.00000000000E+00 -0.00000000000E+00 -0.45593999997E+02  0.45594000000E+02  0.51100000000E-03 0. -1.
    9900012    2    1    2    0    0  0.30015873036E+02  0.28874683074E+02 -0.12203386621E+02  0.47787278788E+02  0.20000035304E+02 0.  0.
         12    1    1    2    0    0 -0.30015873036E+02 -0.28874683074E+02  0.12203386621E+02  0.43400721212E+02  0.00000000000E+00 0. -1.
         11    1    3    3    0    0  0.38686920505E+01  0.16157707587E+01  0.38072422159E+01  0.56632664495E+01  0.51100000000E-03 0. -1.
        -11    1    3    3    0    0  0.83103494253E+01  0.15305307412E+02 -0.58752499985E+01  0.18380231374E+02  0.51100000000E-03 0.  1.
        -12    1    3    3    0    0  0.17836831560E+02  0.11953604903E+02 -0.10135378839E+02  0.23743780965E+02  0.00000000000E+00 0.  1.
</event>
<event>
 7    1  0.1418970E-010  0.4778728E+02  0.7816164E-02  0.1312668E+00
        -11   -1    0    0    0    0  0.00000000000E+00  0.00000000000E+00  0.45593999997E+02  0.45594000000E+02  0.51100000000E-03 0.  1.
         11   -1    0    0    0    0 -0.00000000000E+00 -0.00000000000E+00 -0.45593999997E+02  0.45594000000E+02  0.51100000000E-03 0. -1.
    9900012    2    1    2    0    0 -0.21684595652E+02 -0.11942010848E+02  0.35648135250E+02  0.47787275830E+02  0.20000021818E+02 0.  0.
         12    1    1    2    0    0  0.21684595652E+02  0.11942010848E+02 -0.35648135250E+02  0.43400724170E+02  0.00000000000E+00 0. -1.
         11    1    3    3    0    0 -0.15917744144E+02 -0.39807557474E+01  0.33456093979E+02  0.37263000679E+02  0.51100000000E-03 0. -1.
        -11    1    3    3    0    0 -0.21012530643E+01 -0.47376452289E+01  0.22314697146E+01  0.56426947554E+01  0.51100000000E-03 0.  1.
         12    1    3    3    0    0 -0.36655984441E+01 -0.32236098718E+01 -0.39428443961E-01  0.48815803959E+01  0.00000000000E+00 0. -1.
</event>
<event>
 7    1  0.1418970E-010  0.4778729E+02  0.7816164E-02  0.1312668E+00
        -11   -1    0    0    0    0  0.00000000000E+00  0.00000000000E+00  0.45593999997E+02  0.45594000000E+02  0.51100000000E-03 0.  1.
         11   -1    0    0    0    0 -0.00000000000E+00 -0.00000000000E+00 -0.45593999997E+02  0.45594000000E+02  0.51100000000E-03 0. -1.
    9900012    2    1    2    0    0  0.20860949802E+02 -0.12466701831E+02  0.35958644113E+02  0.47787286093E+02  0.20000068613E+02 0.  0.
         12    1    1    2    0    0 -0.20860949802E+02  0.12466701831E+02 -0.35958644113E+02  0.43400713907E+02  0.00000000000E+00 0. -1.
         11    1    3    3    0    0  0.45028026093E+01 -0.20007080989E+01 -0.12161937671E+01  0.50751543598E+01  0.51100000000E-03 0. -1.
        -11    1    3    3    0    0  0.30115659436E+01 -0.18652858047E+01  0.15163036419E+02  0.15571335661E+02  0.51100000000E-03 0.  1.
        -12    1    3    3    0    0  0.13346581249E+02 -0.86007079271E+01  0.22011801462E+02  0.27140796073E+02  0.00000000000E+00 0.  1.
</event>
<event>
 7    1  0.1418970E-010  0.4778727E+02  0.7816164E-02  0.1312668E+00
        -11   -1    0    0    0    0  0.00000000000E+00  0.00000000000E+00  0.45593999997E+02  0.45594000000E+02  0.51100000000E-03 0. -1.
         11   -1    0    0    0    0 -0.00000000000E+00 -0.00000000000E+00 -0.45593999997E+02  0.45594000000E+02  0.51100000000E-03 0.  1.
    9900012    2    1    2    0    0  0.18391124653E+02  0.55048368330E+01 -0.38924112974E+02  0.47787271142E+02  0.20000000444E+02 0.  0.
         12    1    1    2    0    0 -0.18391124653E+02 -0.55048368330E+01  0.38924112974E+02  0.43400728858E+02  0.00000000000E+00 0. -1.
         11    1    3    3    0    0  0.12283958470E+02  0.62266274992E+01 -0.11017129531E+02  0.17636430168E+02  0.51100000000E-03 0. -1.
        -11    1    3    3    0    0  0.85086255261E+01 -0.30722466868E+00 -0.24677951138E+02  0.26105408788E+02  0.51100000000E-03 0.  1.
        -12    1    3    3    0    0 -0.24014593428E+01 -0.41456599757E+00 -0.32290323049E+01  0.40454321855E+01  0.00000000000E+00 0.  1.
</event>
<event>
 7    1  0.1418970E-010  0.4778727E+02  0.7816164E-02  0.1312668E+00
        -11   -1    0    0    0    0  0.00000000000E+00  0.00000000000E+00  0.45593999997E+02  0.45594000000E+02  0.51100000000E-03 0.  1.
         11   -1    0    0    0    0 -0.00000000000E+00 -0.00000000000E+00 -0.45593999997E+02  0.45594000000E+02  0.51100000000E-03 0. -1.
    9900012    2    1    2    0    0  0.68839869207E+01 -0.11869909321E+02  0.41174496787E+02  0.47787271793E+02  0.20000003415E+02 0.  0.
         12    1    1    2    0    0 -0.68839869207E+01  0.11869909321E+02 -0.41174496787E+02  0.43400728207E+02  0.00000000000E+00 0. -1.
         11    1    3    3    0    0  0.92379057601E+00  0.36336561119E+01  0.12342552863E+02  0.12899436313E+02  0.51100000000E-03 0. -1.
        -11    1    3    3    0    0 -0.94671379104E+00 -0.12512674162E+01  0.10693665969E+02  0.10808164935E+02  0.51100000000E-03 0.  1.
        -12    1    3    3    0    0  0.69069101358E+01 -0.14252298017E+02  0.18138277955E+02  0.24079670545E+02  0.00000000000E+00 0.  1.
</event>
<event>
 7    1  0.1418970E-010  0.4778726E+02  0.7816164E-02  0.1312668E+00
        -11   -1    0    0    0    0  0.00000000000E+00  0.00000000000E+00  0.45593999997E+02  0.45594000000E+02  0.51100000000E-03 0. -1.
         11   -1    0    0    0    0 -0.00000000000E+00 -0.00000000000E+00 -0.45593999997E+02  0.45594000000E+02  0.51100000000E-03 0.  1.
    9900012    2    1    2    0    0 -0.24258328520E+02 -0.24802449115E+02 -0.26076730754E+02  0.47787264159E+02  0.19999968606E+02 0.  0.
         12    1    1    2    0    0  0.24258328520E+02  0.24802449115E+02  0.26076730754E+02  0.43400735841E+02  0.00000000000E+00 0. -1.
         11    1    3    3    0    0  0.86685707078E+00  0.18504595713E+01 -0.88690889369E+00  0.22276107050E+01  0.51100000000E-03 0. -1.
        -11    1    3    3    0    0 -0.11072706614E+02 -0.83655045133E+01 -0.14723631838E+02  0.20232939289E+02  0.51100000000E-03 0.  1.
        -12    1    3    3    0    0 -0.14052478977E+02 -0.18287404173E+02 -0.10466190023E+02  0.25326714165E+02  0.00000000000E+00 0.  1.
</event>
<event>
 7    1  0.1418970E-010  0.4778727E+02  0.7816164E-02  0.1312668E+00
        -11   -1    0    0    0    0  0.00000000000E+00  0.00000000000E+00  0.45593999997E+02  0.45594000000E+02  0.51100000000E-03 0. -1.
         11   -1    0    0    0    0 -0.00000000000E+00 -0.00000000000E+00 -0.45593999997E+02  0.45594000000E+02  0.51100000000E-03 0.  1.
    9900012    2    1    2    0    0 -0.41753174871E+02 -0.21867804882E+01  0.11641020762E+02  0.47787274371E+02  0.20000015168E+02 0.  0.
         12    1    1    2    0    0  0.41753174871E+02  0.21867804882E+01 -0.11641020762E+02  0.43400725629E+02  0.00000000000E+00 0. -1.
         11    1    3    3    0    0 -0.52940096881E+01 -0.20935438059E+01  0.60570785828E+01  0.83125005543E+01  0.51100000000E-03 0. -1.
        -11    1    3    3    0    0 -0.13531012316E+02 -0.33867453250E+01 -0.38404248039E+01  0.14467453167E+02  0.51100000000E-03 0.  1.
         12    1    3    3    0    0 -0.22928152867E+02  0.32935086427E+01  0.94243669832E+01  0.25007320650E+02  0.00000000000E+00 0. -1.
</event>
<event>
 7    1  0.1418970E-010  0.4778727E+02  0.7816164E-02  0.1312668E+00
        -11   -1    0    0    0    0  0.00000000000E+00  0.00000000000E+00  0.45593999997E+02  0.45594000000E+02  0.51100000000E-03 0.  1.
         11   -1    0    0    0    0 -0.00000000000E+00 -0.00000000000E+00 -0.45593999997E+02  0.45594000000E+02  0.51100000000E-03 0. -1.
    9900012    2    1    2    0    0 -0.72323821897E+01  0.11512174697E+02  0.41216328009E+02  0.47787271746E+02  0.20000003200E+02 0.  0.
         12    1    1    2    0    0  0.72323821897E+01 -0.11512174697E+02 -0.41216328009E+02  0.43400728254E+02  0.00000000000E+00 0. -1.
         11    1    3    3    0    0  0.23442783331E+01  0.27256574448E+01  0.33617804936E+00  0.36107984368E+01  0.51100000000E-03 0. -1.
        -11    1    3    3    0    0 -0.41842751308E+01 -0.20095676649E+01  0.12667517669E+02  0.13491201752E+02  0.51100000000E-03 0.  1.
         12    1    3    3    0    0 -0.53923853920E+01  0.10796084917E+02  0.28212632291E+02  0.30685271557E+02  0.00000000000E+00 0. -1.
</event>
<event>
 7    1  0.1418970E-010  0.4778727E+02  0.7816164E-02  0.1312668E+00
        -11   -1    0    0    0    0  0.00000000000E+00  0.00000000000E+00  0.45593999997E+02  0.45594000000E+02  0.51100000000E-03 0. -1.
         11   -1    0    0    0    0 -0.00000000000E+00 -0.00000000000E+00 -0.45593999997E+02  0.45594000000E+02  0.51100000000E-03 0.  1.
    9900012    2    1    2    0    0  0.29502621940E+02 -0.42917404262E+01 -0.31540440614E+02  0.47787272686E+02  0.20000007484E+02 0.  0.
         12    1    1    2    0    0 -0.29502621940E+02  0.42917404262E+01  0.31540440614E+02  0.43400727314E+02  0.00000000000E+00 0. -1.
         11    1    3    3    0    0  0.21287818882E+02 -0.73897219299E+01 -0.12501956333E+02  0.25769713529E+02  0.51100000000E-03 0.  1.
        -11    1    3    3    0    0  0.38177812821E+01 -0.14917211235E+01 -0.11196664052E+02  0.11923337283E+02  0.51100000000E-03 0. -1.
        -12    1    3    3    0    0  0.43970217758E+01  0.45897026271E+01 -0.78418202302E+01  0.10094221873E+02  0.00000000000E+00 0.  1.
</event>
<event>
 7    1  0.1418970E-010  0.4778727E+02  0.7816164E-02  0.1312668E+00
        -11   -1    0    0    0    0  0.00000000000E+00  0.00000000000E+00  0.45593999997E+02  0.45594000000E+02  0.51100000000E-03 0.  1.
         11   -1    0    0    0    0 -0.00000000000E+00 -0.00000000000E+00 -0.45593999997E+02  0.45594000000E+02  0.51100000000E-03 0. -1.
    9900012    2    1    2    0    0  0.27345039289E+02  0.33695426523E+02  0.70005890706E+00  0.47787273914E+02  0.20000013084E+02 0.  0.
         12    1    1    2    0    0 -0.27345039289E+02 -0.33695426523E+02 -0.70005890706E+00  0.43400726086E+02  0.00000000000E+00 0. -1.
         11    1    3    3    0    0  0.14524656598E+02  0.22307887514E+02 -0.33264888199E+01  0.26826722177E+02  0.51100000000E-03 0. -1.
        -11    1    3    3    0    0 -0.73445255332E+00  0.36169882878E+01 -0.20196983222E+01  0.42072801667E+01  0.51100000000E-03 0.  1.
        -12    1    3    3    0    0  0.13554835245E+02  0.77705507214E+01  0.60462460491E+01  0.16753271571E+02  0.00000000000E+00 0.  1.
</event>
<event>
 7    1  0.1418970E-010  0.4778725E+02  0.7816164E-02  0.1312668E+00
        -11   -1    0    0    0    0  0.00000000000E+00  0.00000000000E+00  0.45593999997E+02  0.45594000000E+02  0.51100000000E-03 0.  1.
         11   -1    0    0    0    0 -0.00000000000E+00 -0.00000000000E+00 -0.45593999997E+02  0.45594000000E+02  0.51100000000E-03 0. -1.
    9900012    2    1    2    0    0  0.85430046691E+01 -0.65900147476E+01  0.42038239717E+02  0.47787253213E+02  0.19999918698E+02 0.  0.
         12    1    1    2    0    0 -0.85430046691E+01  0.65900147476E+01 -0.42038239717E+02  0.43400746787E+02  0.00000000000E+00 0. -1.
         11    1    3    3    0    0  0.13716670612E+02 -0.53378555688E+01  0.28670381039E+02  0.32227790864E+02  0.51100000000E-03 0. -1.
        -11    1    3    3    0    0 -0.16046854442E+01 -0.34059149307E+01  0.56868437857E+01  0.68202246586E+01  0.51100000000E-03 0.  1.
         12    1    3    3    0    0 -0.35689804985E+01  0.21537557518E+01  0.76810148924E+01  0.87392376907E+01  0.00000000000E+00 0. -1.
</event>
<event>
 7    1  0.1418970E-010  0.4778727E+02  0.7816164E-02  0.1312668E+00
        -11   -1    0    0    0    0  0.00000000000E+00  0.00000000000E+00  0.45593999997E+02  0.45594000000E+02  0.51100000000E-03 0.  1.
         11   -1    0    0    0    0 -0.00000000000E+00 -0.00000000000E+00 -0.45593999997E+02  0.45594000000E+02  0.51100000000E-03 0. -1.
    9900012    2    1    2    0    0  0.51389292949E+01  0.15383971248E+02  0.40256033330E+02  0.47787269763E+02  0.19999994155E+02 0.  0.
         12    1    1    2    0    0 -0.51389292949E+01 -0.15383971248E+02 -0.40256033330E+02  0.43400730237E+02  0.00000000000E+00 0. -1.
         11    1    3    3    0    0  0.26787931054E+01  0.72913456386E+00  0.10156466371E+01  0.29561982455E+01  0.51100000000E-03 0. -1.
        -11    1    3    3    0    0 -0.66551600310E+01  0.66331628769E+01  0.19685538217E+02  0.21813079103E+02  0.51100000000E-03 0.  1.
        -12    1    3    3    0    0  0.91152962205E+01  0.80216738077E+01  0.19554848476E+02  0.23017992414E+02  0.00000000000E+00 0.  1.
</event>
<event>
 7    1  0.1418970E-010  0.4778727E+02  0.7816164E-02  0.1312668E+00
        -11   -1    0    0    0    0  0.00000000000E+00  0.00000000000E+00  0.45593999997E+02  0.45594000000E+02  0.51100000000E-03 0. -1.
         11   -1    0    0    0    0 -0.00000000000E+00 -0.00000000000E+00 -0.45593999997E+02  0.45594000000E+02  0.51100000000E-03 0.  1.
    9900012    2    1    2    0    0  0.95859116845E+01  0.39549171065E+02 -0.15086315124E+02  0.47787267993E+02  0.19999986086E+02 0.  0.
         12    1    1    2    0    0 -0.95859116845E+01 -0.39549171065E+02  0.15086315124E+02  0.43400732007E+02  0.00000000000E+00 0. -1.
         11    1    3    3    0    0  0.10598844180E+02  0.22427395597E+02 -0.40727361561E+01  0.25137835056E+02  0.51100000000E-03 0.  1.
        -11    1    3    3    0    0 -0.30156936641E+01  0.51160265639E+01 -0.82547791357E+01  0.10169046903E+02  0.51100000000E-03 0. -1.
         12    1    3    3    0    0  0.20027611688E+01  0.12005748904E+02 -0.27587998326E+01  0.12480386034E+02  0.00000000000E+00 0. -1.
</event>
<event>
 7    1  0.1418970E-010  0.4778728E+02  0.7816164E-02  0.1312668E+00
        -11   -1    0    0    0    0  0.00000000000E+00  0.00000000000E+00  0.45593999997E+02  0.45594000000E+02  0.51100000000E-03 0.  1.
         11   -1    0    0    0    0 -0.00000000000E+00 -0.00000000000E+00 -0.45593999997E+02  0.45594000000E+02  0.51100000000E-03 0. -1.
    9900012    2    1    2    0    0  0.35862007482E+02  0.15895862259E+02  0.18570424889E+02  0.47787277677E+02  0.20000030239E+02 0.  0.
         12    1    1    2    0    0 -0.35862007482E+02 -0.15895862259E+02 -0.18570424889E+02  0.43400722323E+02  0.00000000000E+00 0. -1.
         11    1    3    3    0    0  0.32768413249E+02  0.15472650141E+02  0.18085070464E+02  0.40499896089E+02  0.51100000000E-03 0. -1.
        -11    1    3    3    0    0  0.37964552596E+01  0.18625320878E+01 -0.17171134214E+01  0.45640527034E+01  0.51100000000E-03 0.  1.
         12    1    3    3    0    0 -0.70286102604E+00 -0.14393199703E+01  0.22024678467E+01  0.27233288848E+01  0.00000000000E+00 0. -1.
</event>
<event>
 7    1  0.1418970E-010  0.4778727E+02  0.7816164E-02  0.1312668E+00
        -11   -1    0    0    0    0  0.00000000000E+00  0.00000000000E+00  0.45593999997E+02  0.45594000000E+02  0.51100000000E-03 0.  1.
         11   -1    0    0    0    0 -0.00000000000E+00 -0.00000000000E+00 -0.45593999997E+02  0.45594000000E+02  0.51100000000E-03 0. -1.
    9900012    2    1    2    0    0 -0.12001803238E+02  0.54812004625E+01  0.41346540143E+02  0.47787271651E+02  0.20000002765E+02 0.  0.
         12    1    1    2    0    0  0.12001803238E+02 -0.54812004625E+01 -0.41346540143E+02  0.43400728349E+02  0.00000000000E+00 0. -1.
         11    1    3    3    0    0 -0.27709670333E+01  0.62154715160E+00  0.28504477205E+01  0.40236341322E+01  0.51100000000E-03 0. -1.
        -11    1    3    3    0    0 -0.77963681618E+01 -0.52459048866E+01  0.25895373031E+02  0.27547653607E+02  0.51100000000E-03 0.  1.
        -12    1    3    3    0    0 -0.14344680427E+01  0.10105558198E+02  0.12600719391E+02  0.16215983912E+02  0.00000000000E+00 0.  1.
</event>
<event>
 7    1  0.1418970E-010  0.4778731E+02  0.7816164E-02  0.1312668E+00
        -11   -1    0    0    0    0  0.00000000000E+00  0.00000000000E+00  0.45593999997E+02  0.45594000000E+02  0.51100000000E-03 0. -1.
         11   -1    0    0    0    0 -0.00000000000E+00 -0.00000000000E+00 -0.45593999997E+02  0.45594000000E+02  0.51100000000E-03 0.  1.
    9900012    2    1    2    0    0  0.52463994096E+01 -0.43005478461E+02  0.25737887874E+01  0.47787305615E+02  0.20000157620E+02 0.  0.
         12    1    1    2    0    0 -0.52463994096E+01  0.43005478461E+02 -0.25737887874E+01  0.43400694385E+02  0.00000000000E+00 0. -1.
         11    1    3    3    0    0 -0.48968201779E+01 -0.10639751182E+02 -0.50562015746E+01  0.12757285279E+02  0.51100000000E-03 0. -1.
        -11    1    3    3    0    0  0.45566410188E+01 -0.14784611003E+02  0.12940086915E+01  0.15524888361E+02  0.51100000000E-03 0.  1.
         12    1    3    3    0    0  0.55865785686E+01 -0.17581116276E+02  0.63359816705E+01  0.19505131974E+02  0.00000000000E+00 0. -1.
</event>
<event>
 7    1  0.1418970E-010  0.4778728E+02  0.7816164E-02  0.1312668E+00
        -11   -1    0    0    0    0  0.00000000000E+00  0.00000000000E+00  0.45593999997E+02  0.45594000000E+02  0.51100000000E-03 0.  1.
         11   -1    0    0    0    0 -0.00000000000E+00 -0.00000000000E+00 -0.45593999997E+02  0.45594000000E+02  0.51100000000E-03 0. -1.
    9900012    2    1    2    0    0 -0.13487928653E+02 -0.30066361113E+02  0.28243801871E+02  0.47787278416E+02  0.20000033609E+02 0.  0.
         12    1    1    2    0    0  0.13487928653E+02  0.30066361113E+02 -0.28243801871E+02  0.43400721584E+02  0.00000000000E+00 0. -1.
         11    1    3    3    0    0 -0.91356138127E+01 -0.54427511490E+01  0.87071943263E+01  0.13744024633E+02  0.51100000000E-03 0. -1.
        -11    1    3    3    0    0 -0.54033256599E+01 -0.21091861465E+02  0.20835670659E+02  0.30136153045E+02  0.51100000000E-03 0.  1.
         12    1    3    3    0    0  0.10510108198E+01 -0.35317484988E+01 -0.12990631150E+01  0.39071007382E+01  0.00000000000E+00 0. -1.
</event>
<event>
 7    1  0.1418970E-010  0.4778728E+02  0.7816164E-02  0.1312668E+00
        -11   -1    0    0    0    0  0.00000000000E+00  0.00000000000E+00  0.45593999997E+02  0.45594000000E+02  0.51100000000E-03 0.  1.
         11   -1    0    0    0    0 -0.00000000000E+00 -0.00000000000E+00 -0.45593999997E+02  0.45594000000E+02  0.51100000000E-03 0. -1.
    9900012    2    1    2    0    0 -0.35001806457E+02 -0.15485123312E+02  0.20462336391E+02  0.47787277543E+02  0.20000029629E+02 0.  0.
         12    1    1    2    0    0  0.35001806457E+02  0.15485123312E+02 -0.20462336391E+02  0.43400722457E+02  0.00000000000E+00 0. -1.
         11    1    3    3    0    0 -0.31940169852E+02 -0.12309352597E+02  0.11796614464E+02  0.36205727787E+02  0.51100000000E-03 0.  1.
        -11    1    3    3    0    0 -0.26449869786E+01 -0.49948869333E+01  0.53818339524E+01  0.78044210897E+01  0.51100000000E-03 0. -1.
        -12    1    3    3    0    0 -0.41664962589E+00  0.18191162182E+01  0.32838879750E+01  0.37771286659E+01  0.00000000000E+00 0.  1.
</event>
<event>
 7    1  0.1418970E-010  0.4778726E+02  0.7816164E-02  0.1312668E+00
        -11   -1    0    0    0    0  0.00000000000E+00  0.00000000000E+00  0.45593999997E+02  0.45594000000E+02  0.51100000000E-03 0. -1.
         11   -1    0    0    0    0 -0.00000000000E+00 -0.00000000000E+00 -0.45593999997E+02  0.45594000000E+02  0.51100000000E-03 0.  1.
    9900012    2    1    2    0    0 -0.33094209638E+02  0.37724811359E+01 -0.27823831065E+02  0.47787263824E+02  0.19999967078E+02 0.  0.
         12    1    1    2    0    0  0.33094209638E+02 -0.37724811359E+01  0.27823831065E+02  0.43400736176E+02  0.00000000000E+00 0. -1.
         11    1    3    3    0    0 -0.14182695882E+02  0.40565752031E+01 -0.56067259467E+01  0.15781002534E+02  0.51100000000E-03 0. -1.
        -11    1    3    3    0    0 -0.17845479130E+02  0.41248903308E+01 -0.16067644420E+02  0.24364832096E+02  0.51100000000E-03 0.  1.
        -12    1    3    3    0    0 -0.10660346265E+01 -0.44089843981E+01 -0.61494606982E+01  0.76414291940E+01  0.00000000000E+00 0.  1.
</event>
<event>
 7    1  0.1418970E-010  0.4778727E+02  0.7816164E-02  0.1312668E+00
        -11   -1    0    0    0    0  0.00000000000E+00  0.00000000000E+00  0.45593999997E+02  0.45594000000E+02  0.51100000000E-03 0.  1.
         11   -1    0    0    0    0 -0.00000000000E+00 -0.00000000000E+00 -0.45593999997E+02  0.45594000000E+02  0.51100000000E-03 0. -1.
    9900012    2    1    2    0    0  0.42430826971E+01 -0.36091629839E+02  0.23727910557E+02  0.47787271497E+02  0.20000002062E+02 0.  0.
         12    1    1    2    0    0 -0.42430826971E+01  0.36091629839E+02 -0.23727910557E+02  0.43400728503E+02  0.00000000000E+00 0. -1.
         11    1    3    3    0    0  0.44368750992E+01 -0.11958917010E+02  0.95033288426E+00  0.12790804883E+02  0.51100000000E-03 0. -1.
        -11    1    3    3    0    0  0.53498962068E+01 -0.14076001345E+02  0.13709312153E+02  0.20364195129E+02  0.51100000000E-03 0.  1.
        -12    1    3    3    0    0 -0.55436886090E+01 -0.10056711484E+02  0.90682655195E+01  0.14632271485E+02  0.00000000000E+00 0.  1.
</event>
<event>
 7    1  0.1418970E-010  0.4778727E+02  0.7816164E-02  0.1312668E+00
        -11   -1    0    0    0    0  0.00000000000E+00  0.00000000000E+00  0.45593999997E+02  0.45594000000E+02  0.51100000000E-03 0.  1.
         11   -1    0    0    0    0 -0.00000000000E+00 -0.00000000000E+00 -0.45593999997E+02  0.45594000000E+02  0.51100000000E-03 0. -1.
    9900012    2    1    2    0    0  0.60825769724E+01 -0.36321205537E+02  0.22965093292E+02  0.47787271617E+02  0.20000002609E+02 0.  0.
         12    1    1    2    0    0 -0.60825769724E+01  0.36321205537E+02 -0.22965093292E+02  0.43400728383E+02  0.00000000000E+00 0. -1.
         11    1    3    3    0    0  0.11740310683E+01 -0.16952940160E+02  0.17908042730E+02  0.24687618834E+02  0.51100000000E-03 0. -1.
        -11    1    3    3    0    0  0.29088609064E+00 -0.13758349707E+02  0.71907883049E+01  0.15526887585E+02  0.51100000000E-03 0.  1.
         12    1    3    3    0    0  0.46176598134E+01 -0.56099156701E+01 -0.21337377428E+01  0.75727651972E+01  0.00000000000E+00 0. -1.
</event>
<event>
 7    1  0.1418970E-010  0.4778727E+02  0.7816164E-02  0.1312668E+00
        -11   -1    0    0    0    0  0.00000000000E+00  0.00000000000E+00  0.45593999997E+02  0.45594000000E+02  0.51100000000E-03 0. -1.
         11   -1    0    0    0    0 -0.00000000000E+00 -0.00000000000E+00 -0.45593999997E+02  0.45594000000E+02  0.51100000000E-03 0.  1.
    9900012    2    1    2    0    0  0.32595616862E+01 -0.43259787736E+02  0.12606902304E+01  0.47787270545E+02  0.19999997725E+02 0.  0.
         12    1    1    2    0    0 -0.32595616862E+01  0.43259787736E+02 -0.12606902304E+01  0.43400729455E+02  0.00000000000E+00 0. -1.
         11    1    3    3    0    0  0.51099490026E+01 -0.59055711467E+01  0.47054567539E+01  0.91174926872E+01  0.51100000000E-03 0. -1.
        -11    1    3    3    0    0 -0.43381441475E+01 -0.84157930624E+01 -0.64721635698E+00  0.94902032006E+01  0.51100000000E-03 0.  1.
        -12    1    3    3    0    0  0.24877568311E+01 -0.28938423527E+02 -0.27975501665E+01  0.29179574658E+02  0.00000000000E+00 0.  1.
</event>
<event>
 7    1  0.1418970E-010  0.4778727E+02  0.7816164E-02  0.1312668E+00
        -11   -1    0    0    0    0  0.00000000000E+00  0.00000000000E+00  0.45593999997E+02  0.45594000000E+02  0.51100000000E-03 0.  1.
         11   -1    0    0    0    0 -0.00000000000E+00 -0.00000000000E+00 -0.45593999997E+02  0.45594000000E+02  0.51100000000E-03 0. -1.
    9900012    2    1    2    0    0  0.14943322766E+02 -0.40705106404E+02 -0.18478348236E+01  0.47787273322E+02  0.20000010385E+02 0.  0.
         12    1    1    2    0    0 -0.14943322766E+02  0.40705106404E+02  0.18478348236E+01  0.43400726678E+02  0.00000000000E+00 0. -1.
         11    1    3    3    0    0  0.13306037031E+02 -0.19140938480E+02 -0.19214731655E+01  0.23390558069E+02  0.51100000000E-03 0. -1.
        -11    1    3    3    0    0  0.20404665237E+01 -0.22541093584E+02  0.14286309474E+01  0.22678302190E+02  0.51100000000E-03 0.  1.
        -12    1    3    3    0    0 -0.40318078867E+00  0.97692566034E+00 -0.13549926055E+01  0.17184130630E+01  0.00000000000E+00 0.  1.
</event>
<event>
 7    1  0.1418970E-010  0.4778727E+02  0.7816164E-02  0.1312668E+00
        -11   -1    0    0    0    0  0.00000000000E+00  0.00000000000E+00  0.45593999997E+02  0.45594000000E+02  0.51100000000E-03 0.  1.
         11   -1    0    0    0    0 -0.00000000000E+00 -0.00000000000E+00 -0.45593999997E+02  0.45594000000E+02  0.51100000000E-03 0. -1.
    9900012    2    1    2    0    0 -0.16849668558E+02  0.42174421474E+01  0.39773427196E+02  0.47787266600E+02  0.19999979736E+02 0.  0.
         12    1    1    2    0    0  0.16849668558E+02 -0.42174421474E+01 -0.39773427196E+02  0.43400733400E+02  0.00000000000E+00 0. -1.
         11    1    3    3    0    0 -0.11386217839E+02 -0.65845672211E+00  0.69917542437E+01  0.13377748300E+02  0.51100000000E-03 0. -1.
        -11    1    3    3    0    0 -0.33723292526E+01 -0.13875781386E+01  0.15127150782E+02  0.15560484206E+02  0.51100000000E-03 0.  1.
        -12    1    3    3    0    0 -0.20911214669E+01  0.62634770081E+01  0.17654522170E+02  0.18849034094E+02  0.00000000000E+00 0.  1.
</event>
<event>
 7    1  0.1418970E-010  0.4778726E+02  0.7816164E-02  0.1312668E+00
        -11   -1    0    0    0    0  0.00000000000E+00  0.00000000000E+00  0.45593999997E+02  0.45594000000E+02  0.51100000000E-03 0. -1.
         11   -1    0    0    0    0 -0.00000000000E+00 -0.00000000000E+00 -0.45593999997E+02  0.45594000000E+02  0.51100000000E-03 0.  1.
    9900012    2    1    2    0    0  0.37248200226E+02  0.20601693916E+02 -0.84714601738E+01  0.47787264410E+02  0.19999969749E+02 0.  0.
         12    1    1    2    0    0 -0.37248200226E+02 -0.20601693916E+02  0.84714601738E+01  0.43400735590E+02  0.00000000000E+00 0. -1.
         11    1    3    3    0    0  0.37770003766E+01  0.67762157411E+01  0.63113465560E-03  0.77577594881E+01  0.51100000000E-03 0. -1.
        -11    1    3    3    0    0  0.20470814883E+02  0.91844968753E+01 -0.12455640003E+02  0.25662272171E+02  0.51100000000E-03 0.  1.
        -12    1    3    3    0    0  0.13000384967E+02  0.46409813000E+01  0.39835486945E+01  0.14367232751E+02  0.00000000000E+00 0.  1.
</event>
<event>
 7    1  0.1418970E-010  0.4778727E+02  0.7816164E-02  0.1312668E+00
        -11   -1    0    0    0    0  0.00000000000E+00  0.00000000000E+00  0.45593999997E+02  0.45594000000E+02  0.51100000000E-03 0. -1.
         11   -1    0    0    0    0 -0.00000000000E+00 -0.00000000000E+00 -0.45593999997E+02  0.45594000000E+02  0.51100000000E-03 0.  1.
    9900012    2    1    2    0    0  0.36467405165E+02  0.14403894476E+02 -0.18608593617E+02  0.47787267611E+02  0.19999984344E+02 0.  0.
         12    1    1    2    0    0 -0.36467405165E+02 -0.14403894476E+02  0.18608593617E+02  0.43400732389E+02  0.00000000000E+00 0. -1.
         11    1    3    3    0    0  0.13795629485E+02  0.50594190406E+01 -0.82768574592E+00  0.14717410706E+02  0.51100000000E-03 0. -1.
        -11    1    3    3    0    0  0.47698702450E+01 -0.29756694376E+01 -0.12342648603E+01  0.57558388409E+01  0.51100000000E-03 0.  1.
         12    1    3    3    0    0  0.17901905434E+02  0.12320144873E+02 -0.16546643011E+02  0.27314018064E+02  0.00000000000E+00 0. -1.
</event>
<event>
 7    1  0.1418970E-010  0.4778730E+02  0.7816164E-02  0.1312668E+00
        -11   -1    0    0    0    0  0.00000000000E+00  0.00000000000E+00  0.45593999997E+02  0.45594000000E+02  0.51100000000E-03 0.  1.
         11   -1    0    0    0    0 -0.00000000000E+00 -0.00000000000E+00 -0.45593999997E+02  0.45594000000E+02  0.51100000000E-03 0. -1.
    9900012    2    1    2    0    0 -0.58837725118E+01  0.21190850761E+02  0.37415903220E+02  0.47787300135E+02  0.20000132637E+02 0.  0.
         12    1    1    2    0    0  0.58837725118E+01 -0.21190850761E+02 -0.37415903220E+02  0.43400699865E+02  0.00000000000E+00 0. -1.
         11    1    3    3    0    0 -0.10272967640E+02  0.20244995404E+02  0.31120556350E+02  0.38521198461E+02  0.51100000000E-03 0. -1.
        -11    1    3    3    0    0  0.41670034288E+00  0.47126312687E+00 -0.86161987828E+00  0.10668257525E+01  0.51100000000E-03 0.  1.
         12    1    3    3    0    0  0.39724947858E+01  0.47459223001E+00  0.71569667486E+01  0.81992759222E+01  0.00000000000E+00 0. -1.
</event>
<event>
 7    1  0.1418970E-010  0.4778727E+02  0.7816164E-02  0.1312668E+00
        -11   -1    0    0    0    0  0.00000000000E+00  0.00000000000E+00  0.45593999997E+02  0.45594000000E+02  0.51100000000E-03 0.  1.
         11   -1    0    0    0    0 -0.00000000000E+00 -0.00000000000E+00 -0.45593999997E+02  0.45594000000E+02  0.51100000000E-03 0. -1.
    9900012    2    1    2    0    0  0.27013970220E+02  0.32523217066E+02  0.98035223371E+01  0.47787270909E+02  0.19999999383E+02 0.  0.
         12    1    1    2    0    0 -0.27013970220E+02 -0.32523217066E+02 -0.98035223371E+01  0.43400729091E+02  0.00000000000E+00 0. -1.
         11    1    3    3    0    0  0.89566603736E+01  0.32011260867E+01  0.66063395988E+00  0.95344329019E+01  0.51100000000E-03 0. -1.
        -11    1    3    3    0    0  0.56938792711E+01  0.11151707399E+02  0.10345601791E+02  0.16242300199E+02  0.51100000000E-03 0.  1.
         12    1    3    3    0    0  0.12363430575E+02  0.18170383581E+02 -0.12027134138E+01  0.22010537808E+02  0.00000000000E+00 0. -1.
</event>
<event>
 7    1  0.1418970E-010  0.4778727E+02  0.7816164E-02  0.1312668E+00
        -11   -1    0    0    0    0  0.00000000000E+00  0.00000000000E+00  0.45593999997E+02  0.45594000000E+02  0.51100000000E-03 0. -1.
         11   -1    0    0    0    0 -0.00000000000E+00 -0.00000000000E+00 -0.45593999997E+02  0.45594000000E+02  0.51100000000E-03 0.  1.
    9900012    2    1    2    0    0 -0.21121281922E+02  0.68020165785E+01 -0.37299427851E+02  0.47787270772E+02  0.19999998757E+02 0.  0.
         12    1    1    2    0    0  0.21121281922E+02 -0.68020165785E+01  0.37299427851E+02  0.43400729228E+02  0.00000000000E+00 0. -1.
         11    1    3    3    0    0 -0.89720919442E+01  0.29223741318E+00 -0.50181241263E+01  0.10284230966E+02  0.51100000000E-03 0. -1.
        -11    1    3    3    0    0 -0.27624120563E+01 -0.71541563866E+00  0.26723097781E+00  0.28660342917E+01  0.51100000000E-03 0.  1.
        -12    1    3    3    0    0 -0.93867779215E+01  0.72251948040E+01 -0.32548534702E+02  0.34637005514E+02  0.00000000000E+00 0.  1.
</event>
<event>
 7    1  0.1418970E-010  0.4778727E+02  0.7816164E-02  0.1312668E+00
        -11   -1    0    0    0    0  0.00000000000E+00  0.00000000000E+00  0.45593999997E+02  0.45594000000E+02  0.51100000000E-03 0.  1.
         11   -1    0    0    0    0 -0.00000000000E+00 -0.00000000000E+00 -0.45593999997E+02  0.45594000000E+02  0.51100000000E-03 0. -1.
    9900012    2    1    2    0    0  0.10461000491E+02  0.40930350739E+02 -0.99447056600E+01  0.47787270587E+02  0.19999997917E+02 0.  0.
         12    1    1    2    0    0 -0.10461000491E+02 -0.40930350739E+02  0.99447056600E+01  0.43400729413E+02  0.00000000000E+00 0. -1.
         11    1    3    3    0    0  0.51141211566E+01  0.30063498013E+01 -0.87973564530E+00  0.59971917927E+01  0.51100000000E-03 0. -1.
        -11    1    3    3    0    0  0.77822735031E+01  0.32039913401E+02 -0.31893295631E+01  0.33125392903E+02  0.51100000000E-03 0.  1.
         12    1    3    3    0    0 -0.24353941687E+01  0.58840875363E+01 -0.58756404516E+01  0.86646858921E+01  0.00000000000E+00 0. -1.
</event>
<event>
 7    1  0.1418970E-010  0.4778727E+02  0.7816164E-02  0.1312668E+00
        -11   -1    0    0    0    0  0.00000000000E+00  0.00000000000E+00  0.45593999997E+02  0.45594000000E+02  0.51100000000E-03 0.  1.
         11   -1    0    0    0    0 -0.00000000000E+00 -0.00000000000E+00 -0.45593999997E+02  0.45594000000E+02  0.51100000000E-03 0. -1.
    9900012    2    1    2    0    0 -0.10947303376E+02  0.23736948532E+02  0.34645879444E+02  0.47787272595E+02  0.20000007070E+02 0.  0.
         12    1    1    2    0    0  0.10947303376E+02 -0.23736948532E+02 -0.34645879444E+02  0.43400727405E+02  0.00000000000E+00 0. -1.
         11    1    3    3    0    0 -0.63944538282E+01  0.12143993645E+02  0.10717687883E+02  0.17413628433E+02  0.51100000000E-03 0. -1.
        -11    1    3    3    0    0 -0.47500382349E+01 -0.19136700024E+01  0.53755346471E+01  0.74243766819E+01  0.51100000000E-03 0.  1.
        -12    1    3    3    0    0  0.19718868695E+00  0.13506624890E+02  0.18552656914E+02  0.22949267480E+02  0.00000000000E+00 0.  1.
</event>
<event>
 7    1  0.1418970E-010  0.4778727E+02  0.7816164E-02  0.1312668E+00
        -11   -1    0    0    0    0  0.00000000000E+00  0.00000000000E+00  0.45593999997E+02  0.45594000000E+02  0.51100000000E-03 0.  1.
         11   -1    0    0    0    0 -0.00000000000E+00 -0.00000000000E+00 -0.45593999997E+02  0.45594000000E+02  0.51100000000E-03 0. -1.
    9900012    2    1    2    0    0 -0.35716958432E+02  0.89041075673E+01 -0.22992151058E+02  0.47787271187E+02  0.20000000652E+02 0.  0.
         12    1    1    2    0    0  0.35716958432E+02 -0.89041075673E+01  0.22992151058E+02  0.43400728813E+02  0.00000000000E+00 0. -1.
         11    1    3    3    0    0 -0.54438533688E+01 -0.17286984267E+01 -0.10116587063E+02  0.11617627633E+02  0.51100000000E-03 0. -1.
        -11    1    3    3    0    0 -0.47950474976E+01  0.26569148890E+01  0.17169494395E+01  0.57445272104E+01  0.51100000000E-03 0.  1.
         12    1    3    3    0    0 -0.25478057565E+02  0.79758911050E+01 -0.14592513434E+02  0.30425116344E+02  0.00000000000E+00 0. -1.
</event>
<event>
 7    1  0.1418970E-010  0.4778727E+02  0.7816164E-02  0.1312668E+00
        -11   -1    0    0    0    0  0.00000000000E+00  0.00000000000E+00  0.45593999997E+02  0.45594000000E+02  0.51100000000E-03 0.  1.
         11   -1    0    0    0    0 -0.00000000000E+00 -0.00000000000E+00 -0.45593999997E+02  0.45594000000E+02  0.51100000000E-03 0. -1.
    9900012    2    1    2    0    0  0.26127395429E+02  0.34238789466E+02  0.53560991426E+01  0.47787270813E+02  0.19999998943E+02 0.  0.
         12    1    1    2    0    0 -0.26127395429E+02 -0.34238789466E+02 -0.53560991426E+01  0.43400729187E+02  0.00000000000E+00 0. -1.
         11    1    3    3    0    0  0.98707224445E+01  0.96513798691E+01 -0.41067104739E+01  0.14402963797E+02  0.51100000000E-03 0. -1.
        -11    1    3    3    0    0  0.10393546760E+02  0.22280987100E+02  0.37323592252E+01  0.24867623651E+02  0.51100000000E-03 0.  1.
         12    1    3    3    0    0  0.58631262246E+01  0.23064224969E+01  0.57304503912E+01  0.85166833654E+01  0.00000000000E+00 0. -1.
</event>
<event>
 7    1  0.1418970E-010  0.4778727E+02  0.7816164E-02  0.1312668E+00
        -11   -1    0    0    0    0  0.00000000000E+00  0.00000000000E+00  0.45593999997E+02  0.45594000000E+02  0.51100000000E-03 0.  1.
         11   -1    0    0    0    0 -0.00000000000E+00 -0.00000000000E+00 -0.45593999997E+02  0.45594000000E+02  0.51100000000E-03 0. -1.
    9900012    2    1    2    0    0  0.10652144165E+02 -0.14291118390E+02  0.39571693443E+02  0.47787272332E+02  0.20000005870E+02 0.  0.
         12    1    1    2    0    0 -0.10652144165E+02  0.14291118390E+02 -0.39571693443E+02  0.43400727668E+02  0.00000000000E+00 0. -1.
         11    1    3    3    0    0  0.14402641420E+02 -0.10295033592E+02  0.34813903286E+02  0.39056774813E+02  0.51100000000E-03 0.  1.
        -11    1    3    3    0    0 -0.78096564743E+00 -0.48529865275E+00 -0.10022794531E+01  0.13601420838E+01  0.51100000000E-03 0. -1.
         12    1    3    3    0    0 -0.29695316073E+01 -0.35107861448E+01  0.57600696103E+01  0.73703554349E+01  0.00000000000E+00 0. -1.
</event>
<event>
 7    1  0.1418970E-010  0.4778727E+02  0.7816164E-02  0.1312668E+00
        -11   -1    0    0    0    0  0.00000000000E+00  0.00000000000E+00  0.45593999997E+02  0.45594000000E+02  0.51100000000E-03 0.  1.
         11   -1    0    0    0    0 -0.00000000000E+00 -0.00000000000E+00 -0.45593999997E+02  0.45594000000E+02  0.51100000000E-03 0. -1.
    9900012    2    1    2    0    0 -0.29191549160E+02  0.94814870081E+01  0.30685147618E+02  0.47787269331E+02  0.19999992189E+02 0.  0.
         12    1    1    2    0    0  0.29191549160E+02 -0.94814870081E+01 -0.30685147618E+02  0.43400730669E+02  0.00000000000E+00 0. -1.
         11    1    3    3    0    0 -0.10001585137E+02  0.10475843986E+02  0.15507592668E+02  0.21219341250E+02  0.51100000000E-03 0. -1.
        -11    1    3    3    0    0 -0.11504891724E+01  0.11702292055E+00  0.63485759006E+01  0.64530408279E+01  0.51100000000E-03 0.  1.
         12    1    3    3    0    0 -0.18039474851E+02 -0.11113798980E+01  0.88289790493E+01  0.20114887253E+02  0.00000000000E+00 0. -1.
</event>
<event>
 7    1  0.1418970E-010  0.4778727E+02  0.7816164E-02  0.1312668E+00
        -11   -1    0    0    0    0  0.00000000000E+00  0.00000000000E+00  0.45593999997E+02  0.45594000000E+02  0.51100000000E-03 0.  1.
         11   -1    0    0    0    0 -0.00000000000E+00 -0.00000000000E+00 -0.45593999997E+02  0.45594000000E+02  0.51100000000E-03 0. -1.
    9900012    2    1    2    0    0 -0.11878926768E+02 -0.17570176796E+01  0.41706440647E+02  0.47787271853E+02  0.20000003685E+02 0.  0.
         12    1    1    2    0    0  0.11878926768E+02  0.17570176796E+01 -0.41706440647E+02  0.43400728147E+02  0.00000000000E+00 0. -1.
         11    1    3    3    0    0  0.53113049786E+00 -0.75928870743E+01  0.69779880609E+01  0.10326003649E+02  0.51100000000E-03 0. -1.
        -11    1    3    3    0    0 -0.35874332994E+01  0.21636945336E+01  0.73130151067E+01  0.84280153016E+01  0.51100000000E-03 0.  1.
         12    1    3    3    0    0 -0.88226239669E+01  0.36721748611E+01  0.27415437479E+02  0.29033252902E+02  0.00000000000E+00 0. -1.
</event>
<event>
 7    1  0.1418970E-010  0.4778727E+02  0.7816164E-02  0.1312668E+00
        -11   -1    0    0    0    0  0.00000000000E+00  0.00000000000E+00  0.45593999997E+02  0.45594000000E+02  0.51100000000E-03 0.  1.
         11   -1    0    0    0    0 -0.00000000000E+00 -0.00000000000E+00 -0.45593999997E+02  0.45594000000E+02  0.51100000000E-03 0. -1.
    9900012    2    1    2    0    0  0.35944065555E+02 -0.21649567299E+02 -0.11088003657E+02  0.47787269154E+02  0.19999991380E+02 0.  0.
         12    1    1    2    0    0 -0.35944065555E+02  0.21649567299E+02  0.11088003657E+02  0.43400730846E+02  0.00000000000E+00 0. -1.
         11    1    3    3    0    0  0.79931968983E+01 -0.11464889012E+02 -0.18052222868E+01  0.14092327859E+02  0.51100000000E-03 0.  1.
        -11    1    3    3    0    0  0.24571775049E+01  0.21414851098E+01 -0.35200477433E+01  0.47973342746E+01  0.51100000000E-03 0. -1.
         12    1    3    3    0    0  0.25493691152E+02 -0.12326163397E+02 -0.57627336270E+01  0.28897607020E+02  0.00000000000E+00 0. -1.
</event>
<event>
 7    1  0.1418970E-010  0.4778725E+02  0.7816164E-02  0.1312668E+00
        -11   -1    0    0    0    0  0.00000000000E+00  0.00000000000E+00  0.45593999997E+02  0.45594000000E+02  0.51100000000E-03 0.  1.
         11   -1    0    0    0    0 -0.00000000000E+00 -0.00000000000E+00 -0.45593999997E+02  0.45594000000E+02  0.51100000000E-03 0. -1.
    9900012    2    1    2    0    0  0.25313626368E+02 -0.12474091190E+02  0.32973353656E+02  0.47787254819E+02  0.19999926022E+02 0.  0.
         12    1    1    2    0    0 -0.25313626368E+02  0.12474091190E+02 -0.32973353656E+02  0.43400745181E+02  0.00000000000E+00 0. -1.
         11    1    3    3    0    0  0.10111488294E+02 -0.77500768847E+01  0.26546901661E+02  0.29445608761E+02  0.51100000000E-03 0. -1.
        -11    1    3    3    0    0  0.13783946198E+02 -0.31465401803E+01  0.74556716334E+01  0.15983895885E+02  0.51100000000E-03 0.  1.
        -12    1    3    3    0    0  0.14181918764E+01 -0.15774741254E+01 -0.10292196383E+01  0.23577501730E+01  0.00000000000E+00 0.  1.
</event>
<event>
 7    1  0.1418970E-010  0.4778727E+02  0.7816164E-02  0.1312668E+00
        -11   -1    0    0    0    0  0.00000000000E+00  0.00000000000E+00  0.45593999997E+02  0.45594000000E+02  0.51100000000E-03 0.  1.
         11   -1    0    0    0    0 -0.00000000000E+00 -0.00000000000E+00 -0.45593999997E+02  0.45594000000E+02  0.51100000000E-03 0. -1.
    9900012    2    1    2    0    0 -0.14422106743E+02 -0.26608158413E+02  0.31106788791E+02  0.47787267680E+02  0.19999984660E+02 0.  0.
         12    1    1    2    0    0  0.14422106743E+02  0.26608158413E+02 -0.31106788791E+02  0.43400732320E+02  0.00000000000E+00 0. -1.
         11    1    3    3    0    0 -0.10745788896E+02 -0.97555341264E+01  0.17689562850E+02  0.22881500370E+02  0.51100000000E-03 0. -1.
        -11    1    3    3    0    0 -0.24109657831E+01 -0.16855550881E+02  0.15128798761E+02  0.22777245305E+02  0.51100000000E-03 0.  1.
         12    1    3    3    0    0 -0.12653520638E+01  0.29265943225E-02 -0.17115728192E+01  0.21285220049E+01  0.00000000000E+00 0. -1.
</event>
<event>
 7    1  0.1418970E-010  0.4778727E+02  0.7816164E-02  0.1312668E+00
        -11   -1    0    0    0    0  0.00000000000E+00  0.00000000000E+00  0.45593999997E+02  0.45594000000E+02  0.51100000000E-03 0. -1.
         11   -1    0    0    0    0 -0.00000000000E+00 -0.00000000000E+00 -0.45593999997E+02  0.45594000000E+02  0.51100000000E-03 0.  1.
    9900012    2    1    2    0    0 -0.24341032705E+01  0.43268585160E+02  0.23511758384E+01  0.47787270187E+02  0.19999996092E+02 0.  0.
         12    1    1    2    0    0  0.24341032705E+01 -0.43268585160E+02 -0.23511758384E+01  0.43400729813E+02  0.00000000000E+00 0. -1.
         11    1    3    3    0    0  0.28698146888E+01  0.15562722824E+02  0.30968433694E+01  0.16125278824E+02  0.51100000000E-03 0. -1.
        -11    1    3    3    0    0 -0.44355703441E+01  0.22223289914E+02  0.54863634022E+01  0.23316283634E+02  0.51100000000E-03 0.  1.
         12    1    3    3    0    0 -0.86834761517E+00  0.54825724218E+01 -0.62320309332E+01  0.83457077288E+01  0.00000000000E+00 0. -1.
</event>
<event>
 7    1  0.1426708E-010  0.4778727E+02  0.7816164E-02  0.1312668E+00
        -11   -1    0    0    0    0  0.00000000000E+00  0.00000000000E+00  0.45593999997E+02  0.45594000000E+02  0.51100000000E-03 0. -1.
         11   -1    0    0    0    0 -0.00000000000E+00 -0.00000000000E+00 -0.45593999997E+02  0.45594000000E+02  0.51100000000E-03 0.  1.
    9900012    2    1    2    0    0  0.20672923246E+02  0.38146903831E+02  0.10331216853E+01  0.47787269962E+02  0.19999995063E+02 0.  0.
         12    1    1    2    0    0 -0.20672923246E+02 -0.38146903831E+02 -0.10331216853E+01  0.43400730038E+02  0.00000000000E+00 0. -1.
         11    1    3    3    0    0  0.65026591403E+01  0.46663616950E+01 -0.44362208008E+01  0.91509323360E+01  0.51100000000E-03 0. -1.
        -11    1    3    3    0    0  0.12612402999E+02  0.30290683528E+02  0.86575195526E+00  0.32822975867E+02  0.51100000000E-03 0.  1.
         12    1    3    3    0    0  0.15578611066E+01  0.31898586079E+01  0.46035905308E+01  0.58133617590E+01  0.00000000000E+00 0. -1.
</event>
<event>
 7    1  0.1418970E-010  0.4778728E+02  0.7816164E-02  0.1312668E+00
        -11   -1    0    0    0    0  0.00000000000E+00  0.00000000000E+00  0.45593999997E+02  0.45594000000E+02  0.51100000000E-03 0.  1.
         11   -1    0    0    0    0 -0.00000000000E+00 -0.00000000000E+00 -0.45593999997E+02  0.45594000000E+02  0.51100000000E-03 0. -1.
    9900012    2    1    2    0    0  0.29145112181E+02  0.31623767452E+02 -0.58414619953E+01  0.47787275235E+02  0.20000019105E+02 0.  0.
         12    1    1    2    0    0 -0.29145112181E+02 -0.31623767452E+02  0.58414619953E+01  0.43400724765E+02  0.00000000000E+00 0. -1.
         11    1    3    3    0    0  0.18604164814E+02  0.15245680166E+02  0.62847967833E-01  0.24053059313E+02  0.51100000000E-03 0. -1.
        -11    1    3    3    0    0  0.69956067030E+01  0.17561375179E+02 -0.33265830427E+01  0.19193920035E+02  0.51100000000E-03 0.  1.
         12    1    3    3    0    0  0.35453406638E+01 -0.11832878933E+01 -0.25777269204E+01  0.45402958865E+01  0.00000000000E+00 0. -1.
</event>
<event>
 7    1  0.1418970E-010  0.4778727E+02  0.7816164E-02  0.1312668E+00
        -11   -1    0    0    0    0  0.00000000000E+00  0.00000000000E+00  0.45593999997E+02  0.45594000000E+02  0.51100000000E-03 0. -1.
         11   -1    0    0    0    0 -0.00000000000E+00 -0.00000000000E+00 -0.45593999997E+02  0.45594000000E+02  0.51100000000E-03 0.  1.
    9900012    2    1    2    0    0 -0.23597081080E+02 -0.21188331330E+02 -0.29628624995E+02  0.47787273748E+02  0.20000012328E+02 0.  0.
         12    1    1    2    0    0  0.23597081080E+02  0.21188331330E+02  0.29628624995E+02  0.43400726252E+02  0.00000000000E+00 0. -1.
         11    1    3    3    0    0  0.41421257039E+00 -0.59663943764E+01  0.66861178223E+00  0.60180126191E+01  0.51100000000E-03 0. -1.
        -11    1    3    3    0    0 -0.93576877115E+01 -0.54592700188E+01 -0.86383150648E+01  0.13856061340E+02  0.51100000000E-03 0.  1.
         12    1    3    3    0    0 -0.14653605939E+02 -0.97626669348E+01 -0.21658921713E+02  0.27913199789E+02  0.00000000000E+00 0. -1.
</event>
<event>
 7    1  0.1418970E-010  0.4778728E+02  0.7816164E-02  0.1312668E+00
        -11   -1    0    0    0    0  0.00000000000E+00  0.00000000000E+00  0.45593999997E+02  0.45594000000E+02  0.51100000000E-03 0.  1.
         11   -1    0    0    0    0 -0.00000000000E+00 -0.00000000000E+00 -0.45593999997E+02  0.45594000000E+02  0.51100000000E-03 0. -1.
    9900012    2    1    2    0    0 -0.26522947824E+02 -0.29593568621E+02  0.17446392501E+02  0.47787277929E+02  0.20000031389E+02 0.  0.
         12    1    1    2    0    0  0.26522947824E+02  0.29593568621E+02 -0.17446392501E+02  0.43400722071E+02  0.00000000000E+00 0. -1.
         11    1    3    3    0    0 -0.49949657914E+01 -0.49371495028E+01  0.26085568911E+01  0.74919755596E+01  0.51100000000E-03 0. -1.
        -11    1    3    3    0    0 -0.23428952148E+02 -0.20872757280E+02  0.82169690427E+01  0.32436189291E+02  0.51100000000E-03 0.  1.
         12    1    3    3    0    0  0.19009701146E+01 -0.37836618380E+01  0.66208665671E+01  0.78591130785E+01  0.00000000000E+00 0. -1.
</event>
<event>
 7    1  0.1418970E-010  0.4778727E+02  0.7816164E-02  0.1312668E+00
        -11   -1    0    0    0    0  0.00000000000E+00  0.00000000000E+00  0.45593999997E+02  0.45594000000E+02  0.51100000000E-03 0.  1.
         11   -1    0    0    0    0 -0.00000000000E+00 -0.00000000000E+00 -0.45593999997E+02  0.45594000000E+02  0.51100000000E-03 0. -1.
    9900012    2    1    2    0    0  0.35033256676E+02  0.22782871579E+02  0.11714732285E+02  0.47787271167E+02  0.20000000560E+02 0.  0.
         12    1    1    2    0    0 -0.35033256676E+02 -0.22782871579E+02 -0.11714732285E+02  0.43400728833E+02  0.00000000000E+00 0. -1.
         11    1    3    3    0    0  0.13940344262E+02  0.83668370422E+01  0.19940690430E+01  0.16380276916E+02  0.51100000000E-03 0. -1.
        -11    1    3    3    0    0  0.20776564332E+02  0.79704708868E+01  0.11007563313E+02  0.24826608345E+02  0.51100000000E-03 0.  1.
         12    1    3    3    0    0  0.31634808206E+00  0.64455636499E+01 -0.12869000715E+01  0.65803859057E+01  0.00000000000E+00 0. -1.
</event>
<event>
 7    1  0.1418970E-010  0.4778727E+02  0.7816164E-02  0.1312668E+00
        -11   -1    0    0    0    0  0.00000000000E+00  0.00000000000E+00  0.45593999997E+02  0.45594000000E+02  0.51100000000E-03 0.  1.
         11   -1    0    0    0    0 -0.00000000000E+00 -0.00000000000E+00 -0.45593999997E+02  0.45594000000E+02  0.51100000000E-03 0. -1.
    9900012    2    1    2    0    0 -0.19707197197E+02  0.94777793701E+01  0.37488951271E+02  0.47787269701E+02  0.19999993873E+02 0.  0.
         12    1    1    2    0    0  0.19707197197E+02 -0.94777793701E+01 -0.37488951271E+02  0.43400730299E+02  0.00000000000E+00 0. -1.
         11    1    3    3    0    0 -0.55008867639E+01  0.10782402030E+02  0.11714750412E+02  0.16845038623E+02  0.51100000000E-03 0.  1.
        -11    1    3    3    0    0  0.14430845175E+00 -0.24328190947E+01  0.20136724882E+01  0.31613779950E+01  0.51100000000E-03 0. -1.
        -12    1    3    3    0    0 -0.14350618884E+02  0.11281964350E+01  0.23760528370E+02  0.27780853083E+02  0.00000000000E+00 0.  1.
</event>
<event>
 7    1  0.1418970E-010  0.4778727E+02  0.7816164E-02  0.1312668E+00
        -11   -1    0    0    0    0  0.00000000000E+00  0.00000000000E+00  0.45593999997E+02  0.45594000000E+02  0.51100000000E-03 0.  1.
         11   -1    0    0    0    0 -0.00000000000E+00 -0.00000000000E+00 -0.45593999997E+02  0.45594000000E+02  0.51100000000E-03 0. -1.
    9900012    2    1    2    0    0  0.16891642288E+02  0.30192081158E+02  0.26205612386E+02  0.47787268850E+02  0.19999989995E+02 0.  0.
         12    1    1    2    0    0 -0.16891642288E+02 -0.30192081158E+02 -0.26205612386E+02  0.43400731150E+02  0.00000000000E+00 0. -1.
         11    1    3    3    0    0  0.87637567427E+01  0.18970422757E+02  0.13936698484E+02  0.25117960441E+02  0.51100000000E-03 0. -1.
        -11    1    3    3    0    0  0.11737669764E+02  0.88872224371E+01  0.88610005581E+01  0.17183507945E+02  0.51100000000E-03 0.  1.
         12    1    3    3    0    0 -0.36097842186E+01  0.23344359640E+01  0.34079133441E+01  0.54858004645E+01  0.00000000000E+00 0. -1.
</event>
<event>
 7    1  0.1418970E-010  0.4778728E+02  0.7816164E-02  0.1312668E+00
        -11   -1    0    0    0    0  0.00000000000E+00  0.00000000000E+00  0.45593999997E+02  0.45594000000E+02  0.51100000000E-03 0.  1.
         11   -1    0    0    0    0 -0.00000000000E+00 -0.00000000000E+00 -0.45593999997E+02  0.45594000000E+02  0.51100000000E-03 0. -1.
    9900012    2    1    2    0    0  0.31930065975E+02  0.20224382848E+02 -0.21332326334E+02  0.47787275103E+02  0.20000018506E+02 0.  0.
         12    1    1    2    0    0 -0.31930065975E+02 -0.20224382848E+02  0.21332326334E+02  0.43400724897E+02  0.00000000000E+00 0. -1.
         11    1    3    3    0    0  0.57915287488E+01 -0.18879541026E+00 -0.35625956557E-01  0.57947146975E+01  0.51100000000E-03 0. -1.
        -11    1    3    3    0    0  0.18231770140E+02  0.91515627594E+01 -0.19310321463E+02  0.28089803464E+02  0.51100000000E-03 0.  1.
         12    1    3    3    0    0  0.79067670854E+01  0.11261615499E+02 -0.19863789144E+01  0.13902756942E+02  0.00000000000E+00 0. -1.
</event>
<event>
 7    1  0.1418970E-010  0.4778727E+02  0.7816164E-02  0.1312668E+00
        -11   -1    0    0    0    0  0.00000000000E+00  0.00000000000E+00  0.45593999997E+02  0.45594000000E+02  0.51100000000E-03 0.  1.
         11   -1    0    0    0    0 -0.00000000000E+00 -0.00000000000E+00 -0.45593999997E+02  0.45594000000E+02  0.51100000000E-03 0. -1.
    9900012    2    1    2    0    0 -0.42980106835E+02 -0.27957355785E+01 -0.53401904064E+01  0.47787270115E+02  0.19999995764E+02 0.  0.
         12    1    1    2    0    0  0.42980106835E+02  0.27957355785E+01  0.53401904064E+01  0.43400729885E+02  0.00000000000E+00 0. -1.
         11    1    3    3    0    0 -0.39764483481E+01 -0.51612601364E+01  0.31929221098E+01  0.72557218470E+01  0.51100000000E-03 0. -1.
        -11    1    3    3    0    0 -0.18310147042E+02 -0.12279125531E+00 -0.89138288464E+00  0.18332242801E+02  0.51100000000E-03 0.  1.
         12    1    3    3    0    0 -0.20693511444E+02  0.24883158133E+01 -0.76417296316E+01  0.22199305468E+02  0.00000000000E+00 0. -1.
</event>
<event>
 7    1  0.3751649E-010  0.4778727E+02  0.7816164E-02  0.1312668E+00
        -11   -1    0    0    0    0  0.00000000000E+00  0.00000000000E+00  0.45593999997E+02  0.45594000000E+02  0.51100000000E-03 0.  1.
         11   -1    0    0    0    0 -0.00000000000E+00 -0.00000000000E+00 -0.45593999997E+02  0.45594000000E+02  0.51100000000E-03 0. -1.
    9900012    2    1    2    0    0  0.27663440246E+02 -0.84404669419E+01 -0.32359168400E+02  0.47787272034E+02  0.20000004512E+02 0.  0.
         12    1    1    2    0    0 -0.27663440246E+02  0.84404669419E+01  0.32359168400E+02  0.43400727966E+02  0.00000000000E+00 0. -1.
         11    1    3    3    0    0 -0.11112109958E+01 -0.77403650521E+00  0.18632330217E+00  0.13669817199E+01  0.51100000000E-03 0. -1.
        -11    1    3    3    0    0  0.23459745783E+02 -0.73638162546E+01 -0.16748959650E+02  0.29750850604E+02  0.51100000000E-03 0.  1.
        -12    1    3    3    0    0  0.53149054587E+01 -0.30261418212E+00 -0.15796532052E+02  0.16669439710E+02  0.00000000000E+00 0.  1.
</event>
<event>
 7    1  0.1418970E-010  0.4778727E+02  0.7816164E-02  0.1312668E+00
        -11   -1    0    0    0    0  0.00000000000E+00  0.00000000000E+00  0.45593999997E+02  0.45594000000E+02  0.51100000000E-03 0.  1.
         11   -1    0    0    0    0 -0.00000000000E+00 -0.00000000000E+00 -0.45593999997E+02  0.45594000000E+02  0.51100000000E-03 0. -1.
    9900012    2    1    2    0    0 -0.38334430899E+02  0.10033466426E+02  0.17703804177E+02  0.47787265868E+02  0.19999976399E+02 0.  0.
         12    1    1    2    0    0  0.38334430899E+02 -0.10033466426E+02 -0.17703804177E+02  0.43400734132E+02  0.00000000000E+00 0. -1.
         11    1    3    3    0    0 -0.19872085069E+02  0.85934708354E+01  0.76952847178E+01  0.22977487093E+02  0.51100000000E-03 0.  1.
        -11    1    3    3    0    0 -0.47639179342E+01  0.65341797951E+01  0.35540115413E+01  0.88329733372E+01  0.51100000000E-03 0. -1.
         12    1    3    3    0    0 -0.13698427896E+02 -0.50941842043E+01  0.64545079182E+01  0.15976805438E+02  0.00000000000E+00 0. -1.
</event>
<event>
 7    1  0.1418970E-010  0.4778726E+02  0.7816164E-02  0.1312668E+00
        -11   -1    0    0    0    0  0.00000000000E+00  0.00000000000E+00  0.45593999997E+02  0.45594000000E+02  0.51100000000E-03 0.  1.
         11   -1    0    0    0    0 -0.00000000000E+00 -0.00000000000E+00 -0.45593999997E+02  0.45594000000E+02  0.51100000000E-03 0. -1.
    9900012    2    1    2    0    0  0.77847177402E+01  0.24601924841E+02  0.34896533643E+02  0.47787255808E+02  0.19999930529E+02 0.  0.
         12    1    1    2    0    0 -0.77847177402E+01 -0.24601924841E+02 -0.34896533643E+02  0.43400744192E+02  0.00000000000E+00 0. -1.
         11    1    3    3    0    0 -0.24585042445E+01  0.43850444137E+01  0.30249585881E+01  0.58671315267E+01  0.51100000000E-03 0. -1.
        -11    1    3    3    0    0  0.77447412764E+01  0.18564911321E+02  0.33059096884E+02  0.38698072780E+02  0.51100000000E-03 0.  1.
        -12    1    3    3    0    0  0.24984807083E+01  0.16519691067E+01 -0.11875218300E+01  0.32220515011E+01  0.00000000000E+00 0.  1.
</event>
<event>
 7    1  0.1418970E-010  0.4778727E+02  0.7816164E-02  0.1312668E+00
        -11   -1    0    0    0    0  0.00000000000E+00  0.00000000000E+00  0.45593999997E+02  0.45594000000E+02  0.51100000000E-03 0.  1.
         11   -1    0    0    0    0 -0.00000000000E+00 -0.00000000000E+00 -0.45593999997E+02  0.45594000000E+02  0.51100000000E-03 0. -1.
    9900012    2    1    2    0    0 -0.15819954703E+02  0.41277729790E+01  0.40203405284E+02  0.47787271054E+02  0.20000000046E+02 0.  0.
         12    1    1    2    0    0  0.15819954703E+02 -0.41277729790E+01 -0.40203405284E+02  0.43400728946E+02  0.00000000000E+00 0. -1.
         11    1    3    3    0    0 -0.35589835148E+01  0.57286412549E+00 -0.57277153526E+00  0.36500143092E+01  0.51100000000E-03 0. -1.
        -11    1    3    3    0    0 -0.11969730882E+01  0.40570204428E+01  0.43623367382E+01  0.60763592327E+01  0.51100000000E-03 0.  1.
        -12    1    3    3    0    0 -0.11063998100E+02 -0.50211158926E+00  0.36413840081E+02  0.38060897512E+02  0.00000000000E+00 0.  1.
</event>
<event>
 7    1  0.1418970E-010  0.4778728E+02  0.7816164E-02  0.1312668E+00
        -11   -1    0    0    0    0  0.00000000000E+00  0.00000000000E+00  0.45593999997E+02  0.45594000000E+02  0.51100000000E-03 0.  1.
         11   -1    0    0    0    0 -0.00000000000E+00 -0.00000000000E+00 -0.45593999997E+02  0.45594000000E+02  0.51100000000E-03 0. -1.
    9900012    2    1    2    0    0 -0.29121257460E+02  0.27272280217E+02  0.17082091461E+02  0.47787277045E+02  0.20000027360E+02 0.  0.
         12    1    1    2    0    0  0.29121257460E+02 -0.27272280217E+02 -0.17082091461E+02  0.43400722955E+02  0.00000000000E+00 0. -1.
         11    1    3    3    0    0 -0.48007338933E+01  0.76543278560E+01  0.72184286022E+01  0.11564665693E+02  0.51100000000E-03 0. -1.
        -11    1    3    3    0    0 -0.58632875806E+01  0.34817697739E+01  0.95120598741E+01  0.11703851730E+02  0.51100000000E-03 0.  1.
         12    1    3    3    0    0 -0.18457235986E+02  0.16136182587E+02  0.35160298485E+00  0.24518759622E+02  0.00000000000E+00 0. -1.
</event>
<event>
 7    1  0.1418970E-010  0.4778727E+02  0.7816164E-02  0.1312668E+00
        -11   -1    0    0    0    0  0.00000000000E+00  0.00000000000E+00  0.45593999997E+02  0.45594000000E+02  0.51100000000E-03 0.  1.
         11   -1    0    0    0    0 -0.00000000000E+00 -0.00000000000E+00 -0.45593999997E+02  0.45594000000E+02  0.51100000000E-03 0. -1.
    9900012    2    1    2    0    0 -0.36005206142E+02 -0.18706148412E+02  0.15405471044E+02  0.47787269640E+02  0.19999993595E+02 0.  0.
         12    1    1    2    0    0  0.36005206142E+02  0.18706148412E+02 -0.15405471044E+02  0.43400730360E+02  0.00000000000E+00 0. -1.
         11    1    3    3    0    0 -0.25361107982E+01 -0.61330206860E+01  0.21888150680E+01  0.69883268655E+01  0.51100000000E-03 0. -1.
        -11    1    3    3    0    0 -0.33583161237E+02 -0.13930938089E+02  0.14288979251E+02  0.39065005862E+02  0.51100000000E-03 0.  1.
         12    1    3    3    0    0  0.11406589391E+00  0.13578103629E+01 -0.10723232743E+01  0.17339369118E+01  0.00000000000E+00 0. -1.
</event>
<event>
 7    1  0.1418970E-010  0.4778727E+02  0.7816164E-02  0.1312668E+00
        -11   -1    0    0    0    0  0.00000000000E+00  0.00000000000E+00  0.45593999997E+02  0.45594000000E+02  0.51100000000E-03 0.  1.
         11   -1    0    0    0    0 -0.00000000000E+00 -0.00000000000E+00 -0.45593999997E+02  0.45594000000E+02  0.51100000000E-03 0. -1.
    9900012    2    1    2    0    0  0.28859162157E+02 -0.28408224942E+02  0.15612329463E+02  0.47787270559E+02  0.19999997786E+02 0.  0.
         12    1    1    2    0    0 -0.28859162157E+02  0.28408224942E+02 -0.15612329463E+02  0.43400729441E+02  0.00000000000E+00 0. -1.
         11    1    3    3    0    0  0.16314211959E+02 -0.21433710956E+02  0.87449685108E+00  0.26950365901E+02  0.51100000000E-03 0. -1.
        -11    1    3    3    0    0  0.84593880284E+01 -0.53246272846E+01  0.80793151869E+01  0.12852557554E+02  0.51100000000E-03 0.  1.
        -12    1    3    3    0    0  0.40855621703E+01 -0.16498867009E+01  0.66585174249E+01  0.79843471036E+01  0.00000000000E+00 0.  1.
</event>
<event>
 7    1  0.1418970E-010  0.4778727E+02  0.7816164E-02  0.1312668E+00
        -11   -1    0    0    0    0  0.00000000000E+00  0.00000000000E+00  0.45593999997E+02  0.45594000000E+02  0.51100000000E-03 0.  1.
         11   -1    0    0    0    0 -0.00000000000E+00 -0.00000000000E+00 -0.45593999997E+02  0.45594000000E+02  0.51100000000E-03 0. -1.
    9900012    2    1    2    0    0  0.36661754342E+02  0.72532268960E+00  0.23216651314E+02  0.47787271635E+02  0.20000002692E+02 0.  0.
         12    1    1    2    0    0 -0.36661754342E+02 -0.72532268960E+00 -0.23216651314E+02  0.43400728365E+02  0.00000000000E+00 0. -1.
         11    1    3    3    0    0  0.77197529811E+01 -0.40792961380E+01  0.80939381567E+01  0.11905758196E+02  0.51100000000E-03 0. -1.
        -11    1    3    3    0    0  0.67631038175E+01  0.92543140992E+00  0.11068043505E+02  0.13003752683E+02  0.51100000000E-03 0.  1.
         12    1    3    3    0    0  0.22178897543E+02  0.38791874177E+01  0.40546696519E+01  0.22877760756E+02  0.00000000000E+00 0. -1.
</event>
<event>
 7    1  0.1418970E-010  0.4778727E+02  0.7816164E-02  0.1312668E+00
        -11   -1    0    0    0    0  0.00000000000E+00  0.00000000000E+00  0.45593999997E+02  0.45594000000E+02  0.51100000000E-03 0.  1.
         11   -1    0    0    0    0 -0.00000000000E+00 -0.00000000000E+00 -0.45593999997E+02  0.45594000000E+02  0.51100000000E-03 0. -1.
    9900012    2    1    2    0    0 -0.57902008877E+01  0.39389899269E+02  0.17278102292E+02  0.47787269481E+02  0.19999992873E+02 0.  0.
         12    1    1    2    0    0  0.57902008877E+01 -0.39389899269E+02 -0.17278102292E+02  0.43400730519E+02  0.00000000000E+00 0. -1.
         11    1    3    3    0    0 -0.60072731224E+01  0.28107747407E+02  0.89546546244E+01  0.30105126380E+02  0.51100000000E-03 0. -1.
        -11    1    3    3    0    0 -0.41153561401E+01  0.12246647363E+01  0.41245544235E+01  0.59538146872E+01  0.51100000000E-03 0.  1.
         12    1    3    3    0    0  0.43324283748E+01  0.10057487126E+02  0.41988932442E+01  0.11728328414E+02  0.00000000000E+00 0. -1.
</event>
<event>
 7    1  0.1418970E-010  0.4778727E+02  0.7816164E-02  0.1312668E+00
        -11   -1    0    0    0    0  0.00000000000E+00  0.00000000000E+00  0.45593999997E+02  0.45594000000E+02  0.51100000000E-03 0. -1.
         11   -1    0    0    0    0 -0.00000000000E+00 -0.00000000000E+00 -0.45593999997E+02  0.45594000000E+02  0.51100000000E-03 0.  1.
    9900012    2    1    2    0    0  0.10774325614E+02 -0.35451785599E+02 -0.22598853572E+02  0.47787269852E+02  0.19999994563E+02 0.  0.
         12    1    1    2    0    0 -0.10774325614E+02  0.35451785599E+02  0.22598853572E+02  0.43400730148E+02  0.00000000000E+00 0. -1.
         11    1    3    3    0    0  0.30376466815E+01 -0.32205618554E+01 -0.77233429941E+01  0.89022100229E+01  0.51100000000E-03 0. -1.
        -11    1    3    3    0    0  0.76563130542E+01 -0.33165930284E+02 -0.15836662003E+02  0.37541948869E+02  0.51100000000E-03 0.  1.
         12    1    3    3    0    0  0.80365878432E-01  0.93470654047E+00  0.96115142463E+00  0.13431109605E+01  0.00000000000E+00 0. -1.
</event>
<event>
 7    1  0.1418970E-010  0.4778727E+02  0.7816164E-02  0.1312668E+00
        -11   -1    0    0    0    0  0.00000000000E+00  0.00000000000E+00  0.45593999997E+02  0.45594000000E+02  0.51100000000E-03 0.  1.
         11   -1    0    0    0    0 -0.00000000000E+00 -0.00000000000E+00 -0.45593999997E+02  0.45594000000E+02  0.51100000000E-03 0. -1.
    9900012    2    1    2    0    0 -0.42164937359E+02  0.91508371121E+01 -0.46908196590E+01  0.47787267847E+02  0.19999985420E+02 0.  0.
         12    1    1    2    0    0  0.42164937359E+02 -0.91508371121E+01  0.46908196590E+01  0.43400732153E+02  0.00000000000E+00 0. -1.
         11    1    3    3    0    0  0.38975790222E+00 -0.95169156917E+00  0.11711455054E+01  0.15585923524E+01  0.51100000000E-03 0. -1.
        -11    1    3    3    0    0  0.36241508009E-01  0.22090590241E+01 -0.15489963399E+01  0.26982670626E+01  0.51100000000E-03 0.  1.
        -12    1    3    3    0    0 -0.42590936770E+02  0.78934696572E+01 -0.43129688244E+01  0.43530408432E+02  0.00000000000E+00 0.  1.
</event>
<event>
 7    1  0.1418970E-010  0.4778727E+02  0.7816164E-02  0.1312668E+00
        -11   -1    0    0    0    0  0.00000000000E+00  0.00000000000E+00  0.45593999997E+02  0.45594000000E+02  0.51100000000E-03 0. -1.
         11   -1    0    0    0    0 -0.00000000000E+00 -0.00000000000E+00 -0.45593999997E+02  0.45594000000E+02  0.51100000000E-03 0.  1.
    9900012    2    1    2    0    0  0.12714226754E+02  0.40416776557E+02 -0.94050932722E+01  0.47787272256E+02  0.20000005524E+02 0.  0.
         12    1    1    2    0    0 -0.12714226754E+02 -0.40416776557E+02  0.94050932722E+01  0.43400727744E+02  0.00000000000E+00 0. -1.
         11    1    3    3    0    0 -0.38860784438E+01  0.40801259506E+01  0.19739205875E+01  0.59703765536E+01  0.51100000000E-03 0. -1.
        -11    1    3    3    0    0  0.71101632783E+01  0.20839432431E+02 -0.72467719020E+01  0.23180855661E+02  0.51100000000E-03 0.  1.
        -12    1    3    3    0    0  0.94901419197E+01  0.15497218176E+02 -0.41322419576E+01  0.18636040042E+02  0.00000000000E+00 0.  1.
</event>
<event>
 7    1  0.1418970E-010  0.4778728E+02  0.7816164E-02  0.1312668E+00
        -11   -1    0    0    0    0  0.00000000000E+00  0.00000000000E+00  0.45593999997E+02  0.45594000000E+02  0.51100000000E-03 0.  1.
         11   -1    0    0    0    0 -0.00000000000E+00 -0.00000000000E+00 -0.45593999997E+02  0.45594000000E+02  0.51100000000E-03 0. -1.
    9900012    2    1    2    0    0 -0.64080778353E+01 -0.24955884744E+02  0.34925108123E+02  0.47787276247E+02  0.20000023720E+02 0.  0.
         12    1    1    2    0    0  0.64080778353E+01  0.24955884744E+02 -0.34925108123E+02  0.43400723753E+02  0.00000000000E+00 0. -1.
         11    1    3    3    0    0 -0.28200159985E+01 -0.22888886333E+01  0.13118275506E+02  0.13611783642E+02  0.51100000000E-03 0. -1.
        -11    1    3    3    0    0 -0.55434358645E+01 -0.77025797087E+01  0.27772474119E+01  0.98879987258E+01  0.51100000000E-03 0.  1.
        -12    1    3    3    0    0  0.19553740277E+01 -0.14964416402E+02  0.19029585205E+02  0.24287493879E+02  0.00000000000E+00 0.  1.
</event>
<event>
 7    1  0.1483373E-010  0.4778728E+02  0.7816164E-02  0.1312668E+00
        -11   -1    0    0    0    0  0.00000000000E+00  0.00000000000E+00  0.45593999997E+02  0.45594000000E+02  0.51100000000E-03 0. -1.
         11   -1    0    0    0    0 -0.00000000000E+00 -0.00000000000E+00 -0.45593999997E+02  0.45594000000E+02  0.51100000000E-03 0.  1.
    9900012    2    1    2    0    0 -0.30849111785E+02 -0.24537889975E+02 -0.18161684683E+02  0.47787279581E+02  0.20000038924E+02 0.  0.
         12    1    1    2    0    0  0.30849111785E+02  0.24537889975E+02  0.18161684683E+02  0.43400720419E+02  0.00000000000E+00 0. -1.
         11    1    3    3    0    0 -0.59593421906E+00 -0.50106315704E+01 -0.60445914128E+01  0.78739222714E+01  0.51100000000E-03 0. -1.
        -11    1    3    3    0    0 -0.18978548467E+02 -0.74427848026E+01 -0.11430704509E+02  0.23371806806E+02  0.51100000000E-03 0.  1.
        -12    1    3    3    0    0 -0.11274629099E+02 -0.12084473602E+02 -0.68638876059E+00  0.16541550504E+02  0.00000000000E+00 0.  1.
</event>
<event>
 7    1  0.1418970E-010  0.4778727E+02  0.7816164E-02  0.1312668E+00
        -11   -1    0    0    0    0  0.00000000000E+00  0.00000000000E+00  0.45593999997E+02  0.45594000000E+02  0.51100000000E-03 0.  1.
         11   -1    0    0    0    0 -0.00000000000E+00 -0.00000000000E+00 -0.45593999997E+02  0.45594000000E+02  0.51100000000E-03 0. -1.
    9900012    2    1    2    0    0  0.36282762644E+02  0.96353169406E+01  0.21779462402E+02  0.47787272124E+02  0.20000004924E+02 0.  0.
         12    1    1    2    0    0 -0.36282762644E+02 -0.96353169406E+01 -0.21779462402E+02  0.43400727876E+02  0.00000000000E+00 0. -1.
         11    1    3    3    0    0  0.86256416625E+01  0.39745604723E+01  0.22341685238E+01  0.97565534023E+01  0.51100000000E-03 0. -1.
        -11    1    3    3    0    0  0.14618803078E+01 -0.14966585459E+01  0.84345814828E+01  0.86901810043E+01  0.51100000000E-03 0.  1.
        -12    1    3    3    0    0  0.26195240674E+02  0.71574150142E+01  0.11110712395E+02  0.29340537718E+02  0.00000000000E+00 0.  1.
</event>
<event>
 7    1  0.1418970E-010  0.4778727E+02  0.7816164E-02  0.1312668E+00
        -11   -1    0    0    0    0  0.00000000000E+00  0.00000000000E+00  0.45593999997E+02  0.45594000000E+02  0.51100000000E-03 0.  1.
         11   -1    0    0    0    0 -0.00000000000E+00 -0.00000000000E+00 -0.45593999997E+02  0.45594000000E+02  0.51100000000E-03 0. -1.
    9900012    2    1    2    0    0 -0.38320209735E+02  0.18668001201E+02  0.81664315466E+01  0.47787270200E+02  0.19999996150E+02 0.  0.
         12    1    1    2    0    0  0.38320209735E+02 -0.18668001201E+02 -0.81664315466E+01  0.43400729800E+02  0.00000000000E+00 0. -1.
         11    1    3    3    0    0 -0.93577175746E+01  0.98499032884E+01  0.95518083056E+01  0.16607965413E+02  0.51100000000E-03 0. -1.
        -11    1    3    3    0    0 -0.11608636152E+02  0.64195373326E+00  0.16976770362E+01  0.11749665760E+02  0.51100000000E-03 0.  1.
        -12    1    3    3    0    0 -0.17353856009E+02  0.81761441789E+01 -0.30830537952E+01  0.19429639027E+02  0.00000000000E+00 0.  1.
</event>
<event>
 7    1  0.1418970E-010  0.4778727E+02  0.7816164E-02  0.1312668E+00
        -11   -1    0    0    0    0  0.00000000000E+00  0.00000000000E+00  0.45593999997E+02  0.45594000000E+02  0.51100000000E-03 0. -1.
         11   -1    0    0    0    0 -0.00000000000E+00 -0.00000000000E+00 -0.45593999997E+02  0.45594000000E+02  0.51100000000E-03 0.  1.
    9900012    2    1    2    0    0  0.18656283221E+02  0.14072188591E+02 -0.36572391897E+02  0.47787271384E+02  0.20000001548E+02 0.  0.
         12    1    1    2    0    0 -0.18656283221E+02 -0.14072188591E+02  0.36572391897E+02  0.43400728616E+02  0.00000000000E+00 0. -1.
         11    1    3    3    0    0  0.56078242512E+01 -0.13156956206E+01 -0.46951867549E+01  0.74312533750E+01  0.51100000000E-03 0. -1.
        -11    1    3    3    0    0  0.32688753772E+01 -0.18940009599E+01 -0.10596349805E+02  0.11249685121E+02  0.51100000000E-03 0.  1.
        -12    1    3    3    0    0  0.97795835923E+01  0.17281885171E+02 -0.21280855337E+02  0.29106332888E+02  0.00000000000E+00 0.  1.
</event>
<event>
 7    1  0.3716191E-010  0.4778729E+02  0.7816164E-02  0.1312668E+00
        -11   -1    0    0    0    0  0.00000000000E+00  0.00000000000E+00  0.45593999997E+02  0.45594000000E+02  0.51100000000E-03 0. -1.
         11   -1    0    0    0    0 -0.00000000000E+00 -0.00000000000E+00 -0.45593999997E+02  0.45594000000E+02  0.51100000000E-03 0.  1.
    9900012    2    1    2    0    0  0.14235292274E+01  0.94584927421E+01 -0.42333584870E+02  0.47787286546E+02  0.20000070677E+02 0.  0.
         12    1    1    2    0    0 -0.14235292274E+01 -0.94584927421E+01  0.42333584870E+02  0.43400713454E+02  0.00000000000E+00 0. -1.
         11    1    3    3    0    0  0.12592600596E+01 -0.18557866544E+01 -0.12647481343E+01  0.25747365125E+01  0.51100000000E-03 0. -1.
        -11    1    3    3    0    0 -0.45910150506E+01  0.59169823155E+01 -0.35026554653E+02  0.35818258334E+02  0.51100000000E-03 0.  1.
        -12    1    3    3    0    0  0.47552842183E+01  0.53972970810E+01 -0.60422820819E+01  0.93942916995E+01  0.00000000000E+00 0.  1.
</event>
<event>
 7    1  0.1418970E-010  0.4778727E+02  0.7816164E-02  0.1312668E+00
        -11   -1    0    0    0    0  0.00000000000E+00  0.00000000000E+00  0.45593999997E+02  0.45594000000E+02  0.51100000000E-03 0.  1.
         11   -1    0    0    0    0 -0.00000000000E+00 -0.00000000000E+00 -0.45593999997E+02  0.45594000000E+02  0.51100000000E-03 0. -1.
    9900012    2    1    2    0    0  0.20111326397E+01 -0.13613866130E+02  0.41161163468E+02  0.47787269781E+02  0.19999994241E+02 0.  0.
         12    1    1    2    0    0 -0.20111326397E+01  0.13613866130E+02 -0.41161163468E+02  0.43400730219E+02  0.00000000000E+00 0. -1.
         11    1    3    3    0    0  0.19493100916E+01 -0.50602088590E+01  0.11212834520E+01  0.55374001454E+01  0.51100000000E-03 0. -1.
        -11    1    3    3    0    0 -0.10978245080E+01 -0.95216281793E+01  0.20264497504E+02  0.22416879382E+02  0.51100000000E-03 0.  1.
         12    1    3    3    0    0  0.11596470562E+01  0.96797090794E+00  0.19775382511E+02  0.19832990254E+02  0.00000000000E+00 0. -1.
</event>
<event>
 7    1  0.1418970E-010  0.4778727E+02  0.7816164E-02  0.1312668E+00
        -11   -1    0    0    0    0  0.00000000000E+00  0.00000000000E+00  0.45593999997E+02  0.45594000000E+02  0.51100000000E-03 0. -1.
         11   -1    0    0    0    0 -0.00000000000E+00 -0.00000000000E+00 -0.45593999997E+02  0.45594000000E+02  0.51100000000E-03 0.  1.
    9900012    2    1    2    0    0 -0.27122311122E+02  0.27432348139E+02 -0.19886431766E+02  0.47787266673E+02  0.19999980067E+02 0.  0.
         12    1    1    2    0    0  0.27122311122E+02 -0.27432348139E+02  0.19886431766E+02  0.43400733327E+02  0.00000000000E+00 0. -1.
         11    1    3    3    0    0 -0.67580105999E+01  0.95012201694E+01 -0.89461788696E+01  0.14696190275E+02  0.51100000000E-03 0. -1.
        -11    1    3    3    0    0 -0.11318152928E+02  0.13809616618E+02 -0.14000762255E+02  0.22689809184E+02  0.51100000000E-03 0.  1.
         12    1    3    3    0    0 -0.90461475940E+01  0.41215113511E+01  0.30605093582E+01  0.10401267213E+02  0.00000000000E+00 0. -1.
</event>
<event>
 7    1  0.1418970E-010  0.4778727E+02  0.7816164E-02  0.1312668E+00
        -11   -1    0    0    0    0  0.00000000000E+00  0.00000000000E+00  0.45593999997E+02  0.45594000000E+02  0.51100000000E-03 0. -1.
         11   -1    0    0    0    0 -0.00000000000E+00 -0.00000000000E+00 -0.45593999997E+02  0.45594000000E+02  0.51100000000E-03 0.  1.
    9900012    2    1    2    0    0 -0.31591214836E+02 -0.20134814195E+02 -0.21913640496E+02  0.47787271467E+02  0.20000001925E+02 0.  0.
         12    1    1    2    0    0  0.31591214836E+02  0.20134814195E+02  0.21913640496E+02  0.43400728533E+02  0.00000000000E+00 0. -1.
         11    1    3    3    0    0  0.14690984285E+01 -0.20343891527E+00  0.55036874907E+00  0.15819429844E+01  0.51100000000E-03 0. -1.
        -11    1    3    3    0    0 -0.16358238170E+02 -0.99665465456E+01 -0.43834536085E+01  0.19650411494E+02  0.51100000000E-03 0.  1.
        -12    1    3    3    0    0 -0.16702075094E+02 -0.99648287339E+01 -0.18080555637E+02  0.26554916988E+02  0.00000000000E+00 0.  1.
</event>
<event>
 7    1  0.1418970E-010  0.4778729E+02  0.7816164E-02  0.1312668E+00
        -11   -1    0    0    0    0  0.00000000000E+00  0.00000000000E+00  0.45593999997E+02  0.45594000000E+02  0.51100000000E-03 0. -1.
         11   -1    0    0    0    0 -0.00000000000E+00 -0.00000000000E+00 -0.45593999997E+02  0.45594000000E+02  0.51100000000E-03 0.  1.
    9900012    2    1    2    0    0 -0.34220293677E+02 -0.20946904988E+02 -0.16547527259E+02  0.47787285878E+02  0.20000067630E+02 0.  0.
         12    1    1    2    0    0  0.34220293677E+02  0.20946904988E+02  0.16547527259E+02  0.43400714122E+02  0.00000000000E+00 0. -1.
         11    1    3    3    0    0 -0.97227770514E+01 -0.71099497175E+01  0.21799177635E+01  0.12240744270E+02  0.51100000000E-03 0.  1.
        -11    1    3    3    0    0 -0.45451254547E+00 -0.42860571435E+01 -0.32670092701E+01  0.54083470047E+01  0.51100000000E-03 0. -1.
        -12    1    3    3    0    0 -0.24043004081E+02 -0.95508981270E+01 -0.15460435752E+02  0.30138194603E+02  0.00000000000E+00 0.  1.
</event>
<event>
 7    1  0.1418970E-010  0.4778727E+02  0.7816164E-02  0.1312668E+00
        -11   -1    0    0    0    0  0.00000000000E+00  0.00000000000E+00  0.45593999997E+02  0.45594000000E+02  0.51100000000E-03 0. -1.
         11   -1    0    0    0    0 -0.00000000000E+00 -0.00000000000E+00 -0.45593999997E+02  0.45594000000E+02  0.51100000000E-03 0.  1.
    9900012    2    1    2    0    0  0.15929367787E+02  0.39792447190E+02 -0.68146739193E+01  0.47787269683E+02  0.19999993793E+02 0.  0.
         12    1    1    2    0    0 -0.15929367787E+02 -0.39792447190E+02  0.68146739193E+01  0.43400730317E+02  0.00000000000E+00 0. -1.
         11    1    3    3    0    0  0.40253296999E+01  0.49969076301E+01 -0.24653687927E+01  0.68738932638E+01  0.51100000000E-03 0.  1.
        -11    1    3    3    0    0  0.15587857346E+02  0.33166784431E+02 -0.36991484125E+01  0.36833416695E+02  0.51100000000E-03 0. -1.
         12    1    3    3    0    0 -0.36838192592E+01  0.16287551282E+01 -0.65015671404E+00  0.40799597246E+01  0.00000000000E+00 0. -1.
</event>
<event>
 7    1  0.1418970E-010  0.4778728E+02  0.7816164E-02  0.1312668E+00
        -11   -1    0    0    0    0  0.00000000000E+00  0.00000000000E+00  0.45593999997E+02  0.45594000000E+02  0.51100000000E-03 0. -1.
         11   -1    0    0    0    0 -0.00000000000E+00 -0.00000000000E+00 -0.45593999997E+02  0.45594000000E+02  0.51100000000E-03 0.  1.
    9900012    2    1    2    0    0  0.99093613984E+01 -0.25562612202E+02  0.33644906292E+02  0.47787282203E+02  0.20000050875E+02 0.  0.
         12    1    1    2    0    0 -0.99093613984E+01  0.25562612202E+02 -0.33644906292E+02  0.43400717797E+02  0.00000000000E+00 0. -1.
         11    1    3    3    0    0 -0.80156908720E+00 -0.52641936655E+01  0.16532674166E+02  0.17369040367E+02  0.51100000000E-03 0. -1.
        -11    1    3    3    0    0  0.16034993138E+01 -0.31180041291E+01 -0.12019146648E+01  0.37064482893E+01  0.51100000000E-03 0.  1.
         12    1    3    3    0    0  0.91074311718E+01 -0.17180414408E+02  0.18314146791E+02  0.26711793546E+02  0.00000000000E+00 0. -1.
</event>
<event>
 7    1  0.1418970E-010  0.4778727E+02  0.7816164E-02  0.1312668E+00
        -11   -1    0    0    0    0  0.00000000000E+00  0.00000000000E+00  0.45593999997E+02  0.45594000000E+02  0.51100000000E-03 0.  1.
         11   -1    0    0    0    0 -0.00000000000E+00 -0.00000000000E+00 -0.45593999997E+02  0.45594000000E+02  0.51100000000E-03 0. -1.
    9900012    2    1    2    0    0 -0.28507752683E+02 -0.32685526605E+02  0.16085360762E+01  0.47787274191E+02  0.20000014344E+02 0.  0.
         12    1    1    2    0    0  0.28507752683E+02  0.32685526605E+02 -0.16085360762E+01  0.43400725809E+02  0.00000000000E+00 0. -1.
         11    1    3    3    0    0 -0.10487662486E+02 -0.59448837242E+01  0.10288093341E+01  0.12099221290E+02  0.51100000000E-03 0. -1.
        -11    1    3    3    0    0 -0.10837333224E+02 -0.25951028840E+02 -0.15172401604E+01  0.28163907883E+02  0.51100000000E-03 0.  1.
         12    1    3    3    0    0 -0.71827569726E+01 -0.78961404089E+00  0.20969669024E+01  0.75241450179E+01  0.00000000000E+00 0. -1.
</event>
<event>
 7    1  0.1418970E-010  0.4778727E+02  0.7816164E-02  0.1312668E+00
        -11   -1    0    0    0    0  0.00000000000E+00  0.00000000000E+00  0.45593999997E+02  0.45594000000E+02  0.51100000000E-03 0.  1.
         11   -1    0    0    0    0 -0.00000000000E+00 -0.00000000000E+00 -0.45593999997E+02  0.45594000000E+02  0.51100000000E-03 0. -1.
    9900012    2    1    2    0    0 -0.38408500196E+02 -0.14468014555E+02  0.14109821190E+02  0.47787269747E+02  0.19999994086E+02 0.  0.
         12    1    1    2    0    0  0.38408500196E+02  0.14468014555E+02 -0.14109821190E+02  0.43400730253E+02  0.00000000000E+00 0. -1.
         11    1    3    3    0    0 -0.17991411178E+02 -0.43368381773E+01  0.62588532850E+01  0.19536434840E+02  0.51100000000E-03 0. -1.
        -11    1    3    3    0    0 -0.13406369725E+02 -0.13261175473E+02  0.28078808193E+01  0.19064986732E+02  0.51100000000E-03 0.  1.
         12    1    3    3    0    0 -0.70107192922E+01  0.31299990958E+01  0.50430870861E+01  0.91858481749E+01  0.00000000000E+00 0. -1.
</event>
<event>
 7    1  0.2539863E-010  0.4778727E+02  0.7816164E-02  0.1312668E+00
        -11   -1    0    0    0    0  0.00000000000E+00  0.00000000000E+00  0.45593999997E+02  0.45594000000E+02  0.51100000000E-03 0. -1.
         11   -1    0    0    0    0 -0.00000000000E+00 -0.00000000000E+00 -0.45593999997E+02  0.45594000000E+02  0.51100000000E-03 0.  1.
    9900012    2    1    2    0    0  0.14596942206E+02 -0.21292718820E+02 -0.34888006657E+02  0.47787267230E+02  0.19999982609E+02 0.  0.
         12    1    1    2    0    0 -0.14596942206E+02  0.21292718820E+02  0.34888006657E+02  0.43400732770E+02  0.00000000000E+00 0. -1.
         11    1    3    3    0    0  0.18009315220E+01  0.18816035247E+01  0.61211903408E+00  0.26755328711E+01  0.51100000000E-03 0. -1.
        -11    1    3    3    0    0  0.75444296220E+00 -0.96282051921E+01 -0.13689240058E+02  0.16753113532E+02  0.51100000000E-03 0.  1.
        -12    1    3    3    0    0  0.12041567721E+02 -0.13546117152E+02 -0.21810885633E+02  0.28358620827E+02  0.00000000000E+00 0.  1.
</event>
<event>
 7    1  0.1418970E-010  0.4778728E+02  0.7816164E-02  0.1312668E+00
        -11   -1    0    0    0    0  0.00000000000E+00  0.00000000000E+00  0.45593999997E+02  0.45594000000E+02  0.51100000000E-03 0. -1.
         11   -1    0    0    0    0 -0.00000000000E+00 -0.00000000000E+00 -0.45593999997E+02  0.45594000000E+02  0.51100000000E-03 0.  1.
    9900012    2    1    2    0    0  0.18959768883E+02  0.14658213163E+02 -0.36184065947E+02  0.47787277912E+02  0.20000031313E+02 0.  0.
         12    1    1    2    0    0 -0.18959768883E+02 -0.14658213163E+02  0.36184065947E+02  0.43400722088E+02  0.00000000000E+00 0. -1.
         11    1    3    3    0    0  0.11590486132E+02  0.74055089531E+01 -0.11431846088E+02  0.17884854958E+02  0.51100000000E-03 0. -1.
        -11    1    3    3    0    0  0.11656954285E+01 -0.34484392712E+01 -0.24127732384E+01  0.43671563059E+01  0.51100000000E-03 0.  1.
        -12    1    3    3    0    0  0.62035873230E+01  0.10701143482E+02 -0.22339446621E+02  0.25535266648E+02  0.00000000000E+00 0.  1.
</event>
<event>
 7    1  0.1418970E-010  0.4778727E+02  0.7816164E-02  0.1312668E+00
        -11   -1    0    0    0    0  0.00000000000E+00  0.00000000000E+00  0.45593999997E+02  0.45594000000E+02  0.51100000000E-03 0.  1.
         11   -1    0    0    0    0 -0.00000000000E+00 -0.00000000000E+00 -0.45593999997E+02  0.45594000000E+02  0.51100000000E-03 0. -1.
    9900012    2    1    2    0    0  0.30886683494E+02  0.23750813889E+02  0.19118971149E+02  0.47787269184E+02  0.19999991516E+02 0.  0.
         12    1    1    2    0    0 -0.30886683494E+02 -0.23750813889E+02 -0.19118971149E+02  0.43400730816E+02  0.00000000000E+00 0. -1.
         11    1    3    3    0    0  0.23643554898E+01  0.14954754967E+01  0.51572804557E+01  0.58672110754E+01  0.51100000000E-03 0. -1.
        -11    1    3    3    0    0  0.20372637440E+02  0.12828182478E+02  0.16521013875E+02  0.29198467796E+02  0.51100000000E-03 0.  1.
         12    1    3    3    0    0  0.81496905640E+01  0.94271559139E+01 -0.25593231817E+01  0.12721590312E+02  0.00000000000E+00 0. -1.
</event>
<event>
 7    1  0.1418970E-010  0.4778728E+02  0.7816164E-02  0.1312668E+00
        -11   -1    0    0    0    0  0.00000000000E+00  0.00000000000E+00  0.45593999997E+02  0.45594000000E+02  0.51100000000E-03 0.  1.
         11   -1    0    0    0    0 -0.00000000000E+00 -0.00000000000E+00 -0.45593999997E+02  0.45594000000E+02  0.51100000000E-03 0. -1.
    9900012    2    1    2    0    0 -0.91368591253E+01 -0.42418297016E+02  0.91037912525E+00  0.47787275276E+02  0.20000019295E+02 0.  0.
         12    1    1    2    0    0  0.91368591253E+01  0.42418297016E+02 -0.91037912525E+00  0.43400724724E+02  0.00000000000E+00 0. -1.
         11    1    3    3    0    0 -0.14420130597E+02 -0.30128522765E+02  0.15928842945E+01  0.33439577316E+02  0.51100000000E-03 0. -1.
        -11    1    3    3    0    0  0.14350487812E+01 -0.90310831280E+01 -0.14114497938E+01  0.92526762751E+01  0.51100000000E-03 0.  1.
        -12    1    3    3    0    0  0.38482226903E+01 -0.32586911224E+01  0.72894462457E+00  0.50950216851E+01  0.00000000000E+00 0.  1.
</event>
<event>
 7    1  0.1418970E-010  0.4778727E+02  0.7816164E-02  0.1312668E+00
        -11   -1    0    0    0    0  0.00000000000E+00  0.00000000000E+00  0.45593999997E+02  0.45594000000E+02  0.51100000000E-03 0. -1.
         11   -1    0    0    0    0 -0.00000000000E+00 -0.00000000000E+00 -0.45593999997E+02  0.45594000000E+02  0.51100000000E-03 0.  1.
    9900012    2    1    2    0    0  0.16954714840E+02 -0.39467137283E+02 -0.62053299652E+01  0.47787269585E+02  0.19999993345E+02 0.  0.
         12    1    1    2    0    0 -0.16954714840E+02  0.39467137283E+02  0.62053299652E+01  0.43400730415E+02  0.00000000000E+00 0. -1.
         11    1    3    3    0    0  0.11762644997E+02 -0.84425098600E+01 -0.30322818511E+01  0.14792921400E+02  0.51100000000E-03 0. -1.
        -11    1    3    3    0    0 -0.43730829683E+00 -0.40065633494E+00 -0.17244504865E+01  0.18235936462E+01  0.51100000000E-03 0.  1.
        -12    1    3    3    0    0  0.56293781401E+01 -0.30623971088E+02 -0.14485976277E+01  0.31170754539E+02  0.00000000000E+00 0.  1.
</event>
<event>
 7    1  0.1418970E-010  0.4778727E+02  0.7816164E-02  0.1312668E+00
        -11   -1    0    0    0    0  0.00000000000E+00  0.00000000000E+00  0.45593999997E+02  0.45594000000E+02  0.51100000000E-03 0.  1.
         11   -1    0    0    0    0 -0.00000000000E+00 -0.00000000000E+00 -0.45593999997E+02  0.45594000000E+02  0.51100000000E-03 0. -1.
    9900012    2    1    2    0    0  0.39680427250E+02  0.57684619328E+01  0.16607579367E+02  0.47787272446E+02  0.20000006389E+02 0.  0.
         12    1    1    2    0    0 -0.39680427250E+02 -0.57684619328E+01 -0.16607579367E+02  0.43400727554E+02  0.00000000000E+00 0. -1.
         11    1    3    3    0    0  0.31765177607E+01  0.44578989634E+01  0.56136568047E+01  0.78406805339E+01  0.51100000000E-03 0. -1.
        -11    1    3    3    0    0  0.10976327009E+02 -0.49270714660E+01  0.47588817033E+01  0.12938421201E+02  0.51100000000E-03 0.  1.
        -12    1    3    3    0    0  0.25527582481E+02  0.62376344354E+01  0.62350408588E+01  0.27008170711E+02  0.00000000000E+00 0.  1.
</event>
<event>
 7    1  0.1418970E-010  0.4778727E+02  0.7816164E-02  0.1312668E+00
        -11   -1    0    0    0    0  0.00000000000E+00  0.00000000000E+00  0.45593999997E+02  0.45594000000E+02  0.51100000000E-03 0. -1.
         11   -1    0    0    0    0 -0.00000000000E+00 -0.00000000000E+00 -0.45593999997E+02  0.45594000000E+02  0.51100000000E-03 0.  1.
    9900012    2    1    2    0    0  0.25920504922E+02  0.34038976307E+02  0.72868919954E+01  0.47787270993E+02  0.19999999764E+02 0.  0.
         12    1    1    2    0    0 -0.25920504922E+02 -0.34038976307E+02 -0.72868919954E+01  0.43400729007E+02  0.00000000000E+00 0. -1.
         11    1    3    3    0    0  0.13382381945E+02  0.22426077625E+02  0.24157708876E+01  0.26226952804E+02  0.51100000000E-03 0. -1.
        -11    1    3    3    0    0  0.14740878486E+02  0.84565737978E+01  0.29139868575E+01  0.17242344928E+02  0.51100000000E-03 0.  1.
        -12    1    3    3    0    0 -0.22027555093E+01  0.31563248842E+01  0.19571342502E+01  0.43179732609E+01  0.00000000000E+00 0.  1.
</event>
<event>
 7    1  0.1418970E-010  0.4778726E+02  0.7816164E-02  0.1312668E+00
        -11   -1    0    0    0    0  0.00000000000E+00  0.00000000000E+00  0.45593999997E+02  0.45594000000E+02  0.51100000000E-03 0.  1.
         11   -1    0    0    0    0 -0.00000000000E+00 -0.00000000000E+00 -0.45593999997E+02  0.45594000000E+02  0.51100000000E-03 0. -1.
    9900012    2    1    2    0    0 -0.47470133162E+01  0.11584342730E+02  0.41555902688E+02  0.47787260604E+02  0.19999952399E+02 0.  0.
         12    1    1    2    0    0  0.47470133162E+01 -0.11584342730E+02 -0.41555902688E+02  0.43400739396E+02  0.00000000000E+00 0. -1.
         11    1    3    3    0    0 -0.65164382466E+00  0.23835629192E+00 -0.20118650319E+01  0.21281575514E+01  0.51100000000E-03 0. -1.
        -11    1    3    3    0    0 -0.34696227696E+01  0.18564745491E+01  0.16717356251E+02  0.17174247588E+02  0.51100000000E-03 0.  1.
         12    1    3    3    0    0 -0.62574672201E+00  0.94895118890E+01  0.26850411468E+02  0.28484855465E+02  0.00000000000E+00 0. -1.
</event>
<event>
 7    1  0.1418970E-010  0.4778727E+02  0.7816164E-02  0.1312668E+00
        -11   -1    0    0    0    0  0.00000000000E+00  0.00000000000E+00  0.45593999997E+02  0.45594000000E+02  0.51100000000E-03 0.  1.
         11   -1    0    0    0    0 -0.00000000000E+00 -0.00000000000E+00 -0.45593999997E+02  0.45594000000E+02  0.51100000000E-03 0. -1.
    9900012    2    1    2    0    0 -0.26508270168E+02 -0.27162048645E+02  0.21051324107E+02  0.47787268203E+02  0.19999987042E+02 0.  0.
         12    1    1    2    0    0  0.26508270168E+02  0.27162048645E+02 -0.21051324107E+02  0.43400731797E+02  0.00000000000E+00 0. -1.
         11    1    3    3    0    0 -0.23171431581E+00 -0.51461901048E+01  0.44183493578E+01  0.67866615819E+01  0.51100000000E-03 0. -1.
        -11    1    3    3    0    0 -0.23521831789E+02 -0.23739776438E+02  0.12358822725E+02  0.35631363368E+02  0.51100000000E-03 0.  1.
        -12    1    3    3    0    0 -0.27547240640E+01  0.17239178979E+01  0.42741520239E+01  0.53692432530E+01  0.00000000000E+00 0.  1.
</event>
<event>
 7    1  0.1418970E-010  0.4778727E+02  0.7816164E-02  0.1312668E+00
        -11   -1    0    0    0    0  0.00000000000E+00  0.00000000000E+00  0.45593999997E+02  0.45594000000E+02  0.51100000000E-03 0.  1.
         11   -1    0    0    0    0 -0.00000000000E+00 -0.00000000000E+00 -0.45593999997E+02  0.45594000000E+02  0.51100000000E-03 0. -1.
    9900012    2    1    2    0    0 -0.16250987875E+02 -0.23453442694E+02  0.32702667591E+02  0.47787273639E+02  0.20000011829E+02 0.  0.
         12    1    1    2    0    0  0.16250987875E+02  0.23453442694E+02 -0.32702667591E+02  0.43400726361E+02  0.00000000000E+00 0. -1.
         11    1    3    3    0    0  0.61983270292E+00 -0.23240447508E+01 -0.33423864892E+00  0.24283929499E+01  0.51100000000E-03 0. -1.
        -11    1    3    3    0    0  0.12896775120E+01 -0.29725690685E+01 -0.32654469372E+00  0.32566956643E+01  0.51100000000E-03 0.  1.
        -12    1    3    3    0    0 -0.18160498090E+02 -0.18156828875E+02  0.33363450933E+02  0.42102185025E+02  0.00000000000E+00 0.  1.
</event>
<event>
 7    1  0.1418970E-010  0.4778727E+02  0.7816164E-02  0.1312668E+00
        -11   -1    0    0    0    0  0.00000000000E+00  0.00000000000E+00  0.45593999997E+02  0.45594000000E+02  0.51100000000E-03 0.  1.
         11   -1    0    0    0    0 -0.00000000000E+00 -0.00000000000E+00 -0.45593999997E+02  0.45594000000E+02  0.51100000000E-03 0. -1.
    9900012    2    1    2    0    0 -0.22020394621E+02 -0.11730280633E+02  0.35512331284E+02  0.47787274935E+02  0.20000017737E+02 0.  0.
         12    1    1    2    0    0  0.22020394621E+02  0.11730280633E+02 -0.35512331284E+02  0.43400725065E+02  0.00000000000E+00 0. -1.
         11    1    3    3    0    0  0.10556380039E+01 -0.28577267919E+01  0.39806927685E+01  0.50126728590E+01  0.51100000000E-03 0. -1.
        -11    1    3    3    0    0 -0.16979614153E+02 -0.19156012807E+01  0.28141146097E+02  0.32922650698E+02  0.51100000000E-03 0.  1.
        -12    1    3    3    0    0 -0.60964184718E+01 -0.69569525609E+01  0.33904924179E+01  0.98519513780E+01  0.00000000000E+00 0.  1.
</event>
<event>
 7    1  0.1418970E-010  0.4778728E+02  0.7816164E-02  0.1312668E+00
        -11   -1    0    0    0    0  0.00000000000E+00  0.00000000000E+00  0.45593999997E+02  0.45594000000E+02  0.51100000000E-03 0. -1.
         11   -1    0    0    0    0 -0.00000000000E+00 -0.00000000000E+00 -0.45593999997E+02  0.45594000000E+02  0.51100000000E-03 0.  1.
    9900012    2    1    2    0    0  0.42666506536E+02 -0.77165208318E+01 -0.19097809723E+01  0.47787277229E+02  0.20000028197E+02 0.  0.
         12    1    1    2    0    0 -0.42666506536E+02  0.77165208318E+01  0.19097809723E+01  0.43400722771E+02  0.00000000000E+00 0. -1.
         11    1    3    3    0    0  0.16546576322E+02  0.29347929500E+00 -0.38301399732E+01  0.16986620928E+02  0.51100000000E-03 0. -1.
        -11    1    3    3    0    0  0.26828380863E+02 -0.80502836960E+01  0.42812263064E+01  0.28335454580E+02  0.51100000000E-03 0.  1.
         12    1    3    3    0    0 -0.70845064959E+00  0.40283569172E-01 -0.23608673055E+01  0.24652017205E+01  0.00000000000E+00 0. -1.
</event>
<event>
 7    1  0.1418970E-010  0.4778727E+02  0.7816164E-02  0.1312668E+00
        -11   -1    0    0    0    0  0.00000000000E+00  0.00000000000E+00  0.45593999997E+02  0.45594000000E+02  0.51100000000E-03 0.  1.
         11   -1    0    0    0    0 -0.00000000000E+00 -0.00000000000E+00 -0.45593999997E+02  0.45594000000E+02  0.51100000000E-03 0. -1.
    9900012    2    1    2    0    0 -0.30691012406E+02 -0.15028272964E+02  0.26755117692E+02  0.47787267823E+02  0.19999985310E+02 0.  0.
         12    1    1    2    0    0  0.30691012406E+02  0.15028272964E+02 -0.26755117692E+02  0.43400732177E+02  0.00000000000E+00 0. -1.
         11    1    3    3    0    0 -0.60044197170E+01 -0.81893128393E+01  0.16249563273E+02  0.19161581557E+02  0.51100000000E-03 0. -1.
        -11    1    3    3    0    0 -0.18398600665E+01 -0.23281828657E+01 -0.24244703069E+00  0.29772976580E+01  0.51100000000E-03 0.  1.
        -12    1    3    3    0    0 -0.22846732623E+02 -0.45107772588E+01  0.10748001450E+02  0.25648388608E+02  0.00000000000E+00 0.  1.
</event>
<event>
 7    1  0.1418970E-010  0.4778728E+02  0.7816164E-02  0.1312668E+00
        -11   -1    0    0    0    0  0.00000000000E+00  0.00000000000E+00  0.45593999997E+02  0.45594000000E+02  0.51100000000E-03 0. -1.
         11   -1    0    0    0    0 -0.00000000000E+00 -0.00000000000E+00 -0.45593999997E+02  0.45594000000E+02  0.51100000000E-03 0.  1.
    9900012    2    1    2    0    0 -0.48646022404E+01  0.43100207858E+02  0.15265547142E+01  0.47787278328E+02  0.20000033209E+02 0.  0.
         12    1    1    2    0    0  0.48646022404E+01 -0.43100207858E+02 -0.15265547142E+01  0.43400721672E+02  0.00000000000E+00 0. -1.
         11    1    3    3    0    0  0.24360780345E+01  0.22452215947E+02 -0.36129639541E+01  0.22871160572E+02  0.51100000000E-03 0. -1.
        -11    1    3    3    0    0  0.40589648100E+00  0.76350910506E+01  0.60720639389E+01  0.97636739009E+01  0.51100000000E-03 0.  1.
        -12    1    3    3    0    0 -0.77065767559E+01  0.13012900861E+02 -0.93254527054E+00  0.15152443855E+02  0.00000000000E+00 0.  1.
</event>
<event>
 7    1  0.1612339E-010  0.4778727E+02  0.7816164E-02  0.1312668E+00
        -11   -1    0    0    0    0  0.00000000000E+00  0.00000000000E+00  0.45593999997E+02  0.45594000000E+02  0.51100000000E-03 0. -1.
         11   -1    0    0    0    0 -0.00000000000E+00 -0.00000000000E+00 -0.45593999997E+02  0.45594000000E+02  0.51100000000E-03 0.  1.
    9900012    2    1    2    0    0 -0.42400171744E+02 -0.76012408042E+01  0.52980904816E+01  0.47787272029E+02  0.20000004489E+02 0.  0.
         12    1    1    2    0    0  0.42400171744E+02  0.76012408042E+01 -0.52980904816E+01  0.43400727971E+02  0.00000000000E+00 0. -1.
         11    1    3    3    0    0 -0.20225659711E+01 -0.16304340890E+01 -0.35994037321E+01  0.44390084381E+01  0.51100000000E-03 0. -1.
        -11    1    3    3    0    0 -0.26089806150E+02 -0.88489535283E+01  0.33464009827E+01  0.27752123582E+02  0.51100000000E-03 0.  1.
        -12    1    3    3    0    0 -0.14287799622E+02  0.28781468131E+01  0.55510932310E+01  0.15596140009E+02  0.00000000000E+00 0.  1.
</event>
<event>
 7    1  0.1418970E-010  0.4778727E+02  0.7816164E-02  0.1312668E+00
        -11   -1    0    0    0    0  0.00000000000E+00  0.00000000000E+00  0.45593999997E+02  0.45594000000E+02  0.51100000000E-03 0.  1.
         11   -1    0    0    0    0 -0.00000000000E+00 -0.00000000000E+00 -0.45593999997E+02  0.45594000000E+02  0.51100000000E-03 0. -1.
    9900012    2    1    2    0    0  0.13857619663E+02 -0.39774844725E+02  0.10466686987E+02  0.47787269221E+02  0.19999991688E+02 0.  0.
         12    1    1    2    0    0 -0.13857619663E+02  0.39774844725E+02 -0.10466686987E+02  0.43400730779E+02  0.00000000000E+00 0. -1.
         11    1    3    3    0    0  0.66844130739E+01 -0.12007005142E+02  0.42655852690E+01  0.14389050301E+02  0.51100000000E-03 0. -1.
        -11    1    3    3    0    0  0.10555312441E+02 -0.24249923897E+02  0.12963154423E+01  0.26479310107E+02  0.51100000000E-03 0.  1.
         12    1    3    3    0    0 -0.33821058512E+01 -0.35179156858E+01  0.49047862752E+01  0.69189088133E+01  0.00000000000E+00 0. -1.
</event>
<event>
 7    1  0.1418970E-010  0.4778727E+02  0.7816164E-02  0.1312668E+00
        -11   -1    0    0    0    0  0.00000000000E+00  0.00000000000E+00  0.45593999997E+02  0.45594000000E+02  0.51100000000E-03 0.  1.
         11   -1    0    0    0    0 -0.00000000000E+00 -0.00000000000E+00 -0.45593999997E+02  0.45594000000E+02  0.51100000000E-03 0. -1.
    9900012    2    1    2    0    0 -0.25530602417E+02  0.44768318614E+01  0.34810485034E+02  0.47787267846E+02  0.19999985415E+02 0.  0.
         12    1    1    2    0    0  0.25530602417E+02 -0.44768318614E+01 -0.34810485034E+02  0.43400732154E+02  0.00000000000E+00 0. -1.
         11    1    3    3    0    0 -0.16414579077E+02  0.93914448257E+01  0.12277572840E+02  0.22547204644E+02  0.51100000000E-03 0. -1.
        -11    1    3    3    0    0  0.21047514823E+00 -0.81940163971E+00  0.40383319964E+01  0.41259961718E+01  0.51100000000E-03 0.  1.
         12    1    3    3    0    0 -0.93264984882E+01 -0.40952113245E+01  0.18494580197E+02  0.21114067029E+02  0.00000000000E+00 0. -1.
</event>
<event>
 7    1  0.1418970E-010  0.4778727E+02  0.7816164E-02  0.1312668E+00
        -11   -1    0    0    0    0  0.00000000000E+00  0.00000000000E+00  0.45593999997E+02  0.45594000000E+02  0.51100000000E-03 0.  1.
         11   -1    0    0    0    0 -0.00000000000E+00 -0.00000000000E+00 -0.45593999997E+02  0.45594000000E+02  0.51100000000E-03 0. -1.
    9900012    2    1    2    0    0  0.31753551248E+02  0.57862156363E+01  0.29014736239E+02  0.47787271581E+02  0.20000002448E+02 0.  0.
         12    1    1    2    0    0 -0.31753551248E+02 -0.57862156363E+01 -0.29014736239E+02  0.43400728419E+02  0.00000000000E+00 0. -1.
         11    1    3    3    0    0  0.13820304560E+02 -0.28919120454E+01  0.90052799409E+01  0.16746911371E+02  0.51100000000E-03 0. -1.
        -11    1    3    3    0    0  0.37964536747E+01  0.14471779385E+01  0.13114086135E+02  0.13729043663E+02  0.51100000000E-03 0.  1.
        -12    1    3    3    0    0  0.14136793013E+02  0.72309497433E+01  0.68953701632E+01  0.17311316547E+02  0.00000000000E+00 0.  1.
</event>
<event>
 7    1  0.1418970E-010  0.4778726E+02  0.7816164E-02  0.1312668E+00
        -11   -1    0    0    0    0  0.00000000000E+00  0.00000000000E+00  0.45593999997E+02  0.45594000000E+02  0.51100000000E-03 0.  1.
         11   -1    0    0    0    0 -0.00000000000E+00 -0.00000000000E+00 -0.45593999997E+02  0.45594000000E+02  0.51100000000E-03 0. -1.
    9900012    2    1    2    0    0  0.37891679913E+02  0.35521583107E+01  0.20862092405E+02  0.47787261126E+02  0.19999954780E+02 0.  0.
         12    1    1    2    0    0 -0.37891679913E+02 -0.35521583107E+01 -0.20862092405E+02  0.43400738874E+02  0.00000000000E+00 0. -1.
         11    1    3    3    0    0  0.12955848967E+02 -0.42160072720E+01  0.14534602640E+01  0.13701871653E+02  0.51100000000E-03 0.  1.
        -11    1    3    3    0    0  0.41413495991E+01  0.32246911043E+00  0.84789635296E+01  0.94417999146E+01  0.51100000000E-03 0. -1.
        -12    1    3    3    0    0  0.20794481346E+02  0.74456964723E+01  0.10929668611E+02  0.24643589559E+02  0.00000000000E+00 0.  1.
</event>
<event>
 7    1  0.1418970E-010  0.4778726E+02  0.7816164E-02  0.1312668E+00
        -11   -1    0    0    0    0  0.00000000000E+00  0.00000000000E+00  0.45593999997E+02  0.45594000000E+02  0.51100000000E-03 0.  1.
         11   -1    0    0    0    0 -0.00000000000E+00 -0.00000000000E+00 -0.45593999997E+02  0.45594000000E+02  0.51100000000E-03 0. -1.
    9900012    2    1    2    0    0 -0.31699760468E+02  0.24174771363E+02  0.17156033910E+02  0.47787264019E+02  0.19999967967E+02 0.  0.
         12    1    1    2    0    0  0.31699760468E+02 -0.24174771363E+02 -0.17156033910E+02  0.43400735981E+02  0.00000000000E+00 0. -1.
         11    1    3    3    0    0 -0.24445712712E+02  0.15607618222E+02  0.10240620769E+02  0.30758103495E+02  0.51100000000E-03 0. -1.
        -11    1    3    3    0    0 -0.98061474306E+01  0.67663444674E+01  0.35367099625E+01  0.12427882463E+02  0.51100000000E-03 0.  1.
         12    1    3    3    0    0  0.25520996751E+01  0.18008086737E+01  0.33787031786E+01  0.46012780615E+01  0.00000000000E+00 0. -1.
</event>
<event>
 7    1  0.1418970E-010  0.4778728E+02  0.7816164E-02  0.1312668E+00
        -11   -1    0    0    0    0  0.00000000000E+00  0.00000000000E+00  0.45593999997E+02  0.45594000000E+02  0.51100000000E-03 0.  1.
         11   -1    0    0    0    0 -0.00000000000E+00 -0.00000000000E+00 -0.45593999997E+02  0.45594000000E+02  0.51100000000E-03 0. -1.
    9900012    2    1    2    0    0 -0.37506468755E+02  0.21439898989E+02  0.41495113066E+01  0.47787275223E+02  0.20000019051E+02 0.  0.
         12    1    1    2    0    0  0.37506468755E+02 -0.21439898989E+02 -0.41495113066E+01  0.43400724777E+02  0.00000000000E+00 0. -1.
         11    1    3    3    0    0 -0.82873402242E+01  0.23969970993E+01  0.39708180969E-01  0.86271188752E+01  0.51100000000E-03 0. -1.
        -11    1    3    3    0    0 -0.12789974865E+02  0.11293851354E+02 -0.63417210830E+01  0.18203075620E+02  0.51100000000E-03 0.  1.
         12    1    3    3    0    0 -0.16429153665E+02  0.77490505354E+01  0.10451524209E+02  0.20957080728E+02  0.00000000000E+00 0. -1.
</event>
<event>
 7    1  0.1418970E-010  0.4778727E+02  0.7816164E-02  0.1312668E+00
        -11   -1    0    0    0    0  0.00000000000E+00  0.00000000000E+00  0.45593999997E+02  0.45594000000E+02  0.51100000000E-03 0.  1.
         11   -1    0    0    0    0 -0.00000000000E+00 -0.00000000000E+00 -0.45593999997E+02  0.45594000000E+02  0.51100000000E-03 0. -1.
    9900012    2    1    2    0    0  0.39325564569E+02  0.24464518687E+01  0.18197199373E+02  0.47787271660E+02  0.20000002806E+02 0.  0.
         12    1    1    2    0    0 -0.39325564569E+02 -0.24464518687E+01 -0.18197199373E+02  0.43400728340E+02  0.00000000000E+00 0. -1.
         11    1    3    3    0    0  0.22439576876E+02  0.99629755391E+01  0.59162211976E+01  0.25254646414E+02  0.51100000000E-03 0. -1.
        -11    1    3    3    0    0  0.10465099125E+02 -0.25529853976E+01  0.67737897753E+01  0.12724789284E+02  0.51100000000E-03 0.  1.
         12    1    3    3    0    0  0.64208885678E+01 -0.49635382728E+01  0.55071883997E+01  0.98078359619E+01  0.00000000000E+00 0. -1.
</event>
<event>
 7    1  0.1418970E-010  0.4778727E+02  0.7816164E-02  0.1312668E+00
        -11   -1    0    0    0    0  0.00000000000E+00  0.00000000000E+00  0.45593999997E+02  0.45594000000E+02  0.51100000000E-03 0.  1.
         11   -1    0    0    0    0 -0.00000000000E+00 -0.00000000000E+00 -0.45593999997E+02  0.45594000000E+02  0.51100000000E-03 0. -1.
    9900012    2    1    2    0    0 -0.10793256702E+02 -0.20846181723E+02  0.36504323141E+02  0.47787270851E+02  0.19999999118E+02 0.  0.
         12    1    1    2    0    0  0.10793256702E+02  0.20846181723E+02 -0.36504323141E+02  0.43400729149E+02  0.00000000000E+00 0. -1.
         11    1    3    3    0    0  0.15626712608E+01 -0.28163482243E+01  0.89196157189E+00  0.33420584221E+01  0.51100000000E-03 0. -1.
        -11    1    3    3    0    0 -0.65013143359E+01 -0.13332190214E+02  0.33516196588E+02  0.36651736902E+02  0.51100000000E-03 0.  1.
        -12    1    3    3    0    0 -0.58546136267E+01 -0.46976432846E+01  0.20961649818E+01  0.77934755263E+01  0.00000000000E+00 0.  1.
</event>
<event>
 7    1  0.1418970E-010  0.4778727E+02  0.7816164E-02  0.1312668E+00
        -11   -1    0    0    0    0  0.00000000000E+00  0.00000000000E+00  0.45593999997E+02  0.45594000000E+02  0.51100000000E-03 0.  1.
         11   -1    0    0    0    0 -0.00000000000E+00 -0.00000000000E+00 -0.45593999997E+02  0.45594000000E+02  0.51100000000E-03 0. -1.
    9900012    2    1    2    0    0 -0.14970470860E+02 -0.40089680258E+02 -0.72336579667E+01  0.47787271105E+02  0.20000000278E+02 0.  0.
         12    1    1    2    0    0  0.14970470860E+02  0.40089680258E+02  0.72336579667E+01  0.43400728895E+02  0.00000000000E+00 0. -1.
         11    1    3    3    0    0 -0.37725328782E+01 -0.58910166941E+01 -0.34770931341E+01  0.78119305509E+01  0.51100000000E-03 0. -1.
        -11    1    3    3    0    0 -0.13218680189E+02 -0.21558481673E+02 -0.79446215476E+01  0.26506954744E+02  0.51100000000E-03 0.  1.
         12    1    3    3    0    0  0.20207422065E+01 -0.12640181891E+02  0.41880567149E+01  0.13468385811E+02  0.00000000000E+00 0. -1.
</event>
<event>
 7    1  0.1418970E-010  0.4778727E+02  0.7816164E-02  0.1312668E+00
        -11   -1    0    0    0    0  0.00000000000E+00  0.00000000000E+00  0.45593999997E+02  0.45594000000E+02  0.51100000000E-03 0.  1.
         11   -1    0    0    0    0 -0.00000000000E+00 -0.00000000000E+00 -0.45593999997E+02  0.45594000000E+02  0.51100000000E-03 0. -1.
    9900012    2    1    2    0    0 -0.27036023776E+02 -0.15803695153E+02  0.30048622683E+02  0.47787273194E+02  0.20000009801E+02 0.  0.
         12    1    1    2    0    0  0.27036023776E+02  0.15803695153E+02 -0.30048622683E+02  0.43400726806E+02  0.00000000000E+00 0. -1.
         11    1    3    3    0    0 -0.11981870036E+00 -0.77463404836E+01  0.42689703466E+01  0.88455783016E+01  0.51100000000E-03 0. -1.
        -11    1    3    3    0    0 -0.16297891510E+02 -0.32517723997E+01  0.10253397614E+02  0.19527607491E+02  0.51100000000E-03 0.  1.
        -12    1    3    3    0    0 -0.10618313565E+02 -0.48055822695E+01  0.15526254723E+02  0.19414087402E+02  0.00000000000E+00 0.  1.
</event>
<event>
 7    1  0.1418970E-010  0.4778727E+02  0.7816164E-02  0.1312668E+00
        -11   -1    0    0    0    0  0.00000000000E+00  0.00000000000E+00  0.45593999997E+02  0.45594000000E+02  0.51100000000E-03 0. -1.
         11   -1    0    0    0    0 -0.00000000000E+00 -0.00000000000E+00 -0.45593999997E+02  0.45594000000E+02  0.51100000000E-03 0.  1.
    9900012    2    1    2    0    0  0.31588876444E+02  0.18199399324E+02 -0.23548845498E+02  0.47787269879E+02  0.19999994686E+02 0.  0.
         12    1    1    2    0    0 -0.31588876444E+02 -0.18199399324E+02  0.23548845498E+02  0.43400730121E+02  0.00000000000E+00 0. -1.
         11    1    3    3    0    0  0.15504214582E+02  0.67726164987E+01 -0.90329425942E+01  0.19179235027E+02  0.51100000000E-03 0. -1.
        -11    1    3    3    0    0  0.20474095563E-01  0.49129654371E+00 -0.81413572706E+01  0.81561933493E+01  0.51100000000E-03 0.  1.
        -12    1    3    3    0    0  0.16064187766E+02  0.10935486282E+02 -0.63745456328E+01  0.20451841502E+02  0.00000000000E+00 0.  1.
</event>
<event>
 7    1  0.1418970E-010  0.4778727E+02  0.7816164E-02  0.1312668E+00
        -11   -1    0    0    0    0  0.00000000000E+00  0.00000000000E+00  0.45593999997E+02  0.45594000000E+02  0.51100000000E-03 0.  1.
         11   -1    0    0    0    0 -0.00000000000E+00 -0.00000000000E+00 -0.45593999997E+02  0.45594000000E+02  0.51100000000E-03 0. -1.
    9900012    2    1    2    0    0 -0.11788151713E+02 -0.32680812500E+02  0.26012060270E+02  0.47787270675E+02  0.19999998316E+02 0.  0.
         12    1    1    2    0    0  0.11788151713E+02  0.32680812500E+02 -0.26012060270E+02  0.43400729325E+02  0.00000000000E+00 0. -1.
         11    1    3    3    0    0 -0.20144631548E+01 -0.65976342181E+01 -0.16093948491E+01  0.70835719181E+01  0.51100000000E-03 0. -1.
        -11    1    3    3    0    0 -0.31993518813E+01 -0.19629883967E+02  0.14253844477E+02  0.24469169983E+02  0.51100000000E-03 0.  1.
        -12    1    3    3    0    0 -0.65743366766E+01 -0.64532943147E+01  0.13367610641E+02  0.16234528774E+02  0.00000000000E+00 0.  1.
</event>
<event>
 7    1  0.1418970E-010  0.4778727E+02  0.7816164E-02  0.1312668E+00
        -11   -1    0    0    0    0  0.00000000000E+00  0.00000000000E+00  0.45593999997E+02  0.45594000000E+02  0.51100000000E-03 0. -1.
         11   -1    0    0    0    0 -0.00000000000E+00 -0.00000000000E+00 -0.45593999997E+02  0.45594000000E+02  0.51100000000E-03 0.  1.
    9900012    2    1    2    0    0 -0.36589938673E+01 -0.37517107327E+02 -0.21510504513E+02  0.47787269790E+02  0.19999994282E+02 0.  0.
         12    1    1    2    0    0  0.36589938673E+01  0.37517107327E+02  0.21510504513E+02  0.43400730210E+02  0.00000000000E+00 0. -1.
         11    1    3    3    0    0 -0.14060700646E+01 -0.16870434632E+01  0.20052218627E+01  0.29738970481E+01  0.51100000000E-03 0. -1.
        -11    1    3    3    0    0  0.51812689200E+01 -0.16199396391E+02 -0.12500614072E+02  0.21107613401E+02  0.51100000000E-03 0.  1.
         12    1    3    3    0    0 -0.74341927227E+01 -0.19630667473E+02 -0.11015112304E+02  0.23705759341E+02  0.00000000000E+00 0. -1.
</event>
<event>
 7    1  0.1418970E-010  0.4778727E+02  0.7816164E-02  0.1312668E+00
        -11   -1    0    0    0    0  0.00000000000E+00  0.00000000000E+00  0.45593999997E+02  0.45594000000E+02  0.51100000000E-03 0.  1.
         11   -1    0    0    0    0 -0.00000000000E+00 -0.00000000000E+00 -0.45593999997E+02  0.45594000000E+02  0.51100000000E-03 0. -1.
    9900012    2    1    2    0    0 -0.23302715348E+02 -0.29487607965E+02  0.21704556542E+02  0.47787270273E+02  0.19999996485E+02 0.  0.
         12    1    1    2    0    0  0.23302715348E+02  0.29487607965E+02 -0.21704556542E+02  0.43400729727E+02  0.00000000000E+00 0. -1.
         11    1    3    3    0    0 -0.31758738060E+01 -0.19137049111E+01  0.90372023923E+01  0.97682889115E+01  0.51100000000E-03 0.  1.
        -11    1    3    3    0    0 -0.14878417756E+02 -0.25414315044E+02  0.13290862941E+02  0.32309468613E+02  0.51100000000E-03 0. -1.
         12    1    3    3    0    0 -0.52484237869E+01 -0.21595880096E+01 -0.62350879087E+00  0.57095127489E+01  0.00000000000E+00 0. -1.
</event>
<event>
 7    1  0.1418970E-010  0.4778727E+02  0.7816164E-02  0.1312668E+00
        -11   -1    0    0    0    0  0.00000000000E+00  0.00000000000E+00  0.45593999997E+02  0.45594000000E+02  0.51100000000E-03 0.  1.
         11   -1    0    0    0    0 -0.00000000000E+00 -0.00000000000E+00 -0.45593999997E+02  0.45594000000E+02  0.51100000000E-03 0. -1.
    9900012    2    1    2    0    0 -0.89704721742E+01  0.97994125056E+01  0.41317373558E+02  0.47787271732E+02  0.20000003133E+02 0.  0.
         12    1    1    2    0    0  0.89704721742E+01 -0.97994125056E+01 -0.41317373558E+02  0.43400728268E+02  0.00000000000E+00 0. -1.
         11    1    3    3    0    0 -0.31024746679E+01  0.53489954933E+01  0.56144558701E+00  0.62090517199E+01  0.51100000000E-03 0. -1.
        -11    1    3    3    0    0  0.44552456800E+00  0.20445594840E+00  0.11835099030E+01  0.12810114470E+01  0.51100000000E-03 0.  1.
        -12    1    3    3    0    0 -0.63135220743E+01  0.42459610638E+01  0.39572418068E+02  0.40297208565E+02  0.00000000000E+00 0.  1.
</event>
<event>
 7    1  0.1418970E-010  0.4778727E+02  0.7816164E-02  0.1312668E+00
        -11   -1    0    0    0    0  0.00000000000E+00  0.00000000000E+00  0.45593999997E+02  0.45594000000E+02  0.51100000000E-03 0.  1.
         11   -1    0    0    0    0 -0.00000000000E+00 -0.00000000000E+00 -0.45593999997E+02  0.45594000000E+02  0.51100000000E-03 0. -1.
    9900012    2    1    2    0    0  0.17858783722E+02 -0.16713910843E+02  0.35851531322E+02  0.47787271091E+02  0.20000000214E+02 0.  0.
         12    1    1    2    0    0 -0.17858783722E+02  0.16713910843E+02 -0.35851531322E+02  0.43400728909E+02  0.00000000000E+00 0. -1.
         11    1    3    3    0    0  0.27231870973E+01  0.20229096349E+01  0.41110452124E+01  0.53299722661E+01  0.51100000000E-03 0.  1.
        -11    1    3    3    0    0  0.76981965988E+01 -0.14432616971E+02  0.10227411306E+02  0.19291516420E+02  0.51100000000E-03 0. -1.
         12    1    3    3    0    0  0.74374000258E+01 -0.43042035071E+01  0.21513074803E+02  0.23165782405E+02  0.00000000000E+00 0. -1.
</event>
<event>
 7    1  0.1418970E-010  0.4778728E+02  0.7816164E-02  0.1312668E+00
        -11   -1    0    0    0    0  0.00000000000E+00  0.00000000000E+00  0.45593999997E+02  0.45594000000E+02  0.51100000000E-03 0.  1.
         11   -1    0    0    0    0 -0.00000000000E+00 -0.00000000000E+00 -0.45593999997E+02  0.45594000000E+02  0.51100000000E-03 0. -1.
    9900012    2    1    2    0    0  0.31361831450E+02  0.25643909488E+02  0.15570739291E+02  0.47787280100E+02  0.20000041290E+02 0.  0.
         12    1    1    2    0    0 -0.31361831450E+02 -0.25643909488E+02 -0.15570739291E+02  0.43400719900E+02  0.00000000000E+00 0. -1.
         11    1    3    3    0    0  0.17717136025E+02  0.54937419067E+01  0.50826259619E+01  0.19233075573E+02  0.51100000000E-03 0. -1.
        -11    1    3    3    0    0 -0.49819664030E+00  0.26202063830E+01 -0.14778333915E+01  0.30492086147E+01  0.51100000000E-03 0.  1.
        -12    1    3    3    0    0  0.14142892065E+02  0.17529961199E+02  0.11965946720E+02  0.25504995913E+02  0.00000000000E+00 0.  1.
</event>
<event>
 7    1  0.1418970E-010  0.4778727E+02  0.7816164E-02  0.1312668E+00
        -11   -1    0    0    0    0  0.00000000000E+00  0.00000000000E+00  0.45593999997E+02  0.45594000000E+02  0.51100000000E-03 0.  1.
         11   -1    0    0    0    0 -0.00000000000E+00 -0.00000000000E+00 -0.45593999997E+02  0.45594000000E+02  0.51100000000E-03 0. -1.
    9900012    2    1    2    0    0 -0.16673983132E+02  0.38718134702E+02  0.10320250210E+02  0.47787271519E+02  0.20000002165E+02 0.  0.
         12    1    1    2    0    0  0.16673983132E+02 -0.38718134702E+02 -0.10320250210E+02  0.43400728481E+02  0.00000000000E+00 0. -1.
         11    1    3    3    0    0  0.26310781526E+01  0.34515068619E+01  0.17118352540E+01  0.46653887363E+01  0.51100000000E-03 0. -1.
        -11    1    3    3    0    0 -0.13153791593E+02  0.19484035832E+02  0.11105854208E+02  0.25999805452E+02  0.51100000000E-03 0.  1.
         12    1    3    3    0    0 -0.61512696913E+01  0.15782592008E+02 -0.24974392525E+01  0.17122077331E+02  0.00000000000E+00 0. -1.
</event>
<event>
 7    1  0.1418970E-010  0.4778727E+02  0.7816164E-02  0.1312668E+00
        -11   -1    0    0    0    0  0.00000000000E+00  0.00000000000E+00  0.45593999997E+02  0.45594000000E+02  0.51100000000E-03 0.  1.
         11   -1    0    0    0    0 -0.00000000000E+00 -0.00000000000E+00 -0.45593999997E+02  0.45594000000E+02  0.51100000000E-03 0. -1.
    9900012    2    1    2    0    0  0.56812025890E+01  0.43022463047E+02  0.64392849581E+00  0.47787273815E+02  0.20000012631E+02 0.  0.
         12    1    1    2    0    0 -0.56812025890E+01 -0.43022463047E+02 -0.64392849581E+00  0.43400726185E+02  0.00000000000E+00 0. -1.
         11    1    3    3    0    0  0.54732873248E+00  0.44796651303E+01  0.37201031730E+00  0.45282844829E+01  0.51100000000E-03 0. -1.
        -11    1    3    3    0    0  0.74445973158E+01  0.33727841915E+02  0.64027994334E+01  0.35128125345E+02  0.51100000000E-03 0.  1.
         12    1    3    3    0    0 -0.23107234593E+01  0.48149560021E+01 -0.61308812549E+01  0.81308639866E+01  0.00000000000E+00 0. -1.
</event>
<event>
 7    1  0.1418970E-010  0.4778726E+02  0.7816164E-02  0.1312668E+00
        -11   -1    0    0    0    0  0.00000000000E+00  0.00000000000E+00  0.45593999997E+02  0.45594000000E+02  0.51100000000E-03 0.  1.
         11   -1    0    0    0    0 -0.00000000000E+00 -0.00000000000E+00 -0.45593999997E+02  0.45594000000E+02  0.51100000000E-03 0. -1.
    9900012    2    1    2    0    0 -0.71728920974E+01  0.42768515315E+02  0.17400167404E+01  0.47787263352E+02  0.19999964929E+02 0.  0.
         12    1    1    2    0    0  0.71728920974E+01 -0.42768515315E+02 -0.17400167404E+01  0.43400736648E+02  0.00000000000E+00 0. -1.
         11    1    3    3    0    0 -0.36819339107E+01  0.16163157872E+01  0.21872062591E+01  0.45774431212E+01  0.51100000000E-03 0. -1.
        -11    1    3    3    0    0 -0.76256677763E+01  0.33257726457E+02  0.12242246553E+01  0.34142728426E+02  0.51100000000E-03 0.  1.
         12    1    3    3    0    0  0.41347095897E+01  0.78944730710E+01 -0.16714141740E+01  0.90670918050E+01  0.00000000000E+00 0. -1.
</event>
<event>
 7    1  0.1418970E-010  0.4778727E+02  0.7816164E-02  0.1312668E+00
        -11   -1    0    0    0    0  0.00000000000E+00  0.00000000000E+00  0.45593999997E+02  0.45594000000E+02  0.51100000000E-03 0.  1.
         11   -1    0    0    0    0 -0.00000000000E+00 -0.00000000000E+00 -0.45593999997E+02  0.45594000000E+02  0.51100000000E-03 0. -1.
    9900012    2    1    2    0    0  0.73743734620E+01 -0.40091831289E+02  0.14895866919E+02  0.47787272226E+02  0.20000005386E+02 0.  0.
         12    1    1    2    0    0 -0.73743734620E+01  0.40091831289E+02 -0.14895866919E+02  0.43400727774E+02  0.00000000000E+00 0. -1.
         11    1    3    3    0    0  0.34015362185E+01 -0.14029173376E+02 -0.18230757432E+00  0.14436806800E+02  0.51100000000E-03 0. -1.
        -11    1    3    3    0    0  0.55245946084E+01 -0.20884240452E+02  0.54038969999E+01  0.22268245281E+02  0.51100000000E-03 0.  1.
         12    1    3    3    0    0 -0.15517573650E+01 -0.51784174609E+01  0.96742774935E+01  0.11082220145E+02  0.00000000000E+00 0. -1.
</event>
<event>
 7    1  0.1418970E-010  0.4778727E+02  0.7816164E-02  0.1312668E+00
        -11   -1    0    0    0    0  0.00000000000E+00  0.00000000000E+00  0.45593999997E+02  0.45594000000E+02  0.51100000000E-03 0.  1.
         11   -1    0    0    0    0 -0.00000000000E+00 -0.00000000000E+00 -0.45593999997E+02  0.45594000000E+02  0.51100000000E-03 0. -1.
    9900012    2    1    2    0    0  0.12456493423E+01  0.31837120493E+02  0.29469806341E+02  0.47787269945E+02  0.19999994986E+02 0.  0.
         12    1    1    2    0    0 -0.12456493423E+01 -0.31837120493E+02 -0.29469806341E+02  0.43400730055E+02  0.00000000000E+00 0. -1.
         11    1    3    3    0    0 -0.64823075178E+00  0.26509011174E+01  0.76763345089E+01  0.81469989318E+01  0.51100000000E-03 0. -1.
        -11    1    3    3    0    0 -0.40260368881E+01  0.34911149200E+01  0.86946497713E+01  0.10197734617E+02  0.51100000000E-03 0.  1.
         12    1    3    3    0    0  0.59199169822E+01  0.25695104456E+02  0.13098822061E+02  0.29442536396E+02  0.00000000000E+00 0. -1.
</event>
<event>
 7    1  0.1418970E-010  0.4778727E+02  0.7816164E-02  0.1312668E+00
        -11   -1    0    0    0    0  0.00000000000E+00  0.00000000000E+00  0.45593999997E+02  0.45594000000E+02  0.51100000000E-03 0.  1.
         11   -1    0    0    0    0 -0.00000000000E+00 -0.00000000000E+00 -0.45593999997E+02  0.45594000000E+02  0.51100000000E-03 0. -1.
    9900012    2    1    2    0    0 -0.18867206133E+02 -0.22144331099E+02  0.32206839479E+02  0.47787269864E+02  0.19999994616E+02 0.  0.
         12    1    1    2    0    0  0.18867206133E+02  0.22144331099E+02 -0.32206839479E+02  0.43400730136E+02  0.00000000000E+00 0. -1.
         11    1    3    3    0    0 -0.67239128049E+01 -0.50448071603E+01  0.44678003490E+01  0.95195757738E+01  0.51100000000E-03 0. -1.
        -11    1    3    3    0    0 -0.87983375233E+01  0.11903972397E+00  0.85283110291E+01  0.12253856654E+02  0.51100000000E-03 0.  1.
        -12    1    3    3    0    0 -0.33449558052E+01 -0.17218563663E+02  0.19210728101E+02  0.26013837436E+02  0.00000000000E+00 0.  1.
</event>
<event>
 7    1  0.1418970E-010  0.4778727E+02  0.7816164E-02  0.1312668E+00
        -11   -1    0    0    0    0  0.00000000000E+00  0.00000000000E+00  0.45593999997E+02  0.45594000000E+02  0.51100000000E-03 0. -1.
         11   -1    0    0    0    0 -0.00000000000E+00 -0.00000000000E+00 -0.45593999997E+02  0.45594000000E+02  0.51100000000E-03 0.  1.
    9900012    2    1    2    0    0 -0.31535778213E+02  0.28513224771E+02 -0.87243512417E+01  0.47787267299E+02  0.19999982923E+02 0.  0.
         12    1    1    2    0    0  0.31535778213E+02 -0.28513224771E+02  0.87243512417E+01  0.43400732701E+02  0.00000000000E+00 0. -1.
         11    1    3    3    0    0 -0.10467803971E+01 -0.12833104425E+01  0.53875718728E+00  0.17415207318E+01  0.51100000000E-03 0. -1.
        -11    1    3    3    0    0 -0.30976652994E+02  0.24139200961E+02 -0.67986295112E+01  0.39855682371E+02  0.51100000000E-03 0.  1.
        -12    1    3    3    0    0  0.48765517753E+00  0.56573342528E+01 -0.24644789178E+01  0.61900641965E+01  0.00000000000E+00 0.  1.
</event>
<event>
 7    1  0.1418970E-010  0.4778727E+02  0.7816164E-02  0.1312668E+00
        -11   -1    0    0    0    0  0.00000000000E+00  0.00000000000E+00  0.45593999997E+02  0.45594000000E+02  0.51100000000E-03 0.  1.
         11   -1    0    0    0    0 -0.00000000000E+00 -0.00000000000E+00 -0.45593999997E+02  0.45594000000E+02  0.51100000000E-03 0. -1.
    9900012    2    1    2    0    0 -0.33470599693E+01 -0.25525940311E+02  0.34940614819E+02  0.47787274164E+02  0.20000014222E+02 0.  0.
         12    1    1    2    0    0  0.33470599693E+01  0.25525940311E+02 -0.34940614819E+02  0.43400725836E+02  0.00000000000E+00 0. -1.
         11    1    3    3    0    0 -0.41945388348E+00 -0.14497193680E+02  0.49909426518E+01  0.15337994489E+02  0.51100000000E-03 0. -1.
        -11    1    3    3    0    0  0.14413724723E+01 -0.31928870657E+01  0.91210412368E+01  0.97706435777E+01  0.51100000000E-03 0.  1.
         12    1    3    3    0    0 -0.43689785582E+01 -0.78358595658E+01  0.20828630930E+02  0.22678636097E+02  0.00000000000E+00 0. -1.
</event>
<event>
 7    1  0.1418970E-010  0.4778727E+02  0.7816164E-02  0.1312668E+00
        -11   -1    0    0    0    0  0.00000000000E+00  0.00000000000E+00  0.45593999997E+02  0.45594000000E+02  0.51100000000E-03 0. -1.
         11   -1    0    0    0    0 -0.00000000000E+00 -0.00000000000E+00 -0.45593999997E+02  0.45594000000E+02  0.51100000000E-03 0.  1.
    9900012    2    1    2    0    0 -0.66990749176E+01  0.14700213481E+02 -0.40282122516E+02  0.47787271026E+02  0.19999999915E+02 0.  0.
         12    1    1    2    0    0  0.66990749176E+01 -0.14700213481E+02  0.40282122516E+02  0.43400728974E+02  0.00000000000E+00 0. -1.
         11    1    3    3    0    0 -0.31198125496E+01 -0.22952640536E+01 -0.62491008962E+01  0.73520561540E+01  0.51100000000E-03 0. -1.
        -11    1    3    3    0    0 -0.28552376952E+01  0.91219009090E+01 -0.30145216322E+02  0.31624286962E+02  0.51100000000E-03 0.  1.
         12    1    3    3    0    0 -0.72402467286E+00  0.78735766254E+01 -0.38878052977E+01  0.88109279100E+01  0.00000000000E+00 0. -1.
</event>
<event>
 7    1  0.1418970E-010  0.4778727E+02  0.7816164E-02  0.1312668E+00
        -11   -1    0    0    0    0  0.00000000000E+00  0.00000000000E+00  0.45593999997E+02  0.45594000000E+02  0.51100000000E-03 0. -1.
         11   -1    0    0    0    0 -0.00000000000E+00 -0.00000000000E+00 -0.45593999997E+02  0.45594000000E+02  0.51100000000E-03 0.  1.
    9900012    2    1    2    0    0  0.23308426346E+02  0.34455442943E+02 -0.12375898042E+02  0.47787272593E+02  0.20000007059E+02 0.  0.
         12    1    1    2    0    0 -0.23308426346E+02 -0.34455442943E+02  0.12375898042E+02  0.43400727407E+02  0.00000000000E+00 0. -1.
         11    1    3    3    0    0 -0.18760578242E+01  0.19094813188E+01  0.58556171742E+00  0.27401814999E+01  0.51100000000E-03 0. -1.
        -11    1    3    3    0    0  0.10421892493E+02  0.75352376505E+01 -0.90874304851E+01  0.15747286835E+02  0.51100000000E-03 0.  1.
         12    1    3    3    0    0  0.14762591677E+02  0.25010723974E+02 -0.38740292741E+01  0.29299804258E+02  0.00000000000E+00 0. -1.
</event>
<event>
 7    1  0.1418970E-010  0.4778727E+02  0.7816164E-02  0.1312668E+00
        -11   -1    0    0    0    0  0.00000000000E+00  0.00000000000E+00  0.45593999997E+02  0.45594000000E+02  0.51100000000E-03 0. -1.
         11   -1    0    0    0    0 -0.00000000000E+00 -0.00000000000E+00 -0.45593999997E+02  0.45594000000E+02  0.51100000000E-03 0.  1.
    9900012    2    1    2    0    0 -0.21538315871E+02  0.34602421017E+02 -0.14912976619E+02  0.47787268872E+02  0.19999990095E+02 0.  0.
         12    1    1    2    0    0  0.21538315871E+02 -0.34602421017E+02  0.14912976619E+02  0.43400731128E+02  0.00000000000E+00 0. -1.
         11    1    3    3    0    0 -0.15162584205E+01  0.57495550973E+00 -0.40170795967E+01  0.43320367246E+01  0.51100000000E-03 0. -1.
        -11    1    3    3    0    0 -0.13957066579E+01 -0.92742856202E+00  0.11774980246E+01  0.20480777992E+01  0.51100000000E-03 0.  1.
        -12    1    3    3    0    0 -0.18626350792E+02  0.34954894069E+02 -0.12073395047E+02  0.41407154348E+02  0.00000000000E+00 0.  1.
</event>
<event>
 7    1  0.1418970E-010  0.4778727E+02  0.7816164E-02  0.1312668E+00
        -11   -1    0    0    0    0  0.00000000000E+00  0.00000000000E+00  0.45593999997E+02  0.45594000000E+02  0.51100000000E-03 0.  1.
         11   -1    0    0    0    0 -0.00000000000E+00 -0.00000000000E+00 -0.45593999997E+02  0.45594000000E+02  0.51100000000E-03 0. -1.
    9900012    2    1    2    0    0  0.28986425298E+02  0.54253414855E+01  0.31842995237E+02  0.47787268123E+02  0.19999986682E+02 0.  0.
         12    1    1    2    0    0 -0.28986425298E+02 -0.54253414855E+01 -0.31842995237E+02  0.43400731877E+02  0.00000000000E+00 0. -1.
         11    1    3    3    0    0  0.18493210020E+02 -0.53332862861E+01  0.21560425235E+02  0.28901465292E+02  0.51100000000E-03 0. -1.
        -11    1    3    3    0    0  0.24230834028E+01  0.41424915549E+01  0.58005598200E+01  0.75284835090E+01  0.51100000000E-03 0.  1.
         12    1    3    3    0    0  0.80701318747E+01  0.66161362167E+01  0.44820101818E+01  0.11357319322E+02  0.00000000000E+00 0. -1.
</event>
<event>
 7    1  0.1418970E-010  0.4778727E+02  0.7816164E-02  0.1312668E+00
        -11   -1    0    0    0    0  0.00000000000E+00  0.00000000000E+00  0.45593999997E+02  0.45594000000E+02  0.51100000000E-03 0. -1.
         11   -1    0    0    0    0 -0.00000000000E+00 -0.00000000000E+00 -0.45593999997E+02  0.45594000000E+02  0.51100000000E-03 0.  1.
    9900012    2    1    2    0    0 -0.20612436268E+02  0.17333286094E+02 -0.34033922214E+02  0.47787271930E+02  0.20000004039E+02 0.  0.
         12    1    1    2    0    0  0.20612436268E+02 -0.17333286094E+02  0.34033922214E+02  0.43400728070E+02  0.00000000000E+00 0. -1.
         11    1    3    3    0    0 -0.94126080447E+00 -0.85029627895E+00  0.41957205391E+00  0.13360451465E+01  0.51100000000E-03 0. -1.
        -11    1    3    3    0    0 -0.85211469679E+01  0.18093915441E+02 -0.22527763996E+02  0.30124738547E+02  0.51100000000E-03 0.  1.
        -12    1    3    3    0    0 -0.11150028495E+02  0.89666931728E-01 -0.11925730273E+02  0.16326488236E+02  0.00000000000E+00 0.  1.
</event>
<event>
 7    1  0.1418970E-010  0.4778727E+02  0.7816164E-02  0.1312668E+00
        -11   -1    0    0    0    0  0.00000000000E+00  0.00000000000E+00  0.45593999997E+02  0.45594000000E+02  0.51100000000E-03 0.  1.
         11   -1    0    0    0    0 -0.00000000000E+00 -0.00000000000E+00 -0.45593999997E+02  0.45594000000E+02  0.51100000000E-03 0. -1.
    9900012    2    1    2    0    0  0.45604437918E+01 -0.21536306225E+02  0.37403382687E+02  0.47787272243E+02  0.20000005465E+02 0.  0.
         12    1    1    2    0    0 -0.45604437918E+01  0.21536306225E+02 -0.37403382687E+02  0.43400727757E+02  0.00000000000E+00 0. -1.
         11    1    3    3    0    0  0.30094843733E+01 -0.30062503623E+01  0.12838463395E+02  0.13524817191E+02  0.51100000000E-03 0. -1.
        -11    1    3    3    0    0  0.73049872007E+01 -0.14602479654E+02  0.20459622417E+02  0.26176160905E+02  0.51100000000E-03 0.  1.
         12    1    3    3    0    0 -0.57540277822E+01 -0.39275762090E+01  0.41052968752E+01  0.80862941469E+01  0.00000000000E+00 0. -1.
</event>
<event>
 7    1  0.1418970E-010  0.4778727E+02  0.7816164E-02  0.1312668E+00
        -11   -1    0    0    0    0  0.00000000000E+00  0.00000000000E+00  0.45593999997E+02  0.45594000000E+02  0.51100000000E-03 0.  1.
         11   -1    0    0    0    0 -0.00000000000E+00 -0.00000000000E+00 -0.45593999997E+02  0.45594000000E+02  0.51100000000E-03 0. -1.
    9900012    2    1    2    0    0 -0.29886347455E+02 -0.24403566892E+01  0.31376329493E+02  0.47787272386E+02  0.20000006117E+02 0.  0.
         12    1    1    2    0    0  0.29886347455E+02  0.24403566892E+01 -0.31376329493E+02  0.43400727614E+02  0.00000000000E+00 0. -1.
         11    1    3    3    0    0 -0.16798188451E+02 -0.77455119626E+01  0.15380807943E+02  0.24057043543E+02  0.51100000000E-03 0. -1.
        -11    1    3    3    0    0 -0.14659373380E+02  0.38123176715E+01  0.15091669458E+02  0.21381989645E+02  0.51100000000E-03 0.  1.
         12    1    3    3    0    0  0.15712143765E+01  0.14928376020E+01  0.90385209274E+00  0.23482391974E+01  0.00000000000E+00 0. -1.
</event>
<event>
 7    1  0.1418970E-010  0.4778727E+02  0.7816164E-02  0.1312668E+00
        -11   -1    0    0    0    0  0.00000000000E+00  0.00000000000E+00  0.45593999997E+02  0.45594000000E+02  0.51100000000E-03 0. -1.
         11   -1    0    0    0    0 -0.00000000000E+00 -0.00000000000E+00 -0.45593999997E+02  0.45594000000E+02  0.51100000000E-03 0.  1.
    9900012    2    1    2    0    0  0.80174171906E+00 -0.32080054359E+02 -0.29220721654E+02  0.47787271303E+02  0.20000001178E+02 0.  0.
         12    1    1    2    0    0 -0.80174171906E+00  0.32080054359E+02  0.29220721654E+02  0.43400728697E+02  0.00000000000E+00 0. -1.
         11    1    3    3    0    0 -0.20204270273E+01 -0.23805986796E+02 -0.11876638830E+02  0.26680736175E+02  0.51100000000E-03 0.  1.
        -11    1    3    3    0    0 -0.27821316650E+01 -0.33580535919E+01 -0.83873560522E+01  0.94532810355E+01  0.51100000000E-03 0. -1.
        -12    1    3    3    0    0  0.56043004114E+01 -0.49160139714E+01 -0.89567267720E+01  0.11653254092E+02  0.00000000000E+00 0.  1.
</event>
<event>
 7    1  0.1418970E-010  0.4778727E+02  0.7816164E-02  0.1312668E+00
        -11   -1    0    0    0    0  0.00000000000E+00  0.00000000000E+00  0.45593999997E+02  0.45594000000E+02  0.51100000000E-03 0.  1.
         11   -1    0    0    0    0 -0.00000000000E+00 -0.00000000000E+00 -0.45593999997E+02  0.45594000000E+02  0.51100000000E-03 0. -1.
    9900012    2    1    2    0    0  0.30863906152E+02  0.27961033493E+02 -0.12215680548E+02  0.47787274796E+02  0.20000017106E+02 0.  0.
         12    1    1    2    0    0 -0.30863906152E+02 -0.27961033493E+02  0.12215680548E+02  0.43400725204E+02  0.00000000000E+00 0. -1.
         11    1    3    3    0    0  0.47984952566E+01  0.11553898839E+02 -0.76265050900E+01  0.14652020859E+02  0.51100000000E-03 0. -1.
        -11    1    3    3    0    0  0.19664160136E+02  0.11797810842E+02 -0.83393689625E+01  0.24401078039E+02  0.51100000000E-03 0.  1.
        -12    1    3    3    0    0  0.64012507592E+01  0.46093238123E+01  0.37501935047E+01  0.87341758977E+01  0.00000000000E+00 0.  1.
</event>
<event>
 7    1  0.1418970E-010  0.4778727E+02  0.7816164E-02  0.1312668E+00
        -11   -1    0    0    0    0  0.00000000000E+00  0.00000000000E+00  0.45593999997E+02  0.45594000000E+02  0.51100000000E-03 0. -1.
         11   -1    0    0    0    0 -0.00000000000E+00 -0.00000000000E+00 -0.45593999997E+02  0.45594000000E+02  0.51100000000E-03 0.  1.
    9900012    2    1    2    0    0 -0.14730810542E+01  0.42683019075E+02 -0.77209613330E+01  0.47787270409E+02  0.19999997103E+02 0.  0.
         12    1    1    2    0    0  0.14730810542E+01 -0.42683019075E+02  0.77209613330E+01  0.43400729591E+02  0.00000000000E+00 0. -1.
         11    1    3    3    0    0 -0.20272653720E+01  0.68371042644E+01 -0.88954005179E+01  0.11401050401E+02  0.51100000000E-03 0. -1.
        -11    1    3    3    0    0 -0.16472384303E+01  0.10846723096E+02  0.25108113408E+01  0.11254731015E+02  0.51100000000E-03 0.  1.
         12    1    3    3    0    0  0.22014227480E+01  0.24999191714E+02 -0.13363721559E+01  0.25131488993E+02  0.00000000000E+00 0. -1.
</event>
<event>
 7    1  0.1418970E-010  0.4778727E+02  0.7816164E-02  0.1312668E+00
        -11   -1    0    0    0    0  0.00000000000E+00  0.00000000000E+00  0.45593999997E+02  0.45594000000E+02  0.51100000000E-03 0. -1.
         11   -1    0    0    0    0 -0.00000000000E+00 -0.00000000000E+00 -0.45593999997E+02  0.45594000000E+02  0.51100000000E-03 0.  1.
    9900012    2    1    2    0    0 -0.98823802712E+01  0.22614276428E+02 -0.35700935557E+02  0.47787265699E+02  0.19999975630E+02 0.  0.
         12    1    1    2    0    0  0.98823802712E+01 -0.22614276428E+02  0.35700935557E+02  0.43400734301E+02  0.00000000000E+00 0. -1.
         11    1    3    3    0    0 -0.10756496954E+01 -0.17226173856E+01 -0.76103323986E+00  0.21687795595E+01  0.51100000000E-03 0. -1.
        -11    1    3    3    0    0 -0.31469598834E+01  0.23369947887E+02 -0.27687386448E+02  0.36368244243E+02  0.51100000000E-03 0.  1.
         12    1    3    3    0    0 -0.56597706924E+01  0.96694592627E+00 -0.72525158696E+01  0.92502418970E+01  0.00000000000E+00 0. -1.
</event>
<event>
 7    1  0.1418970E-010  0.4778726E+02  0.7816164E-02  0.1312668E+00
        -11   -1    0    0    0    0  0.00000000000E+00  0.00000000000E+00  0.45593999997E+02  0.45594000000E+02  0.51100000000E-03 0. -1.
         11   -1    0    0    0    0 -0.00000000000E+00 -0.00000000000E+00 -0.45593999997E+02  0.45594000000E+02  0.51100000000E-03 0.  1.
    9900012    2    1    2    0    0  0.37281121617E+02  0.19133491526E+02 -0.11298287622E+02  0.47787264635E+02  0.19999970778E+02 0.  0.
         12    1    1    2    0    0 -0.37281121617E+02 -0.19133491526E+02  0.11298287622E+02  0.43400735365E+02  0.00000000000E+00 0. -1.
         11    1    3    3    0    0 -0.10067785312E+01  0.21338228262E+01 -0.16495029139E+00  0.23651663206E+01  0.51100000000E-03 0. -1.
        -11    1    3    3    0    0  0.30281592131E+02  0.19045479222E+02 -0.90327431900E+01  0.36895738922E+02  0.51100000000E-03 0.  1.
         12    1    3    3    0    0  0.80063080167E+01 -0.20458105218E+01 -0.21005941410E+01  0.85263593928E+01  0.00000000000E+00 0. -1.
</event>
<event>
 7    1  0.1418970E-010  0.4778727E+02  0.7816164E-02  0.1312668E+00
        -11   -1    0    0    0    0  0.00000000000E+00  0.00000000000E+00  0.45593999997E+02  0.45594000000E+02  0.51100000000E-03 0. -1.
         11   -1    0    0    0    0 -0.00000000000E+00 -0.00000000000E+00 -0.45593999997E+02  0.45594000000E+02  0.51100000000E-03 0.  1.
    9900012    2    1    2    0    0  0.21445156896E+02 -0.36983709815E+02  0.74788774367E+01  0.47787272429E+02  0.20000006313E+02 0.  0.
         12    1    1    2    0    0 -0.21445156896E+02  0.36983709815E+02 -0.74788774367E+01  0.43400727571E+02  0.00000000000E+00 0. -1.
         11    1    3    3    0    0  0.81176595906E+01 -0.19195950695E+02  0.61483036525E+01  0.21729762041E+02  0.51100000000E-03 0. -1.
        -11    1    3    3    0    0  0.14481704976E+02 -0.17140110799E+02  0.42630130310E+01  0.22840237687E+02  0.51100000000E-03 0.  1.
         12    1    3    3    0    0 -0.11542076713E+01 -0.64764832133E+00 -0.29324392468E+01  0.32172727010E+01  0.00000000000E+00 0. -1.
</event>
<event>
 7    1  0.2032449E-010  0.4778730E+02  0.7816164E-02  0.1312668E+00
        -11   -1    0    0    0    0  0.00000000000E+00  0.00000000000E+00  0.45593999997E+02  0.45594000000E+02  0.51100000000E-03 0.  1.
         11   -1    0    0    0    0 -0.00000000000E+00 -0.00000000000E+00 -0.45593999997E+02  0.45594000000E+02  0.51100000000E-03 0. -1.
    9900012    2    1    2    0    0 -0.32138318187E+02 -0.28741495765E+02 -0.49674704382E+01  0.47787299116E+02  0.20000127989E+02 0.  0.
         12    1    1    2    0    0  0.32138318187E+02  0.28741495765E+02  0.49674704382E+01  0.43400700884E+02  0.00000000000E+00 0. -1.
         11    1    3    3    0    0  0.22591111915E+01  0.68208466902E-01  0.22383517296E+00  0.22711975291E+01  0.51100000000E-03 0. -1.
        -11    1    3    3    0    0 -0.10688952606E+02 -0.11275829947E+02 -0.38030869292E+01  0.15995671891E+02  0.51100000000E-03 0.  1.
         12    1    3    3    0    0 -0.23708476772E+02 -0.17533874285E+02 -0.13882186820E+01  0.29520429696E+02  0.00000000000E+00 0. -1.
</event>
<event>
 7    1  0.1418970E-010  0.4778727E+02  0.7816164E-02  0.1312668E+00
        -11   -1    0    0    0    0  0.00000000000E+00  0.00000000000E+00  0.45593999997E+02  0.45594000000E+02  0.51100000000E-03 0.  1.
         11   -1    0    0    0    0 -0.00000000000E+00 -0.00000000000E+00 -0.45593999997E+02  0.45594000000E+02  0.51100000000E-03 0. -1.
    9900012    2    1    2    0    0 -0.10399123252E+02  0.38468073154E+02  0.17195605115E+02  0.47787271298E+02  0.20000001156E+02 0.  0.
         12    1    1    2    0    0  0.10399123252E+02 -0.38468073154E+02 -0.17195605115E+02  0.43400728702E+02  0.00000000000E+00 0. -1.
         11    1    3    3    0    0  0.28115850542E+01  0.54592515539E+01  0.35905312820E+01  0.71133925236E+01  0.51100000000E-03 0. -1.
        -11    1    3    3    0    0 -0.14861826451E+02  0.23313515127E+02  0.13661589748E+02  0.30838821439E+02  0.51100000000E-03 0.  1.
        -12    1    3    3    0    0  0.16511181453E+01  0.96953064730E+01 -0.56515915283E-01  0.98350573350E+01  0.00000000000E+00 0.  1.
</event>
<event>
 7    1  0.1418970E-010  0.4778727E+02  0.7816164E-02  0.1312668E+00
        -11   -1    0    0    0    0  0.00000000000E+00  0.00000000000E+00  0.45593999997E+02  0.45594000000E+02  0.51100000000E-03 0.  1.
         11   -1    0    0    0    0 -0.00000000000E+00 -0.00000000000E+00 -0.45593999997E+02  0.45594000000E+02  0.51100000000E-03 0. -1.
    9900012    2    1    2    0    0 -0.19325453299E+02 -0.24472669209E+02  0.30186730652E+02  0.47787269697E+02  0.19999993857E+02 0.  0.
         12    1    1    2    0    0  0.19325453299E+02  0.24472669209E+02 -0.30186730652E+02  0.43400730303E+02  0.00000000000E+00 0. -1.
         11    1    3    3    0    0  0.12517792281E+01 -0.33536404853E+01  0.13953221717E+01  0.38419760495E+01  0.51100000000E-03 0. -1.
        -11    1    3    3    0    0 -0.36401059405E+01 -0.12355013384E+02  0.59455339316E+01  0.14186123536E+02  0.51100000000E-03 0.  1.
         12    1    3    3    0    0 -0.16937126586E+02 -0.87640153392E+01  0.22845874548E+02  0.29759170112E+02  0.00000000000E+00 0. -1.
</event>
<event>
 7    1  0.1418970E-010  0.4778727E+02  0.7816164E-02  0.1312668E+00
        -11   -1    0    0    0    0  0.00000000000E+00  0.00000000000E+00  0.45593999997E+02  0.45594000000E+02  0.51100000000E-03 0.  1.
         11   -1    0    0    0    0 -0.00000000000E+00 -0.00000000000E+00 -0.45593999997E+02  0.45594000000E+02  0.51100000000E-03 0. -1.
    9900012    2    1    2    0    0  0.12987567839E+02  0.36430817948E+02  0.19691160002E+02  0.47787271931E+02  0.20000004042E+02 0.  0.
         12    1    1    2    0    0 -0.12987567839E+02 -0.36430817948E+02 -0.19691160002E+02  0.43400728069E+02  0.00000000000E+00 0. -1.
         11    1    3    3    0    0 -0.25811448563E+01  0.10118098172E+02 -0.80081668946E+00  0.10472799388E+02  0.51100000000E-03 0. -1.
        -11    1    3    3    0    0  0.74229491545E+01  0.69124506723E+01  0.66858337002E+01  0.12148354661E+02  0.51100000000E-03 0.  1.
        -12    1    3    3    0    0  0.81457635406E+01  0.19400269104E+02  0.13806142991E+02  0.25166117882E+02  0.00000000000E+00 0.  1.
</event>
<event>
 7    1  0.1418970E-010  0.4778727E+02  0.7816164E-02  0.1312668E+00
        -11   -1    0    0    0    0  0.00000000000E+00  0.00000000000E+00  0.45593999997E+02  0.45594000000E+02  0.51100000000E-03 0.  1.
         11   -1    0    0    0    0 -0.00000000000E+00 -0.00000000000E+00 -0.45593999997E+02  0.45594000000E+02  0.51100000000E-03 0. -1.
    9900012    2    1    2    0    0  0.48938704327E+01  0.15392087809E+02  0.40283456542E+02  0.47787271828E+02  0.20000003571E+02 0.  0.
         12    1    1    2    0    0 -0.48938704327E+01 -0.15392087809E+02 -0.40283456542E+02  0.43400728172E+02  0.00000000000E+00 0. -1.
         11    1    3    3    0    0  0.80507950659E+01  0.19565032411E+01  0.24126341924E+02  0.25509284212E+02  0.51100000000E-03 0. -1.
        -11    1    3    3    0    0  0.15105479292E+01  0.80422462759E+01  0.92344316933E+01  0.12338322786E+02  0.51100000000E-03 0.  1.
         12    1    3    3    0    0 -0.46674725625E+01  0.53933382921E+01  0.69226829250E+01  0.99396648301E+01  0.00000000000E+00 0. -1.
</event>
<event>
 7    1  0.1418970E-010  0.4778727E+02  0.7816164E-02  0.1312668E+00
        -11   -1    0    0    0    0  0.00000000000E+00  0.00000000000E+00  0.45593999997E+02  0.45594000000E+02  0.51100000000E-03 0.  1.
         11   -1    0    0    0    0 -0.00000000000E+00 -0.00000000000E+00 -0.45593999997E+02  0.45594000000E+02  0.51100000000E-03 0. -1.
    9900012    2    1    2    0    0  0.39072035790E+02 -0.38873440937E+01  0.18490207982E+02  0.47787271710E+02  0.20000003035E+02 0.  0.
         12    1    1    2    0    0 -0.39072035790E+02  0.38873440937E+01 -0.18490207982E+02  0.43400728290E+02  0.00000000000E+00 0. -1.
         11    1    3    3    0    0  0.27296326553E+01  0.78946682406E-01 -0.14736759320E+01  0.31030385149E+01  0.51100000000E-03 0. -1.
        -11    1    3    3    0    0  0.32415696610E+02 -0.41520443709E+01  0.22790430461E+02  0.39842446963E+02  0.51100000000E-03 0.  1.
        -12    1    3    3    0    0  0.39267065252E+01  0.18575359476E+00 -0.28265465471E+01  0.48417862320E+01  0.00000000000E+00 0.  1.
</event>
<event>
 7    1  0.1418970E-010  0.4778727E+02  0.7816164E-02  0.1312668E+00
        -11   -1    0    0    0    0  0.00000000000E+00  0.00000000000E+00  0.45593999997E+02  0.45594000000E+02  0.51100000000E-03 0.  1.
         11   -1    0    0    0    0 -0.00000000000E+00 -0.00000000000E+00 -0.45593999997E+02  0.45594000000E+02  0.51100000000E-03 0. -1.
    9900012    2    1    2    0    0 -0.24501067879E+02 -0.32140208455E+02  0.15821754082E+02  0.47787271562E+02  0.20000002360E+02 0.  0.
         12    1    1    2    0    0  0.24501067879E+02  0.32140208455E+02 -0.15821754082E+02  0.43400728438E+02  0.00000000000E+00 0. -1.
         11    1    3    3    0    0 -0.16214304400E+02 -0.21026947647E+02  0.38719006941E+01  0.26833333930E+02  0.51100000000E-03 0. -1.
        -11    1    3    3    0    0 -0.99187070027E+01 -0.11664293282E+02  0.11567176786E+02  0.19189477988E+02  0.51100000000E-03 0.  1.
         12    1    3    3    0    0  0.16319435243E+01  0.55103247481E+00  0.38267660207E+00  0.17644596444E+01  0.00000000000E+00 0. -1.
</event>
<event>
 7    1  0.1418970E-010  0.4778727E+02  0.7816164E-02  0.1312668E+00
        -11   -1    0    0    0    0  0.00000000000E+00  0.00000000000E+00  0.45593999997E+02  0.45594000000E+02  0.51100000000E-03 0.  1.
         11   -1    0    0    0    0 -0.00000000000E+00 -0.00000000000E+00 -0.45593999997E+02  0.45594000000E+02  0.51100000000E-03 0. -1.
    9900012    2    1    2    0    0 -0.10350434518E+02  0.51808073130E+01  0.41828826732E+02  0.47787274144E+02  0.20000014130E+02 0.  0.
         12    1    1    2    0    0  0.10350434518E+02 -0.51808073130E+01 -0.41828826732E+02  0.43400725856E+02  0.00000000000E+00 0. -1.
         11    1    3    3    0    0  0.34049193159E+01  0.28096295243E+01  0.30766726920E+01  0.53808371772E+01  0.51100000000E-03 0. -1.
        -11    1    3    3    0    0 -0.29129709035E+01  0.21959084813E+01  0.22970544996E+02  0.23258403883E+02  0.51100000000E-03 0.  1.
        -12    1    3    3    0    0 -0.10842382930E+02  0.17526930736E+00  0.15781609044E+02  0.19148033083E+02  0.00000000000E+00 0.  1.
</event>
<event>
 7    1  0.1418970E-010  0.4778727E+02  0.7816164E-02  0.1312668E+00
        -11   -1    0    0    0    0  0.00000000000E+00  0.00000000000E+00  0.45593999997E+02  0.45594000000E+02  0.51100000000E-03 0.  1.
         11   -1    0    0    0    0 -0.00000000000E+00 -0.00000000000E+00 -0.45593999997E+02  0.45594000000E+02  0.51100000000E-03 0. -1.
    9900012    2    1    2    0    0 -0.32492488543E+02  0.26474493859E+02  0.11267764452E+02  0.47787272442E+02  0.20000006373E+02 0.  0.
         12    1    1    2    0    0  0.32492488543E+02 -0.26474493859E+02 -0.11267764452E+02  0.43400727558E+02  0.00000000000E+00 0. -1.
         11    1    3    3    0    0 -0.27274112359E+02  0.28743016135E+02  0.63079148565E+01  0.40122661572E+02  0.51100000000E-03 0. -1.
        -11    1    3    3    0    0 -0.31598765652E+01 -0.16711835280E+01  0.38400841668E+01  0.52463245192E+01  0.51100000000E-03 0.  1.
         12    1    3    3    0    0 -0.20584996193E+01 -0.59733874814E+00  0.11197654283E+01  0.24182863514E+01  0.00000000000E+00 0. -1.
</event>
<event>
 7    1  0.1418970E-010  0.4778727E+02  0.7816164E-02  0.1312668E+00
        -11   -1    0    0    0    0  0.00000000000E+00  0.00000000000E+00  0.45593999997E+02  0.45594000000E+02  0.51100000000E-03 0.  1.
         11   -1    0    0    0    0 -0.00000000000E+00 -0.00000000000E+00 -0.45593999997E+02  0.45594000000E+02  0.51100000000E-03 0. -1.
    9900012    2    1    2    0    0 -0.14556750635E+01  0.32778026768E+01  0.43252285967E+02  0.47787271646E+02  0.20000002744E+02 0.  0.
         12    1    1    2    0    0  0.14556750635E+01 -0.32778026768E+01 -0.43252285967E+02  0.43400728354E+02  0.00000000000E+00 0. -1.
         11    1    3    3    0    0 -0.40046019704E+01 -0.17072384136E+01  0.14764870526E+02  0.15393274565E+02  0.51100000000E-03 0. -1.
        -11    1    3    3    0    0  0.75909196317E+01 -0.32129806293E+00  0.18600387501E+02  0.20092279829E+02  0.51100000000E-03 0.  1.
         12    1    3    3    0    0 -0.50419927248E+01  0.53063391533E+01  0.98870279405E+01  0.12301717252E+02  0.00000000000E+00 0. -1.
</event>
<event>
 7    1  0.1418970E-010  0.4778727E+02  0.7816164E-02  0.1312668E+00
        -11   -1    0    0    0    0  0.00000000000E+00  0.00000000000E+00  0.45593999997E+02  0.45594000000E+02  0.51100000000E-03 0.  1.
         11   -1    0    0    0    0 -0.00000000000E+00 -0.00000000000E+00 -0.45593999997E+02  0.45594000000E+02  0.51100000000E-03 0. -1.
    9900012    2    1    2    0    0  0.23570501921E+02 -0.32241858802E+02 -0.16985796946E+02  0.47787270540E+02  0.19999997698E+02 0.  0.
         12    1    1    2    0    0 -0.23570501921E+02  0.32241858802E+02  0.16985796946E+02  0.43400729460E+02  0.00000000000E+00 0. -1.
         11    1    3    3    0    0 -0.97893663051E+00  0.26712304340E+00  0.30796057933E+00  0.10604299253E+01  0.51100000000E-03 0. -1.
        -11    1    3    3    0    0  0.56562296148E+01 -0.11751896867E+01 -0.62420277651E+01  0.85051111184E+01  0.51100000000E-03 0.  1.
         12    1    3    3    0    0  0.18893208937E+02 -0.31333792158E+02 -0.11051729761E+02  0.38221729496E+02  0.00000000000E+00 0. -1.
</event>
<event>
 7    1  0.1418970E-010  0.4778727E+02  0.7816164E-02  0.1312668E+00
        -11   -1    0    0    0    0  0.00000000000E+00  0.00000000000E+00  0.45593999997E+02  0.45594000000E+02  0.51100000000E-03 0. -1.
         11   -1    0    0    0    0 -0.00000000000E+00 -0.00000000000E+00 -0.45593999997E+02  0.45594000000E+02  0.51100000000E-03 0.  1.
    9900012    2    1    2    0    0 -0.16741303547E+02  0.86444428818E+01 -0.39097645092E+02  0.47787268567E+02  0.19999988706E+02 0.  0.
         12    1    1    2    0    0  0.16741303547E+02 -0.86444428818E+01  0.39097645092E+02  0.43400731433E+02  0.00000000000E+00 0. -1.
         11    1    3    3    0    0 -0.15030661862E+00  0.86122177171E+00 -0.11367158237E+02  0.11400727242E+02  0.51100000000E-03 0. -1.
        -11    1    3    3    0    0 -0.17595899435E+02  0.38969440718E+01 -0.26749580834E+02  0.32254331881E+02  0.51100000000E-03 0.  1.
         12    1    3    3    0    0  0.10049025067E+01  0.38862770382E+01 -0.98090602084E+00  0.41322094438E+01  0.00000000000E+00 0. -1.
</event>
<event>
 7    1  0.1418970E-010  0.4778727E+02  0.7816164E-02  0.1312668E+00
        -11   -1    0    0    0    0  0.00000000000E+00  0.00000000000E+00  0.45593999997E+02  0.45594000000E+02  0.51100000000E-03 0.  1.
         11   -1    0    0    0    0 -0.00000000000E+00 -0.00000000000E+00 -0.45593999997E+02  0.45594000000E+02  0.51100000000E-03 0. -1.
    9900012    2    1    2    0    0 -0.40662002596E+02 -0.13219734820E+02 -0.74473941560E+01  0.47787268169E+02  0.19999986888E+02 0.  0.
         12    1    1    2    0    0  0.40662002596E+02  0.13219734820E+02  0.74473941560E+01  0.43400731831E+02  0.00000000000E+00 0. -1.
         11    1    3    3    0    0 -0.18694406572E+02 -0.23674280587E+01 -0.86115455381E+01  0.20718211060E+02  0.51100000000E-03 0. -1.
        -11    1    3    3    0    0 -0.15335556378E+02 -0.20968010576E+01 -0.20772494042E+01  0.15617004497E+02  0.51100000000E-03 0.  1.
        -12    1    3    3    0    0 -0.66320396455E+01 -0.87555057033E+01  0.32414007863E+01  0.11452052612E+02  0.00000000000E+00 0.  1.
</event>
<event>
 7    1  0.1418970E-010  0.4778722E+02  0.7816164E-02  0.1312668E+00
        -11   -1    0    0    0    0  0.00000000000E+00  0.00000000000E+00  0.45593999997E+02  0.45594000000E+02  0.51100000000E-03 0.  1.
         11   -1    0    0    0    0 -0.00000000000E+00 -0.00000000000E+00 -0.45593999997E+02  0.45594000000E+02  0.51100000000E-03 0. -1.
    9900012    2    1    2    0    0 -0.23591051967E+02  0.17997532170E+02  0.31672991282E+02  0.47787224962E+02  0.19999789891E+02 0.  0.
         12    1    1    2    0    0  0.23591051967E+02 -0.17997532170E+02 -0.31672991282E+02  0.43400775038E+02  0.00000000000E+00 0. -1.
         11    1    3    3    0    0 -0.10749899668E+02  0.18534456702E+02  0.25105325669E+02  0.33005511741E+02  0.51100000000E-03 0. -1.
        -11    1    3    3    0    0 -0.46613326443E+01 -0.44489211064E+00  0.41360390203E+01  0.62476211513E+01  0.51100000000E-03 0.  1.
         12    1    3    3    0    0 -0.81798196555E+01 -0.92032421435E-01  0.24316265926E+01  0.85340920694E+01  0.00000000000E+00 0. -1.
</event>
<event>
 7    1  0.1418970E-010  0.4778730E+02  0.7816164E-02  0.1312668E+00
        -11   -1    0    0    0    0  0.00000000000E+00  0.00000000000E+00  0.45593999997E+02  0.45594000000E+02  0.51100000000E-03 0.  1.
         11   -1    0    0    0    0 -0.00000000000E+00 -0.00000000000E+00 -0.45593999997E+02  0.45594000000E+02  0.51100000000E-03 0. -1.
    9900012    2    1    2    0    0 -0.10942611435E+02  0.33649302191E+02  0.25131739473E+02  0.47787301712E+02  0.20000139826E+02 0.  0.
         12    1    1    2    0    0  0.10942611435E+02 -0.33649302191E+02 -0.25131739473E+02  0.43400698288E+02  0.00000000000E+00 0. -1.
         11    1    3    3    0    0 -0.90328902651E+01  0.22344243382E+02  0.16195565608E+02  0.29037125624E+02  0.51100000000E-03 0. -1.
        -11    1    3    3    0    0  0.27712024583E+01  0.67755741538E+01  0.97431532524E+01  0.12186755259E+02  0.51100000000E-03 0.  1.
         12    1    3    3    0    0 -0.46809236280E+01  0.45294846553E+01 -0.80697938809E+00  0.65634208296E+01  0.00000000000E+00 0. -1.
</event>
<event>
 7    1  0.1418970E-010  0.4778733E+02  0.7816164E-02  0.1312667E+00
        -11   -1    0    0    0    0  0.00000000000E+00  0.00000000000E+00  0.45593999997E+02  0.45594000000E+02  0.51100000000E-03 0.  1.
         11   -1    0    0    0    0 -0.00000000000E+00 -0.00000000000E+00 -0.45593999997E+02  0.45594000000E+02  0.51100000000E-03 0. -1.
    9900012    2    1    2    0    0  0.19524897531E+02  0.19413758209E+02  0.33548506735E+02  0.47787332545E+02  0.20000280403E+02 0.  0.
         12    1    1    2    0    0 -0.19524897531E+02 -0.19413758209E+02 -0.33548506735E+02  0.43400667455E+02  0.00000000000E+00 0. -1.
         11    1    3    3    0    0  0.20843438014E+02  0.15063672629E+02  0.31219496784E+02  0.40447745561E+02  0.51100000000E-03 0.  1.
        -11    1    3    3    0    0  0.14531493121E+01  0.23661658012E+01 -0.60532772540E+00  0.28419721037E+01  0.51100000000E-03 0. -1.
        -12    1    3    3    0    0 -0.27716897944E+01  0.19839197785E+01  0.29343376770E+01  0.44976148798E+01  0.00000000000E+00 0.  1.
</event>
<event>
 7    1  0.1418970E-010  0.4778727E+02  0.7816164E-02  0.1312668E+00
        -11   -1    0    0    0    0  0.00000000000E+00  0.00000000000E+00  0.45593999997E+02  0.45594000000E+02  0.51100000000E-03 0.  1.
         11   -1    0    0    0    0 -0.00000000000E+00 -0.00000000000E+00 -0.45593999997E+02  0.45594000000E+02  0.51100000000E-03 0. -1.
    9900012    2    1    2    0    0  0.27102416829E+01 -0.28964239283E+01  0.43219076384E+02  0.47787271377E+02  0.20000001516E+02 0.  0.
         12    1    1    2    0    0 -0.27102416829E+01  0.28964239283E+01 -0.43219076384E+02  0.43400728623E+02  0.00000000000E+00 0. -1.
         11    1    3    3    0    0 -0.48374039232E+00  0.22363137962E+01  0.35728170375E+01  0.42426555371E+01  0.51100000000E-03 0. -1.
        -11    1    3    3    0    0  0.20417114435E+01 -0.10040917476E+02  0.35702515907E+02  0.37143751180E+02  0.51100000000E-03 0.  1.
         12    1    3    3    0    0  0.11522706318E+01  0.49081797512E+01  0.39437434389E+01  0.64008646596E+01  0.00000000000E+00 0. -1.
</event>
<event>
 7    1  0.1418970E-010  0.4778727E+02  0.7816164E-02  0.1312668E+00
        -11   -1    0    0    0    0  0.00000000000E+00  0.00000000000E+00  0.45593999997E+02  0.45594000000E+02  0.51100000000E-03 0. -1.
         11   -1    0    0    0    0 -0.00000000000E+00 -0.00000000000E+00 -0.45593999997E+02  0.45594000000E+02  0.51100000000E-03 0.  1.
    9900012    2    1    2    0    0 -0.12127884276E+02 -0.37044027174E+02 -0.19086064064E+02  0.47787269963E+02  0.19999995070E+02 0.  0.
         12    1    1    2    0    0  0.12127884276E+02  0.37044027174E+02  0.19086064064E+02  0.43400730037E+02  0.00000000000E+00 0. -1.
         11    1    3    3    0    0  0.30011315338E+01 -0.31171847425E+01 -0.45009410491E+01  0.62435648304E+01  0.51100000000E-03 0. -1.
        -11    1    3    3    0    0 -0.51339612054E+01 -0.21160450496E+02 -0.38867056748E+01  0.22118514962E+02  0.51100000000E-03 0.  1.
         12    1    3    3    0    0 -0.99950546048E+01 -0.12766391935E+02 -0.10698417340E+02  0.19425190171E+02  0.00000000000E+00 0. -1.
</event>
<event>
 7    1  0.1418970E-010  0.4778726E+02  0.7816164E-02  0.1312668E+00
        -11   -1    0    0    0    0  0.00000000000E+00  0.00000000000E+00  0.45593999997E+02  0.45594000000E+02  0.51100000000E-03 0.  1.
         11   -1    0    0    0    0 -0.00000000000E+00 -0.00000000000E+00 -0.45593999997E+02  0.45594000000E+02  0.51100000000E-03 0. -1.
    9900012    2    1    2    0    0  0.14079166055E+02 -0.26654830349E+02  0.31223724396E+02  0.47787264259E+02  0.19999969061E+02 0.  0.
         12    1    1    2    0    0 -0.14079166055E+02  0.26654830349E+02 -0.31223724396E+02  0.43400735741E+02  0.00000000000E+00 0. -1.
         11    1    3    3    0    0  0.11073259667E+01 -0.43328556443E+01  0.36941097520E-01  0.44722671808E+01  0.51100000000E-03 0. -1.
        -11    1    3    3    0    0  0.10712613788E+02 -0.15325507559E+02  0.30700792180E+02  0.35946765040E+02  0.51100000000E-03 0.  1.
        -12    1    3    3    0    0  0.22592263000E+01 -0.69964671455E+01  0.48599111883E+00  0.73682320376E+01  0.00000000000E+00 0.  1.
</event>
<event>
 7    1  0.1418970E-010  0.4778727E+02  0.7816164E-02  0.1312668E+00
        -11   -1    0    0    0    0  0.00000000000E+00  0.00000000000E+00  0.45593999997E+02  0.45594000000E+02  0.51100000000E-03 0. -1.
         11   -1    0    0    0    0 -0.00000000000E+00 -0.00000000000E+00 -0.45593999997E+02  0.45594000000E+02  0.51100000000E-03 0.  1.
    9900012    2    1    2    0    0  0.17718320171E+02 -0.33545081015E+02 -0.21081077421E+02  0.47787272411E+02  0.20000006232E+02 0.  0.
         12    1    1    2    0    0 -0.17718320171E+02  0.33545081015E+02  0.21081077421E+02  0.43400727589E+02  0.00000000000E+00 0. -1.
         11    1    3    3    0    0  0.10092677046E+02 -0.64721089920E+01  0.96474529031E+00  0.12028343963E+02  0.51100000000E-03 0. -1.
        -11    1    3    3    0    0  0.25478305942E+01 -0.88491050250E+01 -0.64775537631E+01  0.11258632399E+02  0.51100000000E-03 0.  1.
         12    1    3    3    0    0  0.50778125312E+01 -0.18223866998E+02 -0.15568268948E+02  0.24500296049E+02  0.00000000000E+00 0. -1.
</event>
<event>
 7    1  0.1544671E-010  0.4778727E+02  0.7816164E-02  0.1312668E+00
        -11   -1    0    0    0    0  0.00000000000E+00  0.00000000000E+00  0.45593999997E+02  0.45594000000E+02  0.51100000000E-03 0. -1.
         11   -1    0    0    0    0 -0.00000000000E+00 -0.00000000000E+00 -0.45593999997E+02  0.45594000000E+02  0.51100000000E-03 0.  1.
    9900012    2    1    2    0    0  0.86943077575E+01  0.27864959905E+02 -0.32118163249E+02  0.47787269725E+02  0.19999993985E+02 0.  0.
         12    1    1    2    0    0 -0.86943077575E+01 -0.27864959905E+02  0.32118163249E+02  0.43400730275E+02  0.00000000000E+00 0. -1.
         11    1    3    3    0    0  0.59148725224E+01  0.17171964484E+02 -0.87155937128E+01  0.20145065282E+02  0.51100000000E-03 0. -1.
        -11    1    3    3    0    0 -0.11896319590E+01 -0.13933907883E+01 -0.17768431782E+01  0.25522409815E+01  0.51100000000E-03 0.  1.
        -12    1    3    3    0    0  0.39690671941E+01  0.12086386210E+02 -0.21625726358E+02  0.25089963461E+02  0.00000000000E+00 0.  1.
</event>
<event>
 7    1  0.1418970E-010  0.4778727E+02  0.7816164E-02  0.1312668E+00
        -11   -1    0    0    0    0  0.00000000000E+00  0.00000000000E+00  0.45593999997E+02  0.45594000000E+02  0.51100000000E-03 0. -1.
         11   -1    0    0    0    0 -0.00000000000E+00 -0.00000000000E+00 -0.45593999997E+02  0.45594000000E+02  0.51100000000E-03 0.  1.
    9900012    2    1    2    0    0 -0.19002108369E+02  0.36499578855E+02  0.13795789901E+02  0.47787271918E+02  0.20000003983E+02 0.  0.
         12    1    1    2    0    0  0.19002108369E+02 -0.36499578855E+02 -0.13795789901E+02  0.43400728082E+02  0.00000000000E+00 0. -1.
         11    1    3    3    0    0 -0.97181891311E+01  0.85583469285E+01  0.17635317186E+01  0.13068991794E+02  0.51100000000E-03 0. -1.
        -11    1    3    3    0    0 -0.40550553519E+01 -0.73289584860E-01  0.11839041153E+01  0.42249821876E+01  0.51100000000E-03 0.  1.
        -12    1    3    3    0    0 -0.52288638859E+01  0.28014521511E+02  0.10848354067E+02  0.30493297936E+02  0.00000000000E+00 0.  1.
</event>
<event>
 7    1  0.1418970E-010  0.4778727E+02  0.7816164E-02  0.1312668E+00
        -11   -1    0    0    0    0  0.00000000000E+00  0.00000000000E+00  0.45593999997E+02  0.45594000000E+02  0.51100000000E-03 0. -1.
         11   -1    0    0    0    0 -0.00000000000E+00 -0.00000000000E+00 -0.45593999997E+02  0.45594000000E+02  0.51100000000E-03 0.  1.
    9900012    2    1    2    0    0 -0.40742506675E+02 -0.11809183852E+02  0.91768473557E+01  0.47787271886E+02  0.20000003838E+02 0.  0.
         12    1    1    2    0    0  0.40742506675E+02  0.11809183852E+02 -0.91768473557E+01  0.43400728114E+02  0.00000000000E+00 0. -1.
         11    1    3    3    0    0 -0.93933336741E+01 -0.86766411046E+01  0.18256735641E+01  0.12917116652E+02  0.51100000000E-03 0. -1.
        -11    1    3    3    0    0 -0.25901869356E+02 -0.16818866457E+01  0.45137192168E+00  0.25960341209E+02  0.51100000000E-03 0.  1.
         12    1    3    3    0    0 -0.54473036450E+01 -0.14506561021E+01  0.68998018699E+01  0.89098140256E+01  0.00000000000E+00 0. -1.
</event>
<event>
 7    1  0.1860415E-010  0.4778727E+02  0.7816164E-02  0.1312668E+00
        -11   -1    0    0    0    0  0.00000000000E+00  0.00000000000E+00  0.45593999997E+02  0.45594000000E+02  0.51100000000E-03 0.  1.
         11   -1    0    0    0    0 -0.00000000000E+00 -0.00000000000E+00 -0.45593999997E+02  0.45594000000E+02  0.51100000000E-03 0. -1.
    9900012    2    1    2    0    0 -0.38850684530E+02  0.87759860043E+01 -0.17240343617E+02  0.47787273430E+02  0.20000010876E+02 0.  0.
         12    1    1    2    0    0  0.38850684530E+02 -0.87759860043E+01  0.17240343617E+02  0.43400726570E+02  0.00000000000E+00 0. -1.
         11    1    3    3    0    0 -0.53003247664E+00  0.24673395908E+01 -0.33542608799E+01  0.41975904272E+01  0.51100000000E-03 0. -1.
        -11    1    3    3    0    0 -0.31055804613E+02  0.10270687585E+02 -0.13244782740E+02  0.35289861061E+02  0.51100000000E-03 0.  1.
         12    1    3    3    0    0 -0.72648474402E+01 -0.39620411714E+01 -0.64129999717E+00  0.82998219414E+01  0.00000000000E+00 0. -1.
</event>
<event>
 7    1  0.1418970E-010  0.4778728E+02  0.7816164E-02  0.1312668E+00
        -11   -1    0    0    0    0  0.00000000000E+00  0.00000000000E+00  0.45593999997E+02  0.45594000000E+02  0.51100000000E-03 0.  1.
         11   -1    0    0    0    0 -0.00000000000E+00 -0.00000000000E+00 -0.45593999997E+02  0.45594000000E+02  0.51100000000E-03 0. -1.
    9900012    2    1    2    0    0 -0.32987218167E+02  0.21489937039E-01  0.28204003720E+02  0.47787275927E+02  0.20000022260E+02 0.  0.
         12    1    1    2    0    0  0.32987218167E+02 -0.21489937039E-01 -0.28204003720E+02  0.43400724073E+02  0.00000000000E+00 0. -1.
         11    1    3    3    0    0 -0.86310021549E+01 -0.35685363921E+01  0.18995074662E+02  0.21166991092E+02  0.51100000000E-03 0. -1.
        -11    1    3    3    0    0 -0.99272959988E+01  0.24904107610E+01  0.57592102424E+01  0.11744013559E+02  0.51100000000E-03 0.  1.
         12    1    3    3    0    0 -0.14428920014E+02  0.10996155682E+01  0.34497188155E+01  0.14876271276E+02  0.00000000000E+00 0. -1.
</event>
<event>
 7    1  0.1418970E-010  0.4778727E+02  0.7816164E-02  0.1312668E+00
        -11   -1    0    0    0    0  0.00000000000E+00  0.00000000000E+00  0.45593999997E+02  0.45594000000E+02  0.51100000000E-03 0.  1.
         11   -1    0    0    0    0 -0.00000000000E+00 -0.00000000000E+00 -0.45593999997E+02  0.45594000000E+02  0.51100000000E-03 0. -1.
    9900012    2    1    2    0    0  0.39327780385E+02 -0.13607073276E+02  0.12320567740E+02  0.47787272557E+02  0.20000006895E+02 0.  0.
         12    1    1    2    0    0 -0.39327780385E+02  0.13607073276E+02 -0.12320567740E+02  0.43400727443E+02  0.00000000000E+00 0. -1.
         11    1    3    3    0    0  0.18548823964E+01 -0.24739859743E+01 -0.21377821457E+01  0.37591632139E+01  0.51100000000E-03 0. -1.
        -11    1    3    3    0    0  0.24807224891E+01 -0.43686143021E+01 -0.10956343474E+01  0.51419052765E+01  0.51100000000E-03 0.  1.
        -12    1    3    3    0    0  0.34992175500E+02 -0.67644730000E+01  0.15553984233E+02  0.38886204066E+02  0.00000000000E+00 0.  1.
</event>
<event>
 7    1  0.1418970E-010  0.4778727E+02  0.7816164E-02  0.1312668E+00
        -11   -1    0    0    0    0  0.00000000000E+00  0.00000000000E+00  0.45593999997E+02  0.45594000000E+02  0.51100000000E-03 0.  1.
         11   -1    0    0    0    0 -0.00000000000E+00 -0.00000000000E+00 -0.45593999997E+02  0.45594000000E+02  0.51100000000E-03 0. -1.
    9900012    2    1    2    0    0 -0.34061634075E+02 -0.25145735890E+02 -0.95456887821E+01  0.47787272775E+02  0.20000007892E+02 0.  0.
         12    1    1    2    0    0  0.34061634075E+02  0.25145735890E+02  0.95456887821E+01  0.43400727225E+02  0.00000000000E+00 0. -1.
         11    1    3    3    0    0 -0.85606251012E+01 -0.11664751224E+02 -0.16185982138E+01  0.14559209583E+02  0.51100000000E-03 0. -1.
        -11    1    3    3    0    0 -0.24884197556E+02 -0.92710697769E+01 -0.30093241444E+01  0.26725120297E+02  0.51100000000E-03 0.  1.
         12    1    3    3    0    0 -0.61681141715E+00 -0.42099148894E+01 -0.49177664239E+01  0.65029428953E+01  0.00000000000E+00 0. -1.
</event>
<event>
 7    1  0.1418970E-010  0.4778728E+02  0.7816164E-02  0.1312668E+00
        -11   -1    0    0    0    0  0.00000000000E+00  0.00000000000E+00  0.45593999997E+02  0.45594000000E+02  0.51100000000E-03 0.  1.
         11   -1    0    0    0    0 -0.00000000000E+00 -0.00000000000E+00 -0.45593999997E+02  0.45594000000E+02  0.51100000000E-03 0. -1.
    9900012    2    1    2    0    0 -0.23400542145E+02 -0.23950984807E+02  0.27611363212E+02  0.47787280831E+02  0.20000044623E+02 0.  0.
         12    1    1    2    0    0  0.23400542145E+02  0.23950984807E+02 -0.27611363212E+02  0.43400719169E+02  0.00000000000E+00 0. -1.
         11    1    3    3    0    0  0.65662458203E+00 -0.27433915445E+01 -0.12791996293E+01  0.30973706528E+01  0.51100000000E-03 0. -1.
        -11    1    3    3    0    0  0.10959941287E+01 -0.38932466603E-01  0.34147598085E+00  0.11486187242E+01  0.51100000000E-03 0.  1.
        -12    1    3    3    0    0 -0.25153160856E+02 -0.21168660796E+02  0.28549086861E+02  0.43541291454E+02  0.00000000000E+00 0.  1.
</event>
<event>
 7    1  0.1418970E-010  0.4778727E+02  0.7816164E-02  0.1312668E+00
        -11   -1    0    0    0    0  0.00000000000E+00  0.00000000000E+00  0.45593999997E+02  0.45594000000E+02  0.51100000000E-03 0.  1.
         11   -1    0    0    0    0 -0.00000000000E+00 -0.00000000000E+00 -0.45593999997E+02  0.45594000000E+02  0.51100000000E-03 0. -1.
    9900012    2    1    2    0    0 -0.48876688715E+01  0.55547444103E+01  0.42765389442E+02  0.47787273893E+02  0.20000012988E+02 0.  0.
         12    1    1    2    0    0  0.48876688715E+01 -0.55547444103E+01 -0.42765389442E+02  0.43400726107E+02  0.00000000000E+00 0. -1.
         11    1    3    3    0    0  0.41164377936E+01  0.28029783661E+01  0.76941769735E+01  0.91652663568E+01  0.51100000000E-03 0. -1.
        -11    1    3    3    0    0 -0.43691981056E+01  0.79444631365E+01  0.17203499278E+02  0.19446459171E+02  0.51100000000E-03 0.  1.
        -12    1    3    3    0    0 -0.46349085595E+01 -0.51926970923E+01  0.17867713191E+02  0.19175548365E+02  0.00000000000E+00 0.  1.
</event>
<event>
 7    1  0.1418970E-010  0.4778727E+02  0.7816164E-02  0.1312668E+00
        -11   -1    0    0    0    0  0.00000000000E+00  0.00000000000E+00  0.45593999997E+02  0.45594000000E+02  0.51100000000E-03 0.  1.
         11   -1    0    0    0    0 -0.00000000000E+00 -0.00000000000E+00 -0.45593999997E+02  0.45594000000E+02  0.51100000000E-03 0. -1.
    9900012    2    1    2    0    0  0.15849931608E+02 -0.38301581471E+02 -0.12860469620E+02  0.47787272425E+02  0.20000006295E+02 0.  0.
         12    1    1    2    0    0 -0.15849931608E+02  0.38301581471E+02  0.12860469620E+02  0.43400727575E+02  0.00000000000E+00 0. -1.
         11    1    3    3    0    0  0.13519776634E+02 -0.18591866364E+02 -0.57421669962E+01  0.23694183616E+02  0.51100000000E-03 0. -1.
        -11    1    3    3    0    0  0.19654841443E+01 -0.18978788419E+02 -0.23142981104E+01  0.19220133032E+02  0.51100000000E-03 0.  1.
         12    1    3    3    0    0  0.36467082967E+00 -0.73092668797E+00 -0.48040045138E+01  0.48729557771E+01  0.00000000000E+00 0. -1.
</event>
<event>
 7    1  0.1418970E-010  0.4778727E+02  0.7816164E-02  0.1312668E+00
        -11   -1    0    0    0    0  0.00000000000E+00  0.00000000000E+00  0.45593999997E+02  0.45594000000E+02  0.51100000000E-03 0.  1.
         11   -1    0    0    0    0 -0.00000000000E+00 -0.00000000000E+00 -0.45593999997E+02  0.45594000000E+02  0.51100000000E-03 0. -1.
    9900012    2    1    2    0    0 -0.33156899024E+02  0.19293686074E+02  0.20297710147E+02  0.47787270600E+02  0.19999997976E+02 0.  0.
         12    1    1    2    0    0  0.33156899024E+02 -0.19293686074E+02 -0.20297710147E+02  0.43400729400E+02  0.00000000000E+00 0. -1.
         11    1    3    3    0    0 -0.76866235809E+01  0.28189806875E+01 -0.48636203552E+00  0.82016694936E+01  0.51100000000E-03 0. -1.
        -11    1    3    3    0    0 -0.19173802177E+02  0.54896601430E+01  0.17429947045E+02  0.26487244339E+02  0.51100000000E-03 0.  1.
        -12    1    3    3    0    0 -0.62964732658E+01  0.10985045243E+02  0.33541251379E+01  0.13098356768E+02  0.00000000000E+00 0.  1.
</event>
<event>
 7    1  0.1418970E-010  0.4778728E+02  0.7816164E-02  0.1312668E+00
        -11   -1    0    0    0    0  0.00000000000E+00  0.00000000000E+00  0.45593999997E+02  0.45594000000E+02  0.51100000000E-03 0. -1.
         11   -1    0    0    0    0 -0.00000000000E+00 -0.00000000000E+00 -0.45593999997E+02  0.45594000000E+02  0.51100000000E-03 0.  1.
    9900012    2    1    2    0    0  0.38217256403E+02 -0.19105869429E+02  0.76177243045E+01  0.47787278149E+02  0.20000032392E+02 0.  0.
         12    1    1    2    0    0 -0.38217256403E+02  0.19105869429E+02 -0.76177243045E+01  0.43400721851E+02  0.00000000000E+00 0. -1.
         11    1    3    3    0    0  0.19906837135E+02 -0.14197303413E+02  0.11121470875E+01  0.24476161062E+02  0.51100000000E-03 0.  1.
        -11    1    3    3    0    0 -0.82116841652E+00 -0.30390571830E+01  0.12071525836E+01  0.33715580599E+01  0.51100000000E-03 0. -1.
        -12    1    3    3    0    0  0.19131587685E+02 -0.18695088332E+01  0.52984246333E+01  0.19939559027E+02  0.00000000000E+00 0.  1.
</event>
<event>
 7    1  0.1418970E-010  0.4778730E+02  0.7816164E-02  0.1312668E+00
        -11   -1    0    0    0    0  0.00000000000E+00  0.00000000000E+00  0.45593999997E+02  0.45594000000E+02  0.51100000000E-03 0. -1.
         11   -1    0    0    0    0 -0.00000000000E+00 -0.00000000000E+00 -0.45593999997E+02  0.45594000000E+02  0.51100000000E-03 0.  1.
    9900012    2    1    2    0    0  0.24918551422E+02 -0.28978038984E+02 -0.20565996532E+02  0.47787295378E+02  0.20000110948E+02 0.  0.
         12    1    1    2    0    0 -0.24918551422E+02  0.28978038984E+02  0.20565996532E+02  0.43400704622E+02  0.00000000000E+00 0. -1.
         11    1    3    3    0    0  0.28022299923E+01 -0.77037062779E+01 -0.13321781140E+02  0.15641912810E+02  0.51100000000E-03 0. -1.
        -11    1    3    3    0    0  0.43798498262E+01 -0.33950652260E+01  0.10302316214E+01  0.56365707521E+01  0.51100000000E-03 0.  1.
         12    1    3    3    0    0  0.17736471603E+02 -0.17879267480E+02 -0.82744470131E+01  0.26508811816E+02  0.00000000000E+00 0. -1.
</event>
<event>
 7    1  0.1418970E-010  0.4778727E+02  0.7816164E-02  0.1312668E+00
        -11   -1    0    0    0    0  0.00000000000E+00  0.00000000000E+00  0.45593999997E+02  0.45594000000E+02  0.51100000000E-03 0.  1.
         11   -1    0    0    0    0 -0.00000000000E+00 -0.00000000000E+00 -0.45593999997E+02  0.45594000000E+02  0.51100000000E-03 0. -1.
    9900012    2    1    2    0    0 -0.71975808611E+01 -0.18325144337E+02  0.38678252452E+02  0.47787270767E+02  0.19999998735E+02 0.  0.
         12    1    1    2    0    0  0.71975808611E+01  0.18325144337E+02 -0.38678252452E+02  0.43400729233E+02  0.00000000000E+00 0. -1.
         11    1    3    3    0    0  0.34547463728E+01 -0.69480012740E+00  0.26913005764E+01  0.44340860130E+01  0.51100000000E-03 0. -1.
        -11    1    3    3    0    0  0.16748505312E+01 -0.10633601419E+01  0.98257231697E+01  0.10024005944E+02  0.51100000000E-03 0.  1.
        -12    1    3    3    0    0 -0.12327177765E+02 -0.16566984067E+02  0.26161228706E+02  0.33329178810E+02  0.00000000000E+00 0.  1.
</event>
<event>
 7    1  0.1418970E-010  0.4778728E+02  0.7816164E-02  0.1312668E+00
        -11   -1    0    0    0    0  0.00000000000E+00  0.00000000000E+00  0.45593999997E+02  0.45594000000E+02  0.51100000000E-03 0. -1.
         11   -1    0    0    0    0 -0.00000000000E+00 -0.00000000000E+00 -0.45593999997E+02  0.45594000000E+02  0.51100000000E-03 0.  1.
    9900012    2    1    2    0    0 -0.19055074279E+02 -0.17019870837E+02 -0.35083486638E+02  0.47787275424E+02  0.20000019968E+02 0.  0.
         12    1    1    2    0    0  0.19055074279E+02  0.17019870837E+02  0.35083486638E+02  0.43400724576E+02  0.00000000000E+00 0. -1.
         11    1    3    3    0    0 -0.11434384801E+01 -0.81564669710E-01  0.90208985499E+00  0.14587222904E+01  0.51100000000E-03 0. -1.
        -11    1    3    3    0    0 -0.44135903255E+01 -0.51657724449E+01 -0.23584674475E+02  0.24543876118E+02  0.51100000000E-03 0.  1.
        -12    1    3    3    0    0 -0.13498045473E+02 -0.11772533722E+02 -0.12400902017E+02  0.21784677016E+02  0.00000000000E+00 0.  1.
</event>
<event>
 7    1  0.1418970E-010  0.4778727E+02  0.7816164E-02  0.1312668E+00
        -11   -1    0    0    0    0  0.00000000000E+00  0.00000000000E+00  0.45593999997E+02  0.45594000000E+02  0.51100000000E-03 0.  1.
         11   -1    0    0    0    0 -0.00000000000E+00 -0.00000000000E+00 -0.45593999997E+02  0.45594000000E+02  0.51100000000E-03 0. -1.
    9900012    2    1    2    0    0 -0.26442361303E+01  0.37000822242E+02  0.22529323819E+02  0.47787271169E+02  0.20000000569E+02 0.  0.
         12    1    1    2    0    0  0.26442361303E+01 -0.37000822242E+02 -0.22529323819E+02  0.43400728831E+02  0.00000000000E+00 0. -1.
         11    1    3    3    0    0 -0.40283223549E+01  0.17623834354E+02  0.28578998612E+01  0.18302855247E+02  0.51100000000E-03 0. -1.
        -11    1    3    3    0    0  0.10505235563E+01  0.88824717909E+01  0.23814420057E+01  0.92559802909E+01  0.51100000000E-03 0.  1.
         12    1    3    3    0    0  0.33356266828E+00  0.10494516097E+02  0.17289981952E+02  0.20228435631E+02  0.00000000000E+00 0. -1.
</event>
<event>
 7    1  0.1418970E-010  0.4778727E+02  0.7816164E-02  0.1312668E+00
        -11   -1    0    0    0    0  0.00000000000E+00  0.00000000000E+00  0.45593999997E+02  0.45594000000E+02  0.51100000000E-03 0.  1.
         11   -1    0    0    0    0 -0.00000000000E+00 -0.00000000000E+00 -0.45593999997E+02  0.45594000000E+02  0.51100000000E-03 0. -1.
    9900012    2    1    2    0    0  0.54531496423E+01 -0.25985142481E+02  0.34331599150E+02  0.47787272230E+02  0.20000005407E+02 0.  0.
         12    1    1    2    0    0 -0.54531496423E+01  0.25985142481E+02 -0.34331599150E+02  0.43400727770E+02  0.00000000000E+00 0. -1.
         11    1    3    3    0    0 -0.30086399892E+00 -0.62484984799E+01  0.98059850493E+00  0.63321265060E+01  0.51100000000E-03 0. -1.
        -11    1    3    3    0    0 -0.27737017850E+01 -0.78836977290E+01  0.54890585718E+01  0.99987937143E+01  0.51100000000E-03 0.  1.
        -12    1    3    3    0    0  0.85277154262E+01 -0.11852946272E+02  0.27861942073E+02  0.31456352010E+02  0.00000000000E+00 0.  1.
</event>
<event>
 7    1  0.1418970E-010  0.4778727E+02  0.7816164E-02  0.1312668E+00
        -11   -1    0    0    0    0  0.00000000000E+00  0.00000000000E+00  0.45593999997E+02  0.45594000000E+02  0.51100000000E-03 0. -1.
         11   -1    0    0    0    0 -0.00000000000E+00 -0.00000000000E+00 -0.45593999997E+02  0.45594000000E+02  0.51100000000E-03 0.  1.
    9900012    2    1    2    0    0  0.18495622284E+02  0.34092315252E+02 -0.19474328923E+02  0.47787268556E+02  0.19999988654E+02 0.  0.
         12    1    1    2    0    0 -0.18495622284E+02 -0.34092315252E+02  0.19474328923E+02  0.43400731444E+02  0.00000000000E+00 0. -1.
         11    1    3    3    0    0  0.22492515559E+00  0.15697406476E+02 -0.59342427439E+01  0.16783158183E+02  0.51100000000E-03 0. -1.
        -11    1    3    3    0    0  0.62117896301E+01  0.28519850292E+01  0.47234189219E+00  0.68515148792E+01  0.51100000000E-03 0.  1.
         12    1    3    3    0    0  0.12058907498E+02  0.15542923747E+02 -0.14012428071E+02  0.24152595494E+02  0.00000000000E+00 0. -1.
</event>
<event>
 7    1  0.1418970E-010  0.4778727E+02  0.7816164E-02  0.1312668E+00
        -11   -1    0    0    0    0  0.00000000000E+00  0.00000000000E+00  0.45593999997E+02  0.45594000000E+02  0.51100000000E-03 0.  1.
         11   -1    0    0    0    0 -0.00000000000E+00 -0.00000000000E+00 -0.45593999997E+02  0.45594000000E+02  0.51100000000E-03 0. -1.
    9900012    2    1    2    0    0  0.29863056664E+02  0.31462387871E+02 -0.13925971682E+01  0.47787270390E+02  0.19999997015E+02 0.  0.
         12    1    1    2    0    0 -0.29863056664E+02 -0.31462387871E+02  0.13925971682E+01  0.43400729610E+02  0.00000000000E+00 0. -1.
         11    1    3    3    0    0 -0.56965673530E+00  0.28956084986E+01 -0.27398598865E+01  0.40268958060E+01  0.51100000000E-03 0. -1.
        -11    1    3    3    0    0  0.25019173264E+02  0.26447531591E+02 -0.29576844848E+01  0.36526413126E+02  0.51100000000E-03 0.  1.
         12    1    3    3    0    0  0.54135401354E+01  0.21192477811E+01  0.43049472031E+01  0.72339614581E+01  0.00000000000E+00 0. -1.
</event>
<event>
 7    1  0.1418970E-010  0.4778727E+02  0.7816164E-02  0.1312668E+00
        -11   -1    0    0    0    0  0.00000000000E+00  0.00000000000E+00  0.45593999997E+02  0.45594000000E+02  0.51100000000E-03 0.  1.
         11   -1    0    0    0    0 -0.00000000000E+00 -0.00000000000E+00 -0.45593999997E+02  0.45594000000E+02  0.51100000000E-03 0. -1.
    9900012    2    1    2    0    0  0.24160449885E+02  0.28670496752E+02  0.21860889096E+02  0.47787271956E+02  0.20000004157E+02 0.  0.
         12    1    1    2    0    0 -0.24160449885E+02 -0.28670496752E+02 -0.21860889096E+02  0.43400728044E+02  0.00000000000E+00 0. -1.
         11    1    3    3    0    0 -0.96591990163E+00 -0.67739183011E+00  0.24467998899E+01  0.27163745894E+01  0.51100000000E-03 0. -1.
        -11    1    3    3    0    0  0.17587134537E+02  0.10850721522E+02  0.89292672946E+01  0.22511714138E+02  0.51100000000E-03 0.  1.
         12    1    3    3    0    0  0.75392352500E+01  0.18497167061E+02  0.10484821911E+02  0.22559183229E+02  0.00000000000E+00 0. -1.
</event>
<event>
 7    1  0.1418970E-010  0.4778727E+02  0.7816164E-02  0.1312668E+00
        -11   -1    0    0    0    0  0.00000000000E+00  0.00000000000E+00  0.45593999997E+02  0.45594000000E+02  0.51100000000E-03 0.  1.
         11   -1    0    0    0    0 -0.00000000000E+00 -0.00000000000E+00 -0.45593999997E+02  0.45594000000E+02  0.51100000000E-03 0. -1.
    9900012    2    1    2    0    0  0.16355978663E+01 -0.18197919024E+02  0.39367295729E+02  0.47787269474E+02  0.19999992838E+02 0.  0.
         12    1    1    2    0    0 -0.16355978663E+01  0.18197919024E+02 -0.39367295729E+02  0.43400730526E+02  0.00000000000E+00 0. -1.
         11    1    3    3    0    0  0.80235512880E+01 -0.22382746866E+01  0.18890161683E+02  0.20645228444E+02  0.51100000000E-03 0. -1.
        -11    1    3    3    0    0 -0.25270540145E+01 -0.71587542254E+01  0.12624490036E+02  0.14731310634E+02  0.51100000000E-03 0.  1.
         12    1    3    3    0    0 -0.38608994072E+01 -0.88008901122E+01  0.78526440097E+01  0.12410730395E+02  0.00000000000E+00 0. -1.
</event>
<event>
 7    1  0.1418970E-010  0.4778725E+02  0.7816164E-02  0.1312668E+00
        -11   -1    0    0    0    0  0.00000000000E+00  0.00000000000E+00  0.45593999997E+02  0.45594000000E+02  0.51100000000E-03 0.  1.
         11   -1    0    0    0    0 -0.00000000000E+00 -0.00000000000E+00 -0.45593999997E+02  0.45594000000E+02  0.51100000000E-03 0. -1.
    9900012    2    1    2    0    0  0.23909884093E+02  0.25622117121E+02  0.25601749302E+02  0.47787251038E+02  0.19999908783E+02 0.  0.
         12    1    1    2    0    0 -0.23909884093E+02 -0.25622117121E+02 -0.25601749302E+02  0.43400748962E+02  0.00000000000E+00 0. -1.
         11    1    3    3    0    0  0.34923299911E+01  0.27678567059E+01 -0.96330476037E+00  0.45590959447E+01  0.51100000000E-03 0. -1.
        -11    1    3    3    0    0  0.12845682799E+02  0.13630786528E+02  0.24931978383E+02  0.31183544608E+02  0.51100000000E-03 0.  1.
         12    1    3    3    0    0  0.75718713033E+01  0.92234738870E+01  0.16330756795E+01  0.12044610486E+02  0.00000000000E+00 0. -1.
</event>
<event>
 7    1  0.1418970E-010  0.4778727E+02  0.7816164E-02  0.1312668E+00
        -11   -1    0    0    0    0  0.00000000000E+00  0.00000000000E+00  0.45593999997E+02  0.45594000000E+02  0.51100000000E-03 0.  1.
         11   -1    0    0    0    0 -0.00000000000E+00 -0.00000000000E+00 -0.45593999997E+02  0.45594000000E+02  0.51100000000E-03 0. -1.
    9900012    2    1    2    0    0 -0.33708123398E+02  0.29296694372E-01  0.27338340446E+02  0.47787270747E+02  0.19999998645E+02 0.  0.
         12    1    1    2    0    0  0.33708123398E+02 -0.29296694372E-01 -0.27338340446E+02  0.43400729253E+02  0.00000000000E+00 0. -1.
         11    1    3    3    0    0 -0.12165703974E+02 -0.47104614439E+01  0.95974781319E+01  0.16195813871E+02  0.51100000000E-03 0. -1.
        -11    1    3    3    0    0 -0.18491565678E+02  0.83557923275E+01  0.10255158109E+02  0.22735996454E+02  0.51100000000E-03 0.  1.
         12    1    3    3    0    0 -0.30508537461E+01 -0.36160341892E+01  0.74857042055E+01  0.88554604222E+01  0.00000000000E+00 0. -1.
</event>
<event>
 7    1  0.1418970E-010  0.4778727E+02  0.7816164E-02  0.1312668E+00
        -11   -1    0    0    0    0  0.00000000000E+00  0.00000000000E+00  0.45593999997E+02  0.45594000000E+02  0.51100000000E-03 0. -1.
         11   -1    0    0    0    0 -0.00000000000E+00 -0.00000000000E+00 -0.45593999997E+02  0.45594000000E+02  0.51100000000E-03 0.  1.
    9900012    2    1    2    0    0  0.26948357085E+02 -0.31710612831E+02 -0.12322590951E+02  0.47787272317E+02  0.20000005801E+02 0.  0.
         12    1    1    2    0    0 -0.26948357085E+02  0.31710612831E+02  0.12322590951E+02  0.43400727683E+02  0.00000000000E+00 0. -1.
         11    1    3    3    0    0  0.12639024689E+02 -0.53082421133E+01 -0.10919558200E+01  0.13751899767E+02  0.51100000000E-03 0. -1.
        -11    1    3    3    0    0  0.10298400025E+02 -0.19415782869E+02 -0.24421059538E+01  0.22113198531E+02  0.51100000000E-03 0.  1.
         12    1    3    3    0    0  0.40109323702E+01 -0.69865878489E+01 -0.87885291770E+01  0.11922174019E+02  0.00000000000E+00 0. -1.
</event>
<event>
 7    1  0.1418970E-010  0.4778727E+02  0.7816164E-02  0.1312668E+00
        -11   -1    0    0    0    0  0.00000000000E+00  0.00000000000E+00  0.45593999997E+02  0.45594000000E+02  0.51100000000E-03 0. -1.
         11   -1    0    0    0    0 -0.00000000000E+00 -0.00000000000E+00 -0.45593999997E+02  0.45594000000E+02  0.51100000000E-03 0.  1.
    9900012    2    1    2    0    0 -0.26325229202E+02 -0.61144032541E+01 -0.33959086613E+02  0.47787272088E+02  0.20000004759E+02 0.  0.
         12    1    1    2    0    0  0.26325229202E+02  0.61144032541E+01  0.33959086613E+02  0.43400727912E+02  0.00000000000E+00 0. -1.
         11    1    3    3    0    0 -0.10722600058E+02 -0.45465785653E+01 -0.14935625747E+02  0.18939863921E+02  0.51100000000E-03 0.  1.
        -11    1    3    3    0    0 -0.11793158204E+02  0.51214986729E+01 -0.71919136161E+01  0.14732004304E+02  0.51100000000E-03 0. -1.
         12    1    3    3    0    0 -0.38094709392E+01 -0.66893233617E+01 -0.11831547250E+02  0.14115403863E+02  0.00000000000E+00 0. -1.
</event>
<event>
 7    1  0.1418970E-010  0.4778728E+02  0.7816164E-02  0.1312668E+00
        -11   -1    0    0    0    0  0.00000000000E+00  0.00000000000E+00  0.45593999997E+02  0.45594000000E+02  0.51100000000E-03 0. -1.
         11   -1    0    0    0    0 -0.00000000000E+00 -0.00000000000E+00 -0.45593999997E+02  0.45594000000E+02  0.51100000000E-03 0.  1.
    9900012    2    1    2    0    0  0.10334502108E+02 -0.31903623362E+02 -0.27549585174E+02  0.47787276956E+02  0.20000026955E+02 0.  0.
         12    1    1    2    0    0 -0.10334502108E+02  0.31903623362E+02  0.27549585174E+02  0.43400723044E+02  0.00000000000E+00 0. -1.
         11    1    3    3    0    0  0.31527224929E+01 -0.18651618706E+01 -0.47508478705E+01  0.59990869030E+01  0.51100000000E-03 0. -1.
        -11    1    3    3    0    0 -0.33325493328E+00 -0.26823746704E+02 -0.18085560981E+02  0.32352928188E+02  0.51100000000E-03 0.  1.
        -12    1    3    3    0    0  0.75150345479E+01 -0.32147147880E+01 -0.47131763221E+01  0.94352618654E+01  0.00000000000E+00 0.  1.
</event>
<event>
 7    1  0.1418970E-010  0.4778727E+02  0.7816164E-02  0.1312668E+00
        -11   -1    0    0    0    0  0.00000000000E+00  0.00000000000E+00  0.45593999997E+02  0.45594000000E+02  0.51100000000E-03 0.  1.
         11   -1    0    0    0    0 -0.00000000000E+00 -0.00000000000E+00 -0.45593999997E+02  0.45594000000E+02  0.51100000000E-03 0. -1.
    9900012    2    1    2    0    0 -0.41391291954E+01 -0.26006603177E+02  0.34498516855E+02  0.47787268849E+02  0.19999989988E+02 0.  0.
         12    1    1    2    0    0  0.41391291954E+01  0.26006603177E+02 -0.34498516855E+02  0.43400731151E+02  0.00000000000E+00 0. -1.
         11    1    3    3    0    0 -0.53181901987E+01 -0.24859282014E-01  0.56037899528E+01  0.77256861876E+01  0.51100000000E-03 0. -1.
        -11    1    3    3    0    0  0.39308844364E+01 -0.74744349675E+01  0.13045212897E+02  0.15540161207E+02  0.51100000000E-03 0.  1.
        -12    1    3    3    0    0 -0.27518234332E+01 -0.18507308928E+02  0.15849514004E+02  0.24521421454E+02  0.00000000000E+00 0.  1.
</event>
<event>
 7    1  0.1418970E-010  0.4778727E+02  0.7816164E-02  0.1312668E+00
        -11   -1    0    0    0    0  0.00000000000E+00  0.00000000000E+00  0.45593999997E+02  0.45594000000E+02  0.51100000000E-03 0. -1.
         11   -1    0    0    0    0 -0.00000000000E+00 -0.00000000000E+00 -0.45593999997E+02  0.45594000000E+02  0.51100000000E-03 0.  1.
    9900012    2    1    2    0    0 -0.17768604394E+02 -0.35236504931E+02 -0.18063468039E+02  0.47787268906E+02  0.19999990251E+02 0.  0.
         12    1    1    2    0    0  0.17768604394E+02  0.35236504931E+02  0.18063468039E+02  0.43400731094E+02  0.00000000000E+00 0. -1.
         11    1    3    3    0    0 -0.87825946348E+01 -0.21724236976E+02 -0.50923376446E+01  0.23979331593E+02  0.51100000000E-03 0. -1.
        -11    1    3    3    0    0 -0.82523348815E+01 -0.13363680504E+02 -0.14955117273E+02  0.21687427706E+02  0.51100000000E-03 0.  1.
        -12    1    3    3    0    0 -0.73367487740E+00 -0.14858745108E+00  0.19839868785E+01  0.21205096063E+01  0.00000000000E+00 0.  1.
</event>
<event>
 7    1  0.1418970E-010  0.4778728E+02  0.7816164E-02  0.1312668E+00
        -11   -1    0    0    0    0  0.00000000000E+00  0.00000000000E+00  0.45593999997E+02  0.45594000000E+02  0.51100000000E-03 0.  1.
         11   -1    0    0    0    0 -0.00000000000E+00 -0.00000000000E+00 -0.45593999997E+02  0.45594000000E+02  0.51100000000E-03 0. -1.
    9900012    2    1    2    0    0 -0.29886154319E+02 -0.62998224575E+01 -0.30834278005E+02  0.47787277851E+02  0.20000031035E+02 0.  0.
         12    1    1    2    0    0  0.29886154319E+02  0.62998224575E+01  0.30834278005E+02  0.43400722149E+02  0.00000000000E+00 0. -1.
         11    1    3    3    0    0 -0.17033885931E+01 -0.23473994413E+01 -0.38117757635E+01  0.47897235378E+01  0.51100000000E-03 0. -1.
        -11    1    3    3    0    0 -0.15916379546E+01  0.29393164876E+01  0.12585278024E+01  0.35716642176E+01  0.51100000000E-03 0.  1.
        -12    1    3    3    0    0 -0.26591127771E+02 -0.68917395038E+01 -0.28281030044E+02  0.39425890096E+02  0.00000000000E+00 0.  1.
</event>
<event>
 7    1  0.1418970E-010  0.4778728E+02  0.7816164E-02  0.1312668E+00
        -11   -1    0    0    0    0  0.00000000000E+00  0.00000000000E+00  0.45593999997E+02  0.45594000000E+02  0.51100000000E-03 0. -1.
         11   -1    0    0    0    0 -0.00000000000E+00 -0.00000000000E+00 -0.45593999997E+02  0.45594000000E+02  0.51100000000E-03 0.  1.
    9900012    2    1    2    0    0 -0.83689761605E+01 -0.20345993168E+02 -0.37411533982E+02  0.47787284858E+02  0.20000062982E+02 0.  0.
         12    1    1    2    0    0  0.83689761605E+01  0.20345993168E+02  0.37411533982E+02  0.43400715142E+02  0.00000000000E+00 0. -1.
         11    1    3    3    0    0 -0.34729308497E+01 -0.15642801801E+02 -0.22954201402E+02  0.27993818230E+02  0.51100000000E-03 0. -1.
        -11    1    3    3    0    0 -0.86162413501E+01 -0.46598610937E+01 -0.10664828604E+02  0.14480762750E+02  0.51100000000E-03 0.  1.
         12    1    3    3    0    0  0.37201960393E+01 -0.43330273736E-01 -0.37925039760E+01  0.53127038776E+01  0.00000000000E+00 0. -1.
</event>
<event>
 7    1  0.1418970E-010  0.4778727E+02  0.7816164E-02  0.1312668E+00
        -11   -1    0    0    0    0  0.00000000000E+00  0.00000000000E+00  0.45593999997E+02  0.45594000000E+02  0.51100000000E-03 0.  1.
         11   -1    0    0    0    0 -0.00000000000E+00 -0.00000000000E+00 -0.45593999997E+02  0.45594000000E+02  0.51100000000E-03 0. -1.
    9900012    2    1    2    0    0  0.38208161155E+02 -0.13657144803E+02  0.15402663664E+02  0.47787271539E+02  0.20000002256E+02 0.  0.
         12    1    1    2    0    0 -0.38208161155E+02  0.13657144803E+02 -0.15402663664E+02  0.43400728461E+02  0.00000000000E+00 0. -1.
         11    1    3    3    0    0  0.15963303776E+02  0.48888231704E-01  0.80377843318E+01  0.17872756775E+02  0.51100000000E-03 0. -1.
        -11    1    3    3    0    0  0.13786815867E+02 -0.53317316978E+01 -0.18019031606E+01  0.14891289733E+02  0.51100000000E-03 0.  1.
        -12    1    3    3    0    0  0.84580415121E+01 -0.83743013365E+01  0.91667824929E+01  0.15023225032E+02  0.00000000000E+00 0.  1.
</event>
<event>
 7    1  0.1418970E-010  0.4778723E+02  0.7816164E-02  0.1312668E+00
        -11   -1    0    0    0    0  0.00000000000E+00  0.00000000000E+00  0.45593999997E+02  0.45594000000E+02  0.51100000000E-03 0.  1.
         11   -1    0    0    0    0 -0.00000000000E+00 -0.00000000000E+00 -0.45593999997E+02  0.45594000000E+02  0.51100000000E-03 0. -1.
    9900012    2    1    2    0    0 -0.33130571615E+02 -0.12283987505E+01  0.28008633101E+02  0.47787225039E+02  0.19999790241E+02 0.  0.
         12    1    1    2    0    0  0.33130571615E+02  0.12283987505E+01 -0.28008633101E+02  0.43400774961E+02  0.00000000000E+00 0. -1.
         11    1    3    3    0    0 -0.15873688905E+02 -0.50425643914E+01  0.71693105208E+01  0.18132856054E+02  0.51100000000E-03 0. -1.
        -11    1    3    3    0    0 -0.78978392819E+01 -0.37959728647E+01  0.64661203680E+01  0.10890178520E+02  0.51100000000E-03 0.  1.
         12    1    3    3    0    0 -0.93590434283E+01  0.76101385056E+01  0.14373202212E+02  0.18764190465E+02  0.00000000000E+00 0. -1.
</event>
<event>
 7    1  0.1418970E-010  0.4778729E+02  0.7816164E-02  0.1312668E+00
        -11   -1    0    0    0    0  0.00000000000E+00  0.00000000000E+00  0.45593999997E+02  0.45594000000E+02  0.51100000000E-03 0.  1.
         11   -1    0    0    0    0 -0.00000000000E+00 -0.00000000000E+00 -0.45593999997E+02  0.45594000000E+02  0.51100000000E-03 0. -1.
    9900012    2    1    2    0    0  0.95158929922E+01 -0.16695874861E+02  0.38914230482E+02  0.47787288130E+02  0.20000077900E+02 0.  0.
         12    1    1    2    0    0 -0.95158929922E+01  0.16695874861E+02 -0.38914230482E+02  0.43400711870E+02  0.00000000000E+00 0. -1.
         11    1    3    3    0    0  0.12898146132E+02 -0.72813884763E+01  0.28647093169E+02  0.32249600604E+02  0.51100000000E-03 0. -1.
        -11    1    3    3    0    0 -0.13270039928E+01 -0.71671483611E+01  0.10142179196E+02  0.12489705935E+02  0.51100000000E-03 0.  1.
         12    1    3    3    0    0 -0.20552491476E+01 -0.22473380238E+01  0.12495811639E+00  0.30479815916E+01  0.00000000000E+00 0. -1.
</event>
<event>
 7    1  0.1418970E-010  0.4778727E+02  0.7816164E-02  0.1312668E+00
        -11   -1    0    0    0    0  0.00000000000E+00  0.00000000000E+00  0.45593999997E+02  0.45594000000E+02  0.51100000000E-03 0.  1.
         11   -1    0    0    0    0 -0.00000000000E+00 -0.00000000000E+00 -0.45593999997E+02  0.45594000000E+02  0.51100000000E-03 0. -1.
    9900012    2    1    2    0    0  0.31638300880E+02 -0.11667132796E+02  0.27322500722E+02  0.47787272864E+02  0.20000008298E+02 0.  0.
         12    1    1    2    0    0 -0.31638300880E+02  0.11667132796E+02 -0.27322500722E+02  0.43400727136E+02  0.00000000000E+00 0. -1.
         11    1    3    3    0    0  0.21157837650E+02  0.15113324032E+01  0.16540415985E+02  0.26898393648E+02  0.51100000000E-03 0. -1.
        -11    1    3    3    0    0  0.10375713942E+02 -0.92061421792E+01  0.89910211314E+01  0.16530183147E+02  0.51100000000E-03 0.  1.
         12    1    3    3    0    0  0.10474928832E+00 -0.39723230198E+01  0.17910636053E+01  0.43586960693E+01  0.00000000000E+00 0. -1.
</event>
<event>
 7    1  0.1418970E-010  0.4778727E+02  0.7816164E-02  0.1312668E+00
        -11   -1    0    0    0    0  0.00000000000E+00  0.00000000000E+00  0.45593999997E+02  0.45594000000E+02  0.51100000000E-03 0.  1.
         11   -1    0    0    0    0 -0.00000000000E+00 -0.00000000000E+00 -0.45593999997E+02  0.45594000000E+02  0.51100000000E-03 0. -1.
    9900012    2    1    2    0    0 -0.19773937582E+02  0.17373672576E+02  0.34507533474E+02  0.47787274514E+02  0.20000015819E+02 0.  0.
         12    1    1    2    0    0  0.19773937582E+02 -0.17373672576E+02 -0.34507533474E+02  0.43400725486E+02  0.00000000000E+00 0. -1.
         11    1    3    3    0    0 -0.12738954357E+01  0.78180976882E+00  0.94196828436E+01  0.95375290946E+01  0.51100000000E-03 0. -1.
        -11    1    3    3    0    0 -0.91393498501E+01  0.14328246610E+02  0.22647372917E+02  0.28314834749E+02  0.51100000000E-03 0.  1.
        -12    1    3    3    0    0 -0.93606922959E+01  0.22636161972E+01  0.24404777136E+01  0.99349106699E+01  0.00000000000E+00 0.  1.
</event>
<event>
 7    1  0.1418970E-010  0.4778728E+02  0.7816164E-02  0.1312668E+00
        -11   -1    0    0    0    0  0.00000000000E+00  0.00000000000E+00  0.45593999997E+02  0.45594000000E+02  0.51100000000E-03 0. -1.
         11   -1    0    0    0    0 -0.00000000000E+00 -0.00000000000E+00 -0.45593999997E+02  0.45594000000E+02  0.51100000000E-03 0.  1.
    9900012    2    1    2    0    0  0.36501427688E+02  0.23336729757E+02 -0.25818115509E+01  0.47787275007E+02  0.20000018066E+02 0.  0.
         12    1    1    2    0    0 -0.36501427688E+02 -0.23336729757E+02  0.25818115509E+01  0.43400724993E+02  0.00000000000E+00 0. -1.
         11    1    3    3    0    0  0.22906079652E+02  0.97384114074E+01  0.28333373707E+01  0.25051006820E+02  0.51100000000E-03 0. -1.
        -11    1    3    3    0    0  0.97265743604E+01  0.12772325288E+02 -0.30032008536E-01  0.16054265608E+02  0.51100000000E-03 0.  1.
         12    1    3    3    0    0  0.38687736758E+01  0.82599306208E+00 -0.53851169131E+01  0.66820025786E+01  0.00000000000E+00 0. -1.
</event>
<event>
 7    1  0.1418970E-010  0.4778726E+02  0.7816164E-02  0.1312668E+00
        -11   -1    0    0    0    0  0.00000000000E+00  0.00000000000E+00  0.45593999997E+02  0.45594000000E+02  0.51100000000E-03 0. -1.
         11   -1    0    0    0    0 -0.00000000000E+00 -0.00000000000E+00 -0.45593999997E+02  0.45594000000E+02  0.51100000000E-03 0.  1.
    9900012    2    1    2    0    0 -0.11009781500E+02  0.39523427683E+02 -0.14153014265E+02  0.47787257641E+02  0.19999938888E+02 0.  0.
         12    1    1    2    0    0  0.11009781500E+02 -0.39523427683E+02  0.14153014265E+02  0.43400742359E+02  0.00000000000E+00 0. -1.
         11    1    3    3    0    0 -0.94105142397E+01  0.10628631265E+02 -0.30840843095E+01  0.14527117991E+02  0.51100000000E-03 0. -1.
        -11    1    3    3    0    0 -0.28606378716E+01  0.26925688713E+02 -0.60815973140E+01  0.27751788912E+02  0.51100000000E-03 0.  1.
        -12    1    3    3    0    0  0.12613706108E+01  0.19691077053E+01 -0.49873326415E+01  0.55083507377E+01  0.00000000000E+00 0.  1.
</event>
<event>
 7    1  0.1418970E-010  0.4778727E+02  0.7816164E-02  0.1312668E+00
        -11   -1    0    0    0    0  0.00000000000E+00  0.00000000000E+00  0.45593999997E+02  0.45594000000E+02  0.51100000000E-03 0. -1.
         11   -1    0    0    0    0 -0.00000000000E+00 -0.00000000000E+00 -0.45593999997E+02  0.45594000000E+02  0.51100000000E-03 0.  1.
    9900012    2    1    2    0    0  0.35713424699E+02  0.24016589835E+02  0.56016052988E+01  0.47787271055E+02  0.20000000049E+02 0.  0.
         12    1    1    2    0    0 -0.35713424699E+02 -0.24016589835E+02 -0.56016052988E+01  0.43400728945E+02  0.00000000000E+00 0. -1.
         11    1    3    3    0    0 -0.43258545649E+00  0.42685283515E+01 -0.35692780293E+01  0.55809685876E+01  0.51100000000E-03 0. -1.
        -11    1    3    3    0    0  0.11877781752E+02  0.69527328103E+01  0.30920955309E+01  0.14106142205E+02  0.51100000000E-03 0.  1.
         12    1    3    3    0    0  0.24268228404E+02  0.12795328673E+02  0.60787877971E+01  0.28100160262E+02  0.00000000000E+00 0. -1.
</event>
<event>
 7    1  0.1418970E-010  0.4778727E+02  0.7816164E-02  0.1312668E+00
        -11   -1    0    0    0    0  0.00000000000E+00  0.00000000000E+00  0.45593999997E+02  0.45594000000E+02  0.51100000000E-03 0. -1.
         11   -1    0    0    0    0 -0.00000000000E+00 -0.00000000000E+00 -0.45593999997E+02  0.45594000000E+02  0.51100000000E-03 0.  1.
    9900012    2    1    2    0    0 -0.11978119412E+02  0.37699133926E+02 -0.17858423297E+02  0.47787270443E+02  0.19999997258E+02 0.  0.
         12    1    1    2    0    0  0.11978119412E+02 -0.37699133926E+02  0.17858423297E+02  0.43400729557E+02  0.00000000000E+00 0. -1.
         11    1    3    3    0    0 -0.73468564313E+01  0.66291422062E+01 -0.54447325514E+01  0.11294553494E+02  0.51100000000E-03 0. -1.
        -11    1    3    3    0    0 -0.70672313572E+01  0.23656756786E+02 -0.39899544020E+01  0.25010150681E+02  0.51100000000E-03 0.  1.
         12    1    3    3    0    0  0.24359683763E+01  0.74132349331E+01 -0.84237363437E+01  0.11482566268E+02  0.00000000000E+00 0. -1.
</event>
<event>
 7    1  0.1418970E-010  0.4778727E+02  0.7816164E-02  0.1312668E+00
        -11   -1    0    0    0    0  0.00000000000E+00  0.00000000000E+00  0.45593999997E+02  0.45594000000E+02  0.51100000000E-03 0.  1.
         11   -1    0    0    0    0 -0.00000000000E+00 -0.00000000000E+00 -0.45593999997E+02  0.45594000000E+02  0.51100000000E-03 0. -1.
    9900012    2    1    2    0    0  0.12579779524E+02 -0.33308739036E+02  0.24817342931E+02  0.47787268909E+02  0.19999990266E+02 0.  0.
         12    1    1    2    0    0 -0.12579779524E+02  0.33308739036E+02 -0.24817342931E+02  0.43400731091E+02  0.00000000000E+00 0. -1.
         11    1    3    3    0    0  0.53927980198E+01 -0.34701774313E+01  0.27037643810E+00  0.64185283022E+01  0.51100000000E-03 0. -1.
        -11    1    3    3    0    0 -0.10870870483E+01 -0.61413886901E+01 -0.34049376784E-01  0.62369522136E+01  0.51100000000E-03 0.  1.
        -12    1    3    3    0    0  0.82740685527E+01 -0.23697172914E+02  0.24581015870E+02  0.35131788394E+02  0.00000000000E+00 0.  1.
</event>
<event>
 7    1  0.1418970E-010  0.4778727E+02  0.7816164E-02  0.1312668E+00
        -11   -1    0    0    0    0  0.00000000000E+00  0.00000000000E+00  0.45593999997E+02  0.45594000000E+02  0.51100000000E-03 0.  1.
         11   -1    0    0    0    0 -0.00000000000E+00 -0.00000000000E+00 -0.45593999997E+02  0.45594000000E+02  0.51100000000E-03 0. -1.
    9900012    2    1    2    0    0  0.13714003676E+02  0.61731051188E+01  0.40711696045E+02  0.47787270531E+02  0.19999997658E+02 0.  0.
         12    1    1    2    0    0 -0.13714003676E+02 -0.61731051188E+01 -0.40711696045E+02  0.43400729469E+02  0.00000000000E+00 0. -1.
         11    1    3    3    0    0 -0.32364056280E+01 -0.21786801784E+01  0.99732401082E+01  0.10709177710E+02  0.51100000000E-03 0. -1.
        -11    1    3    3    0    0  0.81098119912E+01 -0.32604277288E+00  0.95406480659E+01  0.12525945880E+02  0.51100000000E-03 0.  1.
        -12    1    3    3    0    0  0.88405973123E+01  0.86778280700E+01  0.21197807871E+02  0.24552146940E+02  0.00000000000E+00 0.  1.
</event>
<event>
 7    1  0.1418970E-010  0.4778727E+02  0.7816164E-02  0.1312668E+00
        -11   -1    0    0    0    0  0.00000000000E+00  0.00000000000E+00  0.45593999997E+02  0.45594000000E+02  0.51100000000E-03 0.  1.
         11   -1    0    0    0    0 -0.00000000000E+00 -0.00000000000E+00 -0.45593999997E+02  0.45594000000E+02  0.51100000000E-03 0. -1.
    9900012    2    1    2    0    0 -0.46708371641E+01  0.12255319012E+01  0.43131250048E+02  0.47787269834E+02  0.19999994481E+02 0.  0.
         12    1    1    2    0    0  0.46708371641E+01 -0.12255319012E+01 -0.43131250048E+02  0.43400730166E+02  0.00000000000E+00 0. -1.
         11    1    3    3    0    0  0.62317230472E+01  0.22759734213E+01  0.13284287372E+02  0.14848795183E+02  0.51100000000E-03 0. -1.
        -11    1    3    3    0    0 -0.48603854580E+01  0.24995272097E+01  0.20735777798E+02  0.21443961020E+02  0.51100000000E-03 0.  1.
        -12    1    3    3    0    0 -0.60421747533E+01 -0.35499687298E+01  0.91111848784E+01  0.11494513631E+02  0.00000000000E+00 0.  1.
</event>
<event>
 7    1  0.1418970E-010  0.4778727E+02  0.7816164E-02  0.1312668E+00
        -11   -1    0    0    0    0  0.00000000000E+00  0.00000000000E+00  0.45593999997E+02  0.45594000000E+02  0.51100000000E-03 0.  1.
         11   -1    0    0    0    0 -0.00000000000E+00 -0.00000000000E+00 -0.45593999997E+02  0.45594000000E+02  0.51100000000E-03 0. -1.
    9900012    2    1    2    0    0 -0.28774811436E+02  0.31340149733E+02 -0.85690539395E+01  0.47787269086E+02  0.19999991069E+02 0.  0.
         12    1    1    2    0    0  0.28774811436E+02 -0.31340149733E+02  0.85690539395E+01  0.43400730914E+02  0.00000000000E+00 0. -1.
         11    1    3    3    0    0 -0.12059239685E+02  0.62592270054E+01 -0.58986079694E+01  0.14812047823E+02  0.51100000000E-03 0.  1.
        -11    1    3    3    0    0 -0.16131262305E+02  0.25205535397E+02 -0.52018549017E+01  0.30374264318E+02  0.51100000000E-03 0. -1.
         12    1    3    3    0    0 -0.58430944609E+00 -0.12461266920E+00  0.25314089316E+01  0.26009569441E+01  0.00000000000E+00 0. -1.
</event>
<event>
 7    1  0.1418970E-010  0.4778728E+02  0.7816164E-02  0.1312668E+00
        -11   -1    0    0    0    0  0.00000000000E+00  0.00000000000E+00  0.45593999997E+02  0.45594000000E+02  0.51100000000E-03 0.  1.
         11   -1    0    0    0    0 -0.00000000000E+00 -0.00000000000E+00 -0.45593999997E+02  0.45594000000E+02  0.51100000000E-03 0. -1.
    9900012    2    1    2    0    0 -0.45721929255E+01 -0.23087999287E+02  0.36464529075E+02  0.47787279501E+02  0.20000038555E+02 0.  0.
         12    1    1    2    0    0  0.45721929255E+01  0.23087999287E+02 -0.36464529075E+02  0.43400720499E+02  0.00000000000E+00 0. -1.
         11    1    3    3    0    0 -0.14490766113E+01 -0.40622611917E+01 -0.14666670640E+01  0.45555352652E+01  0.51100000000E-03 0. -1.
        -11    1    3    3    0    0 -0.44456517824E+01 -0.54642741995E+01  0.14667263144E+02  0.16271162241E+02  0.51100000000E-03 0.  1.
        -12    1    3    3    0    0  0.13225354682E+01 -0.13561463896E+02  0.23263932995E+02  0.26960581994E+02  0.00000000000E+00 0.  1.
</event>
<event>
 7    1  0.1418970E-010  0.4778727E+02  0.7816164E-02  0.1312668E+00
        -11   -1    0    0    0    0  0.00000000000E+00  0.00000000000E+00  0.45593999997E+02  0.45594000000E+02  0.51100000000E-03 0.  1.
         11   -1    0    0    0    0 -0.00000000000E+00 -0.00000000000E+00 -0.45593999997E+02  0.45594000000E+02  0.51100000000E-03 0. -1.
    9900012    2    1    2    0    0 -0.23168538880E+02 -0.13729430973E+01  0.36673656243E+02  0.47787271564E+02  0.20000002367E+02 0.  0.
         12    1    1    2    0    0  0.23168538880E+02  0.13729430973E+01 -0.36673656243E+02  0.43400728436E+02  0.00000000000E+00 0. -1.
         11    1    3    3    0    0  0.65931487278E+00  0.10333171787E+01  0.51521518060E+01  0.52959521322E+01  0.51100000000E-03 0. -1.
        -11    1    3    3    0    0 -0.25388883362E+02 -0.43923377468E-01  0.29912375216E+02  0.39234519482E+02  0.51100000000E-03 0.  1.
        -12    1    3    3    0    0  0.15610296092E+01 -0.23623368985E+01  0.16091292209E+01  0.32567999497E+01  0.00000000000E+00 0.  1.
</event>
<event>
 7    1  0.1418970E-010  0.4778728E+02  0.7816164E-02  0.1312668E+00
        -11   -1    0    0    0    0  0.00000000000E+00  0.00000000000E+00  0.45593999997E+02  0.45594000000E+02  0.51100000000E-03 0.  1.
         11   -1    0    0    0    0 -0.00000000000E+00 -0.00000000000E+00 -0.45593999997E+02  0.45594000000E+02  0.51100000000E-03 0. -1.
    9900012    2    1    2    0    0 -0.23097676919E+02  0.13653047804E+02  0.34113259678E+02  0.47787275591E+02  0.20000020729E+02 0.  0.
         12    1    1    2    0    0  0.23097676919E+02 -0.13653047804E+02 -0.34113259678E+02  0.43400724409E+02  0.00000000000E+00 0. -1.
         11    1    3    3    0    0 -0.24827619881E+02  0.67739331213E+01  0.27260001763E+02  0.37488725976E+02  0.51100000000E-03 0. -1.
        -11    1    3    3    0    0 -0.54438429136E+00  0.37265637645E+01  0.28907432414E+01  0.47476339893E+01  0.51100000000E-03 0.  1.
         12    1    3    3    0    0  0.22743272538E+01  0.31525509179E+01  0.39625146734E+01  0.55509156257E+01  0.00000000000E+00 0. -1.
</event>
<event>
 7    1  0.1418970E-010  0.4778727E+02  0.7816164E-02  0.1312668E+00
        -11   -1    0    0    0    0  0.00000000000E+00  0.00000000000E+00  0.45593999997E+02  0.45594000000E+02  0.51100000000E-03 0.  1.
         11   -1    0    0    0    0 -0.00000000000E+00 -0.00000000000E+00 -0.45593999997E+02  0.45594000000E+02  0.51100000000E-03 0. -1.
    9900012    2    1    2    0    0  0.28561628962E+02  0.72460324651E+01  0.31864580739E+02  0.47787272573E+02  0.20000006971E+02 0.  0.
         12    1    1    2    0    0 -0.28561628962E+02 -0.72460324651E+01 -0.31864580739E+02  0.43400727427E+02  0.00000000000E+00 0. -1.
         11    1    3    3    0    0 -0.64877745131E-02 -0.22670670959E+01  0.10834098803E+01  0.25126505006E+01  0.51100000000E-03 0. -1.
        -11    1    3    3    0    0  0.13936919902E+02  0.99011940996E+01  0.23120645205E+02  0.28754749449E+02  0.51100000000E-03 0.  1.
        -12    1    3    3    0    0  0.14631196835E+02 -0.38809453860E+00  0.76605256545E+01  0.16519872624E+02  0.00000000000E+00 0.  1.
</event>
<event>
 7    1  0.1418970E-010  0.4778727E+02  0.7816164E-02  0.1312668E+00
        -11   -1    0    0    0    0  0.00000000000E+00  0.00000000000E+00  0.45593999997E+02  0.45594000000E+02  0.51100000000E-03 0.  1.
         11   -1    0    0    0    0 -0.00000000000E+00 -0.00000000000E+00 -0.45593999997E+02  0.45594000000E+02  0.51100000000E-03 0. -1.
    9900012    2    1    2    0    0 -0.12742778979E+02 -0.78787179852E+01  0.40732919593E+02  0.47787270147E+02  0.19999995909E+02 0.  0.
         12    1    1    2    0    0  0.12742778979E+02  0.78787179852E+01 -0.40732919593E+02  0.43400729853E+02  0.00000000000E+00 0. -1.
         11    1    3    3    0    0 -0.12505168943E+02 -0.37664064952E+00  0.29534966849E+02  0.32075463762E+02  0.51100000000E-03 0. -1.
        -11    1    3    3    0    0 -0.37524681406E+01 -0.62498666564E+01  0.74374666332E+01  0.10414305572E+02  0.51100000000E-03 0.  1.
         12    1    3    3    0    0  0.35148581047E+01 -0.12522106792E+01  0.37604861101E+01  0.52975008132E+01  0.00000000000E+00 0. -1.
</event>
<event>
 7    1  0.1418970E-010  0.4778727E+02  0.7816164E-02  0.1312668E+00
        -11   -1    0    0    0    0  0.00000000000E+00  0.00000000000E+00  0.45593999997E+02  0.45594000000E+02  0.51100000000E-03 0.  1.
         11   -1    0    0    0    0 -0.00000000000E+00 -0.00000000000E+00 -0.45593999997E+02  0.45594000000E+02  0.51100000000E-03 0. -1.
    9900012    2    1    2    0    0 -0.21913871241E+02 -0.13429656460E+02  0.34972131277E+02  0.47787269690E+02  0.19999993822E+02 0.  0.
         12    1    1    2    0    0  0.21913871241E+02  0.13429656460E+02 -0.34972131277E+02  0.43400730310E+02  0.00000000000E+00 0. -1.
         11    1    3    3    0    0 -0.33225370723E+01 -0.58899058688E+00 -0.11774458576E+01  0.35738692641E+01  0.51100000000E-03 0. -1.
        -11    1    3    3    0    0 -0.13235023279E+02 -0.20281121117E+01  0.18884963976E+02  0.23149966405E+02  0.51100000000E-03 0.  1.
         12    1    3    3    0    0 -0.53563108900E+01 -0.10812553762E+02  0.17264613159E+02  0.21063434020E+02  0.00000000000E+00 0. -1.
</event>
<event>
 7    1  0.1418970E-010  0.4778726E+02  0.7816164E-02  0.1312668E+00
        -11   -1    0    0    0    0  0.00000000000E+00  0.00000000000E+00  0.45593999997E+02  0.45594000000E+02  0.51100000000E-03 0.  1.
         11   -1    0    0    0    0 -0.00000000000E+00 -0.00000000000E+00 -0.45593999997E+02  0.45594000000E+02  0.51100000000E-03 0. -1.
    9900012    2    1    2    0    0  0.22422792188E+02  0.17385087868E+02  0.32842068054E+02  0.47787258950E+02  0.19999944855E+02 0.  0.
         12    1    1    2    0    0 -0.22422792188E+02 -0.17385087868E+02 -0.32842068054E+02  0.43400741050E+02  0.00000000000E+00 0. -1.
         11    1    3    3    0    0  0.20051914599E+02  0.57619258342E+01  0.24052014875E+02  0.31839888319E+02  0.51100000000E-03 0. -1.
        -11    1    3    3    0    0  0.42347654960E+01  0.75802140452E+01  0.69837851624E+01  0.11142986100E+02  0.51100000000E-03 0.  1.
         12    1    3    3    0    0 -0.18638879064E+01  0.40429479883E+01  0.18062680166E+01  0.48043845300E+01  0.00000000000E+00 0. -1.
</event>
<event>
 7    1  0.1418970E-010  0.4778727E+02  0.7816164E-02  0.1312668E+00
        -11   -1    0    0    0    0  0.00000000000E+00  0.00000000000E+00  0.45593999997E+02  0.45594000000E+02  0.51100000000E-03 0.  1.
         11   -1    0    0    0    0 -0.00000000000E+00 -0.00000000000E+00 -0.45593999997E+02  0.45594000000E+02  0.51100000000E-03 0. -1.
    9900012    2    1    2    0    0 -0.12586197002E+02  0.28340397617E+02  0.30364990548E+02  0.47787272551E+02  0.20000006871E+02 0.  0.
         12    1    1    2    0    0  0.12586197002E+02 -0.28340397617E+02 -0.30364990548E+02  0.43400727449E+02  0.00000000000E+00 0. -1.
         11    1    3    3    0    0  0.58798070986E+00  0.15551209247E+02  0.74587254137E+01  0.17257416244E+02  0.51100000000E-03 0. -1.
        -11    1    3    3    0    0 -0.33321636360E+01  0.56435736982E+01  0.13990600849E+02  0.15449600349E+02  0.51100000000E-03 0.  1.
        -12    1    3    3    0    0 -0.98420140757E+01  0.71456146723E+01  0.89156642858E+01  0.15080255958E+02  0.00000000000E+00 0.  1.
</event>
<event>
 7    1  0.1418970E-010  0.4778727E+02  0.7816164E-02  0.1312668E+00
        -11   -1    0    0    0    0  0.00000000000E+00  0.00000000000E+00  0.45593999997E+02  0.45594000000E+02  0.51100000000E-03 0.  1.
         11   -1    0    0    0    0 -0.00000000000E+00 -0.00000000000E+00 -0.45593999997E+02  0.45594000000E+02  0.51100000000E-03 0. -1.
    9900012    2    1    2    0    0 -0.30608389432E+02 -0.30976289928E-01  0.30769283682E+02  0.47787270957E+02  0.19999999602E+02 0.  0.
         12    1    1    2    0    0  0.30608389432E+02  0.30976289928E-01 -0.30769283682E+02  0.43400729043E+02  0.00000000000E+00 0. -1.
         11    1    3    3    0    0  0.46065145618E+00 -0.84582535818E-01  0.66281286497E+01  0.66446552678E+01  0.51100000000E-03 0. -1.
        -11    1    3    3    0    0 -0.18476577508E+02  0.55524035957E+01  0.16698358711E+02  0.25515647865E+02  0.51100000000E-03 0.  1.
        -12    1    3    3    0    0 -0.12592463381E+02 -0.54987973498E+01  0.74427963210E+01  0.15626967824E+02  0.00000000000E+00 0.  1.
</event>
<event>
 7    1  0.1418970E-010  0.4778727E+02  0.7816164E-02  0.1312668E+00
        -11   -1    0    0    0    0  0.00000000000E+00  0.00000000000E+00  0.45593999997E+02  0.45594000000E+02  0.51100000000E-03 0. -1.
         11   -1    0    0    0    0 -0.00000000000E+00 -0.00000000000E+00 -0.45593999997E+02  0.45594000000E+02  0.51100000000E-03 0.  1.
    9900012    2    1    2    0    0  0.29931166268E+02  0.88992049353E+01 -0.30142211168E+02  0.47787268938E+02  0.19999990396E+02 0.  0.
         12    1    1    2    0    0 -0.29931166268E+02 -0.88992049353E+01  0.30142211168E+02  0.43400731062E+02  0.00000000000E+00 0. -1.
         11    1    3    3    0    0 -0.54025094148E+00  0.15630623564E+01  0.11159800016E+01  0.19951056701E+01  0.51100000000E-03 0. -1.
        -11    1    3    3    0    0  0.17593715093E+02  0.50347408766E+01 -0.10060990655E+02  0.20883269851E+02  0.51100000000E-03 0.  1.
         12    1    3    3    0    0  0.12877702117E+02  0.23014017023E+01 -0.21197200515E+02  0.24908893417E+02  0.00000000000E+00 0. -1.
</event>
<event>
 7    1  0.1418970E-010  0.4778727E+02  0.7816164E-02  0.1312668E+00
        -11   -1    0    0    0    0  0.00000000000E+00  0.00000000000E+00  0.45593999997E+02  0.45594000000E+02  0.51100000000E-03 0.  1.
         11   -1    0    0    0    0 -0.00000000000E+00 -0.00000000000E+00 -0.45593999997E+02  0.45594000000E+02  0.51100000000E-03 0. -1.
    9900012    2    1    2    0    0  0.17039770148E+02  0.38216987177E+02  0.11520918612E+02  0.47787269116E+02  0.19999991207E+02 0.  0.
         12    1    1    2    0    0 -0.17039770148E+02 -0.38216987177E+02 -0.11520918612E+02  0.43400730884E+02  0.00000000000E+00 0. -1.
         11    1    3    3    0    0  0.34539544530E+01  0.25818203261E+00  0.17898581227E+00  0.34682121486E+01  0.51100000000E-03 0. -1.
        -11    1    3    3    0    0 -0.17174272529E-01  0.18990843187E+02  0.17077706397E+01  0.19067482811E+02  0.51100000000E-03 0.  1.
        -12    1    3    3    0    0  0.13602989967E+02  0.18967961958E+02  0.96341621596E+01  0.25251574157E+02  0.00000000000E+00 0.  1.
</event>
<event>
 7    1  0.1418970E-010  0.4778727E+02  0.7816164E-02  0.1312668E+00
        -11   -1    0    0    0    0  0.00000000000E+00  0.00000000000E+00  0.45593999997E+02  0.45594000000E+02  0.51100000000E-03 0.  1.
         11   -1    0    0    0    0 -0.00000000000E+00 -0.00000000000E+00 -0.45593999997E+02  0.45594000000E+02  0.51100000000E-03 0. -1.
    9900012    2    1    2    0    0 -0.76411209465E+01 -0.36959978492E+02  0.21428877744E+02  0.47787267969E+02  0.19999985979E+02 0.  0.
         12    1    1    2    0    0  0.76411209465E+01  0.36959978492E+02 -0.21428877744E+02  0.43400732031E+02  0.00000000000E+00 0. -1.
         11    1    3    3    0    0 -0.49507085563E+01 -0.64322258767E+01  0.90242900380E+01  0.12137580314E+02  0.51100000000E-03 0. -1.
        -11    1    3    3    0    0 -0.28144390855E-01 -0.30520326123E+02  0.10158635428E+02  0.32166581614E+02  0.51100000000E-03 0.  1.
         12    1    3    3    0    0 -0.26622679994E+01 -0.74264927252E-02  0.22459522779E+01  0.34831060403E+01  0.00000000000E+00 0. -1.
</event>
<event>
 7    1  0.1418970E-010  0.4778727E+02  0.7816164E-02  0.1312668E+00
        -11   -1    0    0    0    0  0.00000000000E+00  0.00000000000E+00  0.45593999997E+02  0.45594000000E+02  0.51100000000E-03 0. -1.
         11   -1    0    0    0    0 -0.00000000000E+00 -0.00000000000E+00 -0.45593999997E+02  0.45594000000E+02  0.51100000000E-03 0.  1.
    9900012    2    1    2    0    0 -0.18389915826E+02 -0.30736756673E+02 -0.24508897908E+02  0.47787270841E+02  0.19999999072E+02 0.  0.
         12    1    1    2    0    0  0.18389915826E+02  0.30736756673E+02  0.24508897908E+02  0.43400729159E+02  0.00000000000E+00 0. -1.
         11    1    3    3    0    0 -0.35683777476E+01  0.34168616878E+00 -0.89669938432E+01  0.96569688843E+01  0.51100000000E-03 0. -1.
        -11    1    3    3    0    0 -0.31458815016E+01 -0.71627715726E+01 -0.12511163539E+01  0.79225727776E+01  0.51100000000E-03 0.  1.
         12    1    3    3    0    0 -0.11675656577E+02 -0.23915671269E+02 -0.14290787711E+02  0.30207729179E+02  0.00000000000E+00 0. -1.
</event>
<event>
 7    1  0.1418970E-010  0.4778726E+02  0.7816164E-02  0.1312668E+00
        -11   -1    0    0    0    0  0.00000000000E+00  0.00000000000E+00  0.45593999997E+02  0.45594000000E+02  0.51100000000E-03 0.  1.
         11   -1    0    0    0    0 -0.00000000000E+00 -0.00000000000E+00 -0.45593999997E+02  0.45594000000E+02  0.51100000000E-03 0. -1.
    9900012    2    1    2    0    0  0.31941859677E+02 -0.23950473783E+02  0.17021054993E+02  0.47787263749E+02  0.19999966739E+02 0.  0.
         12    1    1    2    0    0 -0.31941859677E+02  0.23950473783E+02 -0.17021054993E+02  0.43400736251E+02  0.00000000000E+00 0. -1.
         11    1    3    3    0    0  0.24389718157E+02 -0.74689649037E+01  0.11339021358E+02  0.27914462096E+02  0.51100000000E-03 0. -1.
        -11    1    3    3    0    0  0.20120229675E+01 -0.51272094058E+01  0.46298139783E+01  0.71952547173E+01  0.51100000000E-03 0.  1.
         12    1    3    3    0    0  0.55401185525E+01 -0.11354299474E+02  0.10522196563E+01  0.12677546936E+02  0.00000000000E+00 0. -1.
</event>
<event>
 7    1  0.1418970E-010  0.4778727E+02  0.7816164E-02  0.1312668E+00
        -11   -1    0    0    0    0  0.00000000000E+00  0.00000000000E+00  0.45593999997E+02  0.45594000000E+02  0.51100000000E-03 0.  1.
         11   -1    0    0    0    0 -0.00000000000E+00 -0.00000000000E+00 -0.45593999997E+02  0.45594000000E+02  0.51100000000E-03 0. -1.
    9900012    2    1    2    0    0 -0.35015768225E+02 -0.11951820530E+02  0.22686411620E+02  0.47787270622E+02  0.19999998073E+02 0.  0.
         12    1    1    2    0    0  0.35015768225E+02  0.11951820530E+02 -0.22686411620E+02  0.43400729378E+02  0.00000000000E+00 0. -1.
         11    1    3    3    0    0 -0.19308361609E+02 -0.13206203307E+01  0.58851434912E+01  0.20228489322E+02  0.51100000000E-03 0. -1.
        -11    1    3    3    0    0 -0.15387236844E+01 -0.53979579167E+01  0.10030119547E+01  0.57018991126E+01  0.51100000000E-03 0.  1.
        -12    1    3    3    0    0 -0.14168682932E+02 -0.52332422828E+01  0.15798256174E+02  0.21856882187E+02  0.00000000000E+00 0.  1.
</event>
<event>
 7    1  0.1418970E-010  0.4778726E+02  0.7816164E-02  0.1312668E+00
        -11   -1    0    0    0    0  0.00000000000E+00  0.00000000000E+00  0.45593999997E+02  0.45594000000E+02  0.51100000000E-03 0.  1.
         11   -1    0    0    0    0 -0.00000000000E+00 -0.00000000000E+00 -0.45593999997E+02  0.45594000000E+02  0.51100000000E-03 0. -1.
    9900012    2    1    2    0    0 -0.32614484432E+02  0.13235732268E+02  0.25391630988E+02  0.47787261208E+02  0.19999955152E+02 0.  0.
         12    1    1    2    0    0  0.32614484432E+02 -0.13235732268E+02 -0.25391630988E+02  0.43400738792E+02  0.00000000000E+00 0. -1.
         11    1    3    3    0    0 -0.15975064008E+02 -0.22836863638E+01  0.10851096175E+02  0.19446443941E+02  0.51100000000E-03 0. -1.
        -11    1    3    3    0    0 -0.11975954867E+02  0.79709457021E+01  0.12889310478E+02  0.19315636030E+02  0.51100000000E-03 0.  1.
        -12    1    3    3    0    0 -0.46634655566E+01  0.75484729294E+01  0.16512243346E+01  0.90251812373E+01  0.00000000000E+00 0.  1.
</event>
<event>
 7    1  0.1418970E-010  0.4778727E+02  0.7816164E-02  0.1312668E+00
        -11   -1    0    0    0    0  0.00000000000E+00  0.00000000000E+00  0.45593999997E+02  0.45594000000E+02  0.51100000000E-03 0.  1.
         11   -1    0    0    0    0 -0.00000000000E+00 -0.00000000000E+00 -0.45593999997E+02  0.45594000000E+02  0.51100000000E-03 0. -1.
    9900012    2    1    2    0    0 -0.20064639441E+02 -0.36367043775E+02  0.12588569186E+02  0.47787266101E+02  0.19999977462E+02 0.  0.
         12    1    1    2    0    0  0.20064639441E+02  0.36367043775E+02 -0.12588569186E+02  0.43400733899E+02  0.00000000000E+00 0. -1.
         11    1    3    3    0    0  0.26356364992E+01 -0.45638777673E+01  0.15215141831E+01  0.54854868245E+01  0.51100000000E-03 0. -1.
        -11    1    3    3    0    0 -0.21426452100E+02 -0.32818686628E+02  0.10488232521E+02  0.40572922784E+02  0.51100000000E-03 0.  1.
         12    1    3    3    0    0 -0.12738238404E+01  0.10155206204E+01  0.57882248223E+00  0.17288564928E+01  0.00000000000E+00 0. -1.
</event>
<event>
 7    1  0.1418970E-010  0.4778727E+02  0.7816164E-02  0.1312668E+00
        -11   -1    0    0    0    0  0.00000000000E+00  0.00000000000E+00  0.45593999997E+02  0.45594000000E+02  0.51100000000E-03 0.  1.
         11   -1    0    0    0    0 -0.00000000000E+00 -0.00000000000E+00 -0.45593999997E+02  0.45594000000E+02  0.51100000000E-03 0. -1.
    9900012    2    1    2    0    0 -0.35272824022E+02 -0.20312535734E+02 -0.15061610709E+02  0.47787270288E+02  0.19999996549E+02 0.  0.
         12    1    1    2    0    0  0.35272824022E+02  0.20312535734E+02  0.15061610709E+02  0.43400729712E+02  0.00000000000E+00 0. -1.
         11    1    3    3    0    0 -0.24681537841E+01  0.31941269458E+01 -0.33316338533E+01  0.52339291590E+01  0.51100000000E-03 0. -1.
        -11    1    3    3    0    0 -0.12525557461E+02 -0.84074108976E+01 -0.10968702361E+01  0.15125385029E+02  0.51100000000E-03 0.  1.
         12    1    3    3    0    0 -0.20279112777E+02 -0.15099251783E+02 -0.10633106619E+02  0.27427956099E+02  0.00000000000E+00 0. -1.
</event>
<event>
 7    1  0.2055438E-010  0.4778727E+02  0.7816164E-02  0.1312668E+00
        -11   -1    0    0    0    0  0.00000000000E+00  0.00000000000E+00  0.45593999997E+02  0.45594000000E+02  0.51100000000E-03 0. -1.
         11   -1    0    0    0    0 -0.00000000000E+00 -0.00000000000E+00 -0.45593999997E+02  0.45594000000E+02  0.51100000000E-03 0.  1.
    9900012    2    1    2    0    0  0.28466944453E+02  0.20147363748E+02 -0.25832928022E+02  0.47787270021E+02  0.19999995334E+02 0.  0.
         12    1    1    2    0    0 -0.28466944453E+02 -0.20147363748E+02  0.25832928022E+02  0.43400729979E+02  0.00000000000E+00 0. -1.
         11    1    3    3    0    0  0.10563515426E+02  0.72001632940E+01 -0.16969605420E+01  0.12896118988E+02  0.51100000000E-03 0. -1.
        -11    1    3    3    0    0 -0.39709846998E+00  0.52494854102E+01 -0.62213065611E+01  0.81498122589E+01  0.51100000000E-03 0.  1.
        -12    1    3    3    0    0  0.18300527497E+02  0.76977150438E+01 -0.17914660919E+02  0.26741338774E+02  0.00000000000E+00 0.  1.
</event>
<event>
 7    1  0.1418970E-010  0.4778726E+02  0.7816164E-02  0.1312668E+00
        -11   -1    0    0    0    0  0.00000000000E+00  0.00000000000E+00  0.45593999997E+02  0.45594000000E+02  0.51100000000E-03 0. -1.
         11   -1    0    0    0    0 -0.00000000000E+00 -0.00000000000E+00 -0.45593999997E+02  0.45594000000E+02  0.51100000000E-03 0.  1.
    9900012    2    1    2    0    0 -0.13298131067E+01 -0.26340696508E+02 -0.34467721623E+02  0.47787256582E+02  0.19999934058E+02 0.  0.
         12    1    1    2    0    0  0.13298131067E+01  0.26340696508E+02  0.34467721623E+02  0.43400743418E+02  0.00000000000E+00 0. -1.
         11    1    3    3    0    0 -0.17977258595E+01 -0.31241372921E+01 -0.11325410189E+02  0.11885157479E+02  0.51100000000E-03 0. -1.
        -11    1    3    3    0    0 -0.59967048967E+01 -0.80380460176E+01 -0.13418352054E+02  0.16751800665E+02  0.51100000000E-03 0.  1.
        -12    1    3    3    0    0  0.64646176495E+01 -0.15178513198E+02 -0.97239593792E+01  0.19150298438E+02  0.00000000000E+00 0.  1.
</event>
<event>
 7    1  0.1418970E-010  0.4778727E+02  0.7816164E-02  0.1312668E+00
        -11   -1    0    0    0    0  0.00000000000E+00  0.00000000000E+00  0.45593999997E+02  0.45594000000E+02  0.51100000000E-03 0.  1.
         11   -1    0    0    0    0 -0.00000000000E+00 -0.00000000000E+00 -0.45593999997E+02  0.45594000000E+02  0.51100000000E-03 0. -1.
    9900012    2    1    2    0    0  0.10147826995E+02 -0.32254098857E+02  0.27208786644E+02  0.47787270093E+02  0.19999995663E+02 0.  0.
         12    1    1    2    0    0 -0.10147826995E+02  0.32254098857E+02 -0.27208786644E+02  0.43400729907E+02  0.00000000000E+00 0. -1.
         11    1    3    3    0    0  0.76096983226E+01 -0.67017952427E+01  0.74080622763E+01  0.12557904084E+02  0.51100000000E-03 0.  1.
        -11    1    3    3    0    0  0.65332687178E+01 -0.51276671997E+01  0.50449452208E+01  0.97174093045E+01  0.51100000000E-03 0. -1.
         12    1    3    3    0    0 -0.39951400459E+01 -0.20424636415E+02  0.14755779147E+02  0.25511956705E+02  0.00000000000E+00 0. -1.
</event>
<event>
 7    1  0.1418970E-010  0.4778727E+02  0.7816164E-02  0.1312668E+00
        -11   -1    0    0    0    0  0.00000000000E+00  0.00000000000E+00  0.45593999997E+02  0.45594000000E+02  0.51100000000E-03 0. -1.
         11   -1    0    0    0    0 -0.00000000000E+00 -0.00000000000E+00 -0.45593999997E+02  0.45594000000E+02  0.51100000000E-03 0.  1.
    9900012    2    1    2    0    0 -0.14352465813E+02 -0.19896644888E+02 -0.35801586778E+02  0.47787269954E+02  0.19999995027E+02 0.  0.
         12    1    1    2    0    0  0.14352465813E+02  0.19896644888E+02  0.35801586778E+02  0.43400730046E+02  0.00000000000E+00 0. -1.
         11    1    3    3    0    0 -0.68791144762E+01 -0.70072639204E+01 -0.49920351315E+01  0.11015642453E+02  0.51100000000E-03 0. -1.
        -11    1    3    3    0    0  0.99991614695E+00  0.12452779007E+01 -0.10482422289E+02  0.10603382793E+02  0.51100000000E-03 0.  1.
        -12    1    3    3    0    0 -0.84732674837E+01 -0.14134658868E+02 -0.20327129358E+02  0.26168244708E+02  0.00000000000E+00 0.  1.
</event>
<event>
 7    1  0.1418970E-010  0.4778728E+02  0.7816164E-02  0.1312668E+00
        -11   -1    0    0    0    0  0.00000000000E+00  0.00000000000E+00  0.45593999997E+02  0.45594000000E+02  0.51100000000E-03 0. -1.
         11   -1    0    0    0    0 -0.00000000000E+00 -0.00000000000E+00 -0.45593999997E+02  0.45594000000E+02  0.51100000000E-03 0.  1.
    9900012    2    1    2    0    0 -0.40319094750E+02 -0.15189180426E+02  0.52231680971E+01  0.47787284701E+02  0.20000062267E+02 0.  0.
         12    1    1    2    0    0  0.40319094750E+02  0.15189180426E+02 -0.52231680971E+01  0.43400715299E+02  0.00000000000E+00 0. -1.
         11    1    3    3    0    0 -0.25455243717E+00 -0.34336734080E+01  0.40181892267E+01  0.52915739566E+01  0.51100000000E-03 0. -1.
        -11    1    3    3    0    0 -0.16882205254E+02 -0.50151540065E+01  0.43735703135E+01  0.18146314819E+02  0.51100000000E-03 0.  1.
         12    1    3    3    0    0 -0.23182337059E+02 -0.67403530115E+01 -0.31685914431E+01  0.24349395926E+02  0.00000000000E+00 0. -1.
</event>
<event>
 7    1  0.1418970E-010  0.4778727E+02  0.7816164E-02  0.1312668E+00
        -11   -1    0    0    0    0  0.00000000000E+00  0.00000000000E+00  0.45593999997E+02  0.45594000000E+02  0.51100000000E-03 0. -1.
         11   -1    0    0    0    0 -0.00000000000E+00 -0.00000000000E+00 -0.45593999997E+02  0.45594000000E+02  0.51100000000E-03 0.  1.
    9900012    2    1    2    0    0  0.38844956748E+02 -0.17084614451E+02 -0.90999166959E+01  0.47787271901E+02  0.20000003904E+02 0.  0.
         12    1    1    2    0    0 -0.38844956748E+02  0.17084614451E+02  0.90999166959E+01  0.43400728099E+02  0.00000000000E+00 0. -1.
         11    1    3    3    0    0 -0.10204648414E+01 -0.84414843904E+00 -0.36346282121E+00  0.13733319202E+01  0.51100000000E-03 0. -1.
        -11    1    3    3    0    0  0.37160721797E+02 -0.18332376830E+02 -0.56732346679E+01  0.41823209783E+02  0.51100000000E-03 0.  1.
        -12    1    3    3    0    0  0.27046997923E+01  0.20919108179E+01 -0.30632192068E+01  0.45907301974E+01  0.00000000000E+00 0.  1.
</event>
<event>
 7    1  0.1418970E-010  0.4778727E+02  0.7816164E-02  0.1312668E+00
        -11   -1    0    0    0    0  0.00000000000E+00  0.00000000000E+00  0.45593999997E+02  0.45594000000E+02  0.51100000000E-03 0.  1.
         11   -1    0    0    0    0 -0.00000000000E+00 -0.00000000000E+00 -0.45593999997E+02  0.45594000000E+02  0.51100000000E-03 0. -1.
    9900012    2    1    2    0    0  0.85547264554E+01 -0.70012676034E+01  0.41969299831E+02  0.47787271653E+02  0.20000002773E+02 0.  0.
         12    1    1    2    0    0 -0.85547264554E+01  0.70012676034E+01 -0.41969299831E+02  0.43400728347E+02  0.00000000000E+00 0. -1.
         11    1    3    3    0    0  0.73890051853E+01 -0.12898137449E+01  0.15298423393E+02  0.17038273847E+02  0.51100000000E-03 0.  1.
        -11    1    3    3    0    0 -0.40699481175E+01  0.18679800854E+01  0.31124317354E+01  0.54535363616E+01  0.51100000000E-03 0. -1.
        -12    1    3    3    0    0  0.52356693876E+01 -0.75794339439E+01  0.23558444703E+02  0.25295461444E+02  0.00000000000E+00 0.  1.
</event>
<event>
 7    1  0.1579697E-010  0.4778727E+02  0.7816164E-02  0.1312668E+00
        -11   -1    0    0    0    0  0.00000000000E+00  0.00000000000E+00  0.45593999997E+02  0.45594000000E+02  0.51100000000E-03 0. -1.
         11   -1    0    0    0    0 -0.00000000000E+00 -0.00000000000E+00 -0.45593999997E+02  0.45594000000E+02  0.51100000000E-03 0.  1.
    9900012    2    1    2    0    0 -0.69979326592E+01 -0.25154154611E+02 -0.34668735177E+02  0.47787265508E+02  0.19999974758E+02 0.  0.
         12    1    1    2    0    0  0.69979326592E+01  0.25154154611E+02  0.34668735177E+02  0.43400734492E+02  0.00000000000E+00 0. -1.
         11    1    3    3    0    0 -0.41863083802E+00 -0.42008392307E+01  0.86110360448E+00  0.43085730468E+01  0.51100000000E-03 0. -1.
        -11    1    3    3    0    0 -0.63972056412E+01 -0.20430692605E+02 -0.24915584887E+02  0.32850019952E+02  0.51100000000E-03 0.  1.
         12    1    3    3    0    0 -0.18209618006E+00 -0.52262277543E+00 -0.10614253894E+02  0.10628672509E+02  0.00000000000E+00 0. -1.
</event>
<event>
 7    1  0.1418970E-010  0.4778727E+02  0.7816164E-02  0.1312668E+00
        -11   -1    0    0    0    0  0.00000000000E+00  0.00000000000E+00  0.45593999997E+02  0.45594000000E+02  0.51100000000E-03 0. -1.
         11   -1    0    0    0    0 -0.00000000000E+00 -0.00000000000E+00 -0.45593999997E+02  0.45594000000E+02  0.51100000000E-03 0.  1.
    9900012    2    1    2    0    0  0.11306359847E+02  0.39540603814E+02 -0.13868303416E+02  0.47787274630E+02  0.20000016350E+02 0.  0.
         12    1    1    2    0    0 -0.11306359847E+02 -0.39540603814E+02  0.13868303416E+02  0.43400725370E+02  0.00000000000E+00 0. -1.
         11    1    3    3    0    0  0.11407600544E+02  0.20004874687E+02 -0.48392513384E+01  0.23531823456E+02  0.51100000000E-03 0.  1.
        -11    1    3    3    0    0  0.22488827566E+01  0.87594962599E+01 -0.96285350214E+01  0.13209653110E+02  0.51100000000E-03 0. -1.
         12    1    3    3    0    0 -0.23501234536E+01  0.10776232867E+02  0.59948294418E+00  0.11045798064E+02  0.00000000000E+00 0. -1.
</event>
<event>
 7    1  0.1418970E-010  0.4778727E+02  0.7816164E-02  0.1312668E+00
        -11   -1    0    0    0    0  0.00000000000E+00  0.00000000000E+00  0.45593999997E+02  0.45594000000E+02  0.51100000000E-03 0. -1.
         11   -1    0    0    0    0 -0.00000000000E+00 -0.00000000000E+00 -0.45593999997E+02  0.45594000000E+02  0.51100000000E-03 0.  1.
    9900012    2    1    2    0    0  0.24212159284E+02  0.35748041129E+02  0.44127556466E+01  0.47787268276E+02  0.19999987378E+02 0.  0.
         12    1    1    2    0    0 -0.24212159284E+02 -0.35748041129E+02 -0.44127556466E+01  0.43400731724E+02  0.00000000000E+00 0. -1.
         11    1    3    3    0    0  0.72175823798E+01  0.14729337713E+02  0.70295765090E+01  0.17845498901E+02  0.51100000000E-03 0. -1.
        -11    1    3    3    0    0  0.36454199774E+01  0.58410613763E+01  0.48194176901E+01  0.84043959894E+01  0.51100000000E-03 0.  1.
        -12    1    3    3    0    0  0.13349156926E+02  0.15177642040E+02 -0.74362385525E+01  0.21537373386E+02  0.00000000000E+00 0.  1.
</event>
<event>
 7    1  0.1418970E-010  0.4778728E+02  0.7816164E-02  0.1312668E+00
        -11   -1    0    0    0    0  0.00000000000E+00  0.00000000000E+00  0.45593999997E+02  0.45594000000E+02  0.51100000000E-03 0.  1.
         11   -1    0    0    0    0 -0.00000000000E+00 -0.00000000000E+00 -0.45593999997E+02  0.45594000000E+02  0.51100000000E-03 0. -1.
    9900012    2    1    2    0    0 -0.29620585010E+02 -0.28141091548E+02  0.14639754903E+02  0.47787279804E+02  0.20000039940E+02 0.  0.
         12    1    1    2    0    0  0.29620585010E+02  0.28141091548E+02 -0.14639754903E+02  0.43400720196E+02  0.00000000000E+00 0. -1.
         11    1    3    3    0    0 -0.47153488066E+01 -0.11892626708E+02 -0.31560793095E+00  0.12797214267E+02  0.51100000000E-03 0. -1.
        -11    1    3    3    0    0 -0.20862583519E+02 -0.17028193750E+02  0.10448138786E+02  0.28885470012E+02  0.51100000000E-03 0.  1.
        -12    1    3    3    0    0 -0.40426526851E+01  0.77972890941E+00  0.45072240481E+01  0.61045955250E+01  0.00000000000E+00 0.  1.
</event>
<event>
 7    1  0.1418970E-010  0.4778727E+02  0.7816164E-02  0.1312668E+00
        -11   -1    0    0    0    0  0.00000000000E+00  0.00000000000E+00  0.45593999997E+02  0.45594000000E+02  0.51100000000E-03 0.  1.
         11   -1    0    0    0    0 -0.00000000000E+00 -0.00000000000E+00 -0.45593999997E+02  0.45594000000E+02  0.51100000000E-03 0. -1.
    9900012    2    1    2    0    0  0.79946164092E+01  0.34138936382E+02  0.25578166194E+02  0.47787268962E+02  0.19999990503E+02 0.  0.
         12    1    1    2    0    0 -0.79946164092E+01 -0.34138936382E+02 -0.25578166194E+02  0.43400731038E+02  0.00000000000E+00 0. -1.
         11    1    3    3    0    0  0.19310397117E+01  0.15876740854E+02  0.25180716603E+01  0.16190753524E+02  0.51100000000E-03 0. -1.
        -11    1    3    3    0    0  0.79195870239E+01  0.11999178880E+02  0.11890376279E+02  0.18656934388E+02  0.51100000000E-03 0.  1.
        -12    1    3    3    0    0 -0.18560103264E+01  0.62630166473E+01  0.11169718255E+02  0.12939581050E+02  0.00000000000E+00 0.  1.
</event>
<event>
 7    1  0.1418970E-010  0.4778727E+02  0.7816164E-02  0.1312668E+00
        -11   -1    0    0    0    0  0.00000000000E+00  0.00000000000E+00  0.45593999997E+02  0.45594000000E+02  0.51100000000E-03 0.  1.
         11   -1    0    0    0    0 -0.00000000000E+00 -0.00000000000E+00 -0.45593999997E+02  0.45594000000E+02  0.51100000000E-03 0. -1.
    9900012    2    1    2    0    0  0.33378055287E+02  0.13797540999E+02  0.24065672154E+02  0.47787270875E+02  0.19999999228E+02 0.  0.
         12    1    1    2    0    0 -0.33378055287E+02 -0.13797540999E+02 -0.24065672154E+02  0.43400729125E+02  0.00000000000E+00 0. -1.
         11    1    3    3    0    0  0.13231132200E+02  0.10841969564E+02  0.61787435311E+01  0.18187579147E+02  0.51100000000E-03 0. -1.
        -11    1    3    3    0    0  0.11289056888E-01  0.13003755116E+01  0.60410616888E+01  0.61794441904E+01  0.51100000000E-03 0.  1.
         12    1    3    3    0    0  0.20135634030E+02  0.16551959228E+01  0.11845866934E+02  0.23420247538E+02  0.00000000000E+00 0. -1.
</event>
<event>
 7    1  0.1988959E-010  0.4778728E+02  0.7816164E-02  0.1312668E+00
        -11   -1    0    0    0    0  0.00000000000E+00  0.00000000000E+00  0.45593999997E+02  0.45594000000E+02  0.51100000000E-03 0. -1.
         11   -1    0    0    0    0 -0.00000000000E+00 -0.00000000000E+00 -0.45593999997E+02  0.45594000000E+02  0.51100000000E-03 0.  1.
    9900012    2    1    2    0    0 -0.23850059554E+02  0.94755191370E+01 -0.35000172768E+02  0.47787275381E+02  0.20000019773E+02 0.  0.
         12    1    1    2    0    0  0.23850059554E+02 -0.94755191370E+01  0.35000172768E+02  0.43400724619E+02  0.00000000000E+00 0. -1.
         11    1    3    3    0    0 -0.14934464803E+01  0.10939667254E+01  0.10444298485E+01  0.21255539408E+01  0.51100000000E-03 0. -1.
        -11    1    3    3    0    0 -0.15784368161E+02 -0.13608757180E+01 -0.24583393650E+02  0.29246222056E+02  0.51100000000E-03 0.  1.
        -12    1    3    3    0    0 -0.65722449128E+01  0.97424281297E+01 -0.11461208966E+02  0.16415499384E+02  0.00000000000E+00 0.  1.
</event>
<event>
 7    1  0.1947374E-010  0.4778728E+02  0.7816164E-02  0.1312668E+00
        -11   -1    0    0    0    0  0.00000000000E+00  0.00000000000E+00  0.45593999997E+02  0.45594000000E+02  0.51100000000E-03 0.  1.
         11   -1    0    0    0    0 -0.00000000000E+00 -0.00000000000E+00 -0.45593999997E+02  0.45594000000E+02  0.51100000000E-03 0. -1.
    9900012    2    1    2    0    0 -0.42983805126E+02  0.14490553267E+00 -0.59995238428E+01  0.47787276653E+02  0.20000025570E+02 0.  0.
         12    1    1    2    0    0  0.42983805126E+02 -0.14490553267E+00  0.59995238428E+01  0.43400723347E+02  0.00000000000E+00 0. -1.
         11    1    3    3    0    0  0.68854557731E+00  0.97364921156E+00  0.62050803444E-02  0.11925294811E+01  0.51100000000E-03 0. -1.
        -11    1    3    3    0    0 -0.30846976702E+02 -0.62199002743E+01 -0.67105813868E-01  0.31467882588E+02  0.51100000000E-03 0.  1.
        -12    1    3    3    0    0 -0.12825374001E+02  0.53911565954E+01 -0.59386231092E+01  0.15126864584E+02  0.00000000000E+00 0.  1.
</event>
<event>
 7    1  0.1418970E-010  0.4778727E+02  0.7816164E-02  0.1312668E+00
        -11   -1    0    0    0    0  0.00000000000E+00  0.00000000000E+00  0.45593999997E+02  0.45594000000E+02  0.51100000000E-03 0.  1.
         11   -1    0    0    0    0 -0.00000000000E+00 -0.00000000000E+00 -0.45593999997E+02  0.45594000000E+02  0.51100000000E-03 0. -1.
    9900012    2    1    2    0    0  0.16582843900E+02 -0.12804204840E+02  0.38009011949E+02  0.47787270021E+02  0.19999995334E+02 0.  0.
         12    1    1    2    0    0 -0.16582843900E+02  0.12804204840E+02 -0.38009011949E+02  0.43400729979E+02  0.00000000000E+00 0. -1.
         11    1    3    3    0    0  0.13791531036E+02 -0.85640289991E+01  0.16236958769E+02  0.22960569491E+02  0.51100000000E-03 0. -1.
        -11    1    3    3    0    0  0.51932607918E+01 -0.10330566770E+01  0.19530296837E+02  0.20235356645E+02  0.51100000000E-03 0.  1.
         12    1    3    3    0    0 -0.24019479272E+01 -0.32071191636E+01  0.22417563425E+01  0.45913438854E+01  0.00000000000E+00 0. -1.
</event>
<event>
 7    1  0.1418970E-010  0.4778727E+02  0.7816164E-02  0.1312668E+00
        -11   -1    0    0    0    0  0.00000000000E+00  0.00000000000E+00  0.45593999997E+02  0.45594000000E+02  0.51100000000E-03 0.  1.
         11   -1    0    0    0    0 -0.00000000000E+00 -0.00000000000E+00 -0.45593999997E+02  0.45594000000E+02  0.51100000000E-03 0. -1.
    9900012    2    1    2    0    0  0.17099257569E+02 -0.31450512939E+02  0.24537809405E+02  0.47787268855E+02  0.19999990019E+02 0.  0.
         12    1    1    2    0    0 -0.17099257569E+02  0.31450512939E+02 -0.24537809405E+02  0.43400731145E+02  0.00000000000E+00 0. -1.
         11    1    3    3    0    0  0.43112776654E+01 -0.61283986868E+01  0.66173322983E+01  0.99966730756E+01  0.51100000000E-03 0. -1.
        -11    1    3    3    0    0  0.72269410231E+01 -0.23555394104E+02  0.19854903867E+02  0.31643363850E+02  0.51100000000E-03 0.  1.
         12    1    3    3    0    0  0.55610388800E+01 -0.17667201479E+01 -0.19344267601E+01  0.61472319296E+01  0.00000000000E+00 0. -1.
</event>
<event>
 7    1  0.1418970E-010  0.4778727E+02  0.7816164E-02  0.1312668E+00
        -11   -1    0    0    0    0  0.00000000000E+00  0.00000000000E+00  0.45593999997E+02  0.45594000000E+02  0.51100000000E-03 0. -1.
         11   -1    0    0    0    0 -0.00000000000E+00 -0.00000000000E+00 -0.45593999997E+02  0.45594000000E+02  0.51100000000E-03 0.  1.
    9900012    2    1    2    0    0  0.37671879252E+00 -0.34804390701E+02 -0.25925589724E+02  0.47787265770E+02  0.19999975952E+02 0.  0.
         12    1    1    2    0    0 -0.37671879252E+00  0.34804390701E+02  0.25925589724E+02  0.43400734230E+02  0.00000000000E+00 0. -1.
         11    1    3    3    0    0 -0.41242675672E+01 -0.10408831455E+02 -0.11948027405E+02  0.16374025600E+02  0.51100000000E-03 0.  1.
        -11    1    3    3    0    0  0.31271453056E+01 -0.17893257633E+01 -0.67303413235E+01  0.76340172283E+01  0.51100000000E-03 0. -1.
        -12    1    3    3    0    0  0.13738410541E+01 -0.22606233483E+02 -0.72472209958E+01  0.23779222941E+02  0.00000000000E+00 0.  1.
</event>
<event>
 7    1  0.1418970E-010  0.4778727E+02  0.7816164E-02  0.1312668E+00
        -11   -1    0    0    0    0  0.00000000000E+00  0.00000000000E+00  0.45593999997E+02  0.45594000000E+02  0.51100000000E-03 0.  1.
         11   -1    0    0    0    0 -0.00000000000E+00 -0.00000000000E+00 -0.45593999997E+02  0.45594000000E+02  0.51100000000E-03 0. -1.
    9900012    2    1    2    0    0  0.34113626381E+01  0.29078469268E+01  0.43168623595E+02  0.47787273832E+02  0.20000012709E+02 0.  0.
         12    1    1    2    0    0 -0.34113626381E+01 -0.29078469268E+01 -0.43168623595E+02  0.43400726168E+02  0.00000000000E+00 0. -1.
         11    1    3    3    0    0  0.68452712587E+01  0.98735069401E+01  0.27723491942E+02  0.30214828869E+02  0.51100000000E-03 0.  1.
        -11    1    3    3    0    0 -0.50776599204E+00 -0.34681405153E+01  0.44175999679E+01  0.56392388382E+01  0.51100000000E-03 0. -1.
        -12    1    3    3    0    0 -0.29261426285E+01 -0.34975194980E+01  0.11027531686E+02  0.11933206124E+02  0.00000000000E+00 0.  1.
</event>
<event>
 7    1  0.1418970E-010  0.4778728E+02  0.7816164E-02  0.1312668E+00
        -11   -1    0    0    0    0  0.00000000000E+00  0.00000000000E+00  0.45593999997E+02  0.45594000000E+02  0.51100000000E-03 0. -1.
         11   -1    0    0    0    0 -0.00000000000E+00 -0.00000000000E+00 -0.45593999997E+02  0.45594000000E+02  0.51100000000E-03 0.  1.
    9900012    2    1    2    0    0 -0.11021012633E+02 -0.93955985842E+01 -0.40913106808E+02  0.47787282254E+02  0.20000051109E+02 0.  0.
         12    1    1    2    0    0  0.11021012633E+02  0.93955985842E+01  0.40913106808E+02  0.43400717746E+02  0.00000000000E+00 0. -1.
         11    1    3    3    0    0 -0.37830050094E+01  0.97851647985E+00 -0.49252298257E+01  0.62870112533E+01  0.51100000000E-03 0.  1.
        -11    1    3    3    0    0 -0.50027750345E+00 -0.14379812921E+01  0.16432704898E+01  0.22401798902E+01  0.51100000000E-03 0. -1.
         12    1    3    3    0    0 -0.67377301204E+01 -0.89361337720E+01 -0.37631147472E+02  0.39260091110E+02  0.00000000000E+00 0. -1.
</event>
<event>
 7    1  0.1418970E-010  0.4778727E+02  0.7816164E-02  0.1312668E+00
        -11   -1    0    0    0    0  0.00000000000E+00  0.00000000000E+00  0.45593999997E+02  0.45594000000E+02  0.51100000000E-03 0. -1.
         11   -1    0    0    0    0 -0.00000000000E+00 -0.00000000000E+00 -0.45593999997E+02  0.45594000000E+02  0.51100000000E-03 0.  1.
    9900012    2    1    2    0    0 -0.35044608432E+02  0.11727182701E+02 -0.22758997842E+02  0.47787269856E+02  0.19999994580E+02 0.  0.
         12    1    1    2    0    0  0.35044608432E+02 -0.11727182701E+02  0.22758997842E+02  0.43400730144E+02  0.00000000000E+00 0. -1.
         11    1    3    3    0    0  0.19038799127E+01  0.37874067170E+00 -0.40711855726E+01  0.45102943858E+01  0.51100000000E-03 0. -1.
        -11    1    3    3    0    0 -0.20852852042E+02  0.58975421786E+01 -0.75030039490E+01  0.22932891456E+02  0.51100000000E-03 0.  1.
        -12    1    3    3    0    0 -0.16095636303E+02  0.54508998507E+01 -0.11184808321E+02  0.20344084014E+02  0.00000000000E+00 0.  1.
</event>
<event>
 7    1  0.1418970E-010  0.4778727E+02  0.7816164E-02  0.1312668E+00
        -11   -1    0    0    0    0  0.00000000000E+00  0.00000000000E+00  0.45593999997E+02  0.45594000000E+02  0.51100000000E-03 0.  1.
         11   -1    0    0    0    0 -0.00000000000E+00 -0.00000000000E+00 -0.45593999997E+02  0.45594000000E+02  0.51100000000E-03 0. -1.
    9900012    2    1    2    0    0  0.20315521631E+02  0.94469450205E+01  0.37170658903E+02  0.47787273363E+02  0.20000010571E+02 0.  0.
         12    1    1    2    0    0 -0.20315521631E+02 -0.94469450205E+01 -0.37170658903E+02  0.43400726637E+02  0.00000000000E+00 0. -1.
         11    1    3    3    0    0  0.13066369398E+02  0.14665195442E+02  0.18771733202E+02  0.27169393336E+02  0.51100000000E-03 0. -1.
        -11    1    3    3    0    0  0.92157790795E+00 -0.19950458809E+01  0.40445011167E+01  0.46029885348E+01  0.51100000000E-03 0.  1.
         12    1    3    3    0    0  0.63275743249E+01 -0.32232045406E+01  0.14354424585E+02  0.16014891492E+02  0.00000000000E+00 0. -1.
</event>
<event>
 7    1  0.1418970E-010  0.4778728E+02  0.7816164E-02  0.1312668E+00
        -11   -1    0    0    0    0  0.00000000000E+00  0.00000000000E+00  0.45593999997E+02  0.45594000000E+02  0.51100000000E-03 0.  1.
         11   -1    0    0    0    0 -0.00000000000E+00 -0.00000000000E+00 -0.45593999997E+02  0.45594000000E+02  0.51100000000E-03 0. -1.
    9900012    2    1    2    0    0 -0.19058039642E+02  0.66036579214E+01  0.38429228146E+02  0.47787277093E+02  0.20000027578E+02 0.  0.
         12    1    1    2    0    0  0.19058039642E+02 -0.66036579214E+01 -0.38429228146E+02  0.43400722907E+02  0.00000000000E+00 0. -1.
         11    1    3    3    0    0  0.22481401776E+00  0.49757233267E+01  0.10960768062E+02  0.12039385397E+02  0.51100000000E-03 0. -1.
        -11    1    3    3    0    0 -0.65427086840E+01  0.11373675822E+01  0.14847963821E+01  0.68047970211E+01  0.51100000000E-03 0.  1.
        -12    1    3    3    0    0 -0.12740144976E+02  0.49056701247E+00  0.25983663702E+02  0.28943094675E+02  0.00000000000E+00 0.  1.
</event>
<event>
 7    1  0.1418970E-010  0.4778727E+02  0.7816164E-02  0.1312668E+00
        -11   -1    0    0    0    0  0.00000000000E+00  0.00000000000E+00  0.45593999997E+02  0.45594000000E+02  0.51100000000E-03 0.  1.
         11   -1    0    0    0    0 -0.00000000000E+00 -0.00000000000E+00 -0.45593999997E+02  0.45594000000E+02  0.51100000000E-03 0. -1.
    9900012    2    1    2    0    0  0.16801611814E+02 -0.96888018439E+01  0.38825973568E+02  0.47787271156E+02  0.20000000507E+02 0.  0.
         12    1    1    2    0    0 -0.16801611814E+02  0.96888018439E+01 -0.38825973568E+02  0.43400728844E+02  0.00000000000E+00 0. -1.
         11    1    3    3    0    0 -0.19755336372E+00 -0.28426418349E+00 -0.21202482832E+01  0.21483217871E+01  0.51100000000E-03 0. -1.
        -11    1    3    3    0    0  0.56846103499E+01 -0.53143140281E+01  0.12125089361E+02  0.14407446709E+02  0.51100000000E-03 0.  1.
        -12    1    3    3    0    0  0.11314554828E+02 -0.40902236324E+01  0.28821132490E+02  0.31231502659E+02  0.00000000000E+00 0.  1.
</event>
<event>
 7    1  0.1418970E-010  0.4778727E+02  0.7816164E-02  0.1312668E+00
        -11   -1    0    0    0    0  0.00000000000E+00  0.00000000000E+00  0.45593999997E+02  0.45594000000E+02  0.51100000000E-03 0. -1.
         11   -1    0    0    0    0 -0.00000000000E+00 -0.00000000000E+00 -0.45593999997E+02  0.45594000000E+02  0.51100000000E-03 0.  1.
    9900012    2    1    2    0    0  0.15797231127E+02 -0.40352736533E+02 -0.23931727739E+01  0.47787272669E+02  0.20000007405E+02 0.  0.
         12    1    1    2    0    0 -0.15797231127E+02  0.40352736533E+02  0.23931727739E+01  0.43400727331E+02  0.00000000000E+00 0. -1.
         11    1    3    3    0    0 -0.22265466404E+01 -0.95300109192E+01  0.29819743283E+01  0.10230874313E+02  0.51100000000E-03 0. -1.
        -11    1    3    3    0    0  0.63469680077E+01 -0.19856298529E+02 -0.54127880832E+01  0.21537290202E+02  0.51100000000E-03 0.  1.
         12    1    3    3    0    0  0.11676809760E+02 -0.10966427084E+02  0.37640980980E-01  0.16019108153E+02  0.00000000000E+00 0. -1.
</event>
<event>
 7    1  0.1418970E-010  0.4778727E+02  0.7816164E-02  0.1312668E+00
        -11   -1    0    0    0    0  0.00000000000E+00  0.00000000000E+00  0.45593999997E+02  0.45594000000E+02  0.51100000000E-03 0. -1.
         11   -1    0    0    0    0 -0.00000000000E+00 -0.00000000000E+00 -0.45593999997E+02  0.45594000000E+02  0.51100000000E-03 0.  1.
    9900012    2    1    2    0    0 -0.36294072971E+02  0.23472412158E+02  0.39254771318E+01  0.47787271481E+02  0.20000001989E+02 0.  0.
         12    1    1    2    0    0  0.36294072971E+02 -0.23472412158E+02 -0.39254771318E+01  0.43400728519E+02  0.00000000000E+00 0. -1.
         11    1    3    3    0    0 -0.71443588224E+01 -0.36834533243E+00  0.19885866712E+01  0.74250938362E+01  0.51100000000E-03 0. -1.
        -11    1    3    3    0    0 -0.13706729531E+02  0.17256962693E+02  0.64789689115E+01  0.22970725592E+02  0.51100000000E-03 0.  1.
        -12    1    3    3    0    0 -0.15442984618E+02  0.65837947967E+01 -0.45420784509E+01  0.17391452052E+02  0.00000000000E+00 0.  1.
</event>
<event>
 7    1  0.1418970E-010  0.4778727E+02  0.7816164E-02  0.1312668E+00
        -11   -1    0    0    0    0  0.00000000000E+00  0.00000000000E+00  0.45593999997E+02  0.45594000000E+02  0.51100000000E-03 0.  1.
         11   -1    0    0    0    0 -0.00000000000E+00 -0.00000000000E+00 -0.45593999997E+02  0.45594000000E+02  0.51100000000E-03 0. -1.
    9900012    2    1    2    0    0 -0.31408343530E+02  0.89386864509E+01  0.28587395940E+02  0.47787269990E+02  0.19999995192E+02 0.  0.
         12    1    1    2    0    0  0.31408343530E+02 -0.89386864509E+01 -0.28587395940E+02  0.43400730010E+02  0.00000000000E+00 0. -1.
         11    1    3    3    0    0 -0.74442367448E+01 -0.29015419783E+01  0.13369405982E+02  0.15574871528E+02  0.51100000000E-03 0. -1.
        -11    1    3    3    0    0 -0.43525933770E+01  0.68377117475E+01  0.51912653212E+01  0.96254146375E+01  0.51100000000E-03 0.  1.
        -12    1    3    3    0    0 -0.19611513409E+02  0.50025166817E+01  0.10026724637E+02  0.22586983824E+02  0.00000000000E+00 0.  1.
</event>
<event>
 7    1  0.1418970E-010  0.4778727E+02  0.7816164E-02  0.1312668E+00
        -11   -1    0    0    0    0  0.00000000000E+00  0.00000000000E+00  0.45593999997E+02  0.45594000000E+02  0.51100000000E-03 0.  1.
         11   -1    0    0    0    0 -0.00000000000E+00 -0.00000000000E+00 -0.45593999997E+02  0.45594000000E+02  0.51100000000E-03 0. -1.
    9900012    2    1    2    0    0  0.34401042209E+02  0.15182120778E+02  0.21672439810E+02  0.47787272544E+02  0.20000006838E+02 0.  0.
         12    1    1    2    0    0 -0.34401042209E+02 -0.15182120778E+02 -0.21672439810E+02  0.43400727456E+02  0.00000000000E+00 0. -1.
         11    1    3    3    0    0  0.51220683539E+01  0.66024784571E+01  0.96054261210E+00  0.84113582952E+01  0.51100000000E-03 0. -1.
        -11    1    3    3    0    0  0.14820190781E+02  0.29197864380E+01  0.18192212692E+02  0.23645714422E+02  0.51100000000E-03 0.  1.
         12    1    3    3    0    0  0.14458783074E+02  0.56598558828E+01  0.25196845060E+01  0.15730199827E+02  0.00000000000E+00 0. -1.
</event>
<event>
 7    1  0.1418970E-010  0.4778727E+02  0.7816164E-02  0.1312668E+00
        -11   -1    0    0    0    0  0.00000000000E+00  0.00000000000E+00  0.45593999997E+02  0.45594000000E+02  0.51100000000E-03 0.  1.
         11   -1    0    0    0    0 -0.00000000000E+00 -0.00000000000E+00 -0.45593999997E+02  0.45594000000E+02  0.51100000000E-03 0. -1.
    9900012    2    1    2    0    0  0.43951685327E+01 -0.41697205999E+02 -0.11209316086E+02  0.47787271185E+02  0.20000000640E+02 0.  0.
         12    1    1    2    0    0 -0.43951685327E+01  0.41697205999E+02  0.11209316086E+02  0.43400728815E+02  0.00000000000E+00 0. -1.
         11    1    3    3    0    0  0.26358166614E+01 -0.72681666029E+01  0.21922094110E+01  0.80361407157E+01  0.51100000000E-03 0. -1.
        -11    1    3    3    0    0  0.35665426557E+01 -0.24814740303E+02 -0.15858650101E+02  0.29664597521E+02  0.51100000000E-03 0.  1.
         12    1    3    3    0    0 -0.18071907844E+01 -0.96142990934E+01  0.24571246036E+01  0.10086532948E+02  0.00000000000E+00 0. -1.
</event>
<event>
 7    1  0.1418970E-010  0.4778727E+02  0.7816164E-02  0.1312668E+00
        -11   -1    0    0    0    0  0.00000000000E+00  0.00000000000E+00  0.45593999997E+02  0.45594000000E+02  0.51100000000E-03 0. -1.
         11   -1    0    0    0    0 -0.00000000000E+00 -0.00000000000E+00 -0.45593999997E+02  0.45594000000E+02  0.51100000000E-03 0.  1.
    9900012    2    1    2    0    0  0.22022671057E+02 -0.24074668385E+01 -0.37320627020E+02  0.47787272607E+02  0.20000007126E+02 0.  0.
         12    1    1    2    0    0 -0.22022671057E+02  0.24074668385E+01  0.37320627020E+02  0.43400727393E+02  0.00000000000E+00 0. -1.
         11    1    3    3    0    0  0.14885991897E+02  0.32821943395E+01 -0.26490844152E+02  0.30563546564E+02  0.51100000000E-03 0.  1.
        -11    1    3    3    0    0 -0.15326847415E+01 -0.15469212286E+01 -0.61740590896E+01  0.65468384513E+01  0.51100000000E-03 0. -1.
        -12    1    3    3    0    0  0.86693639016E+01 -0.41427399494E+01 -0.46557237781E+01  0.10676887592E+02  0.00000000000E+00 0.  1.
</event>
<event>
 7    1  0.1418970E-010  0.4778723E+02  0.7816164E-02  0.1312668E+00
        -11   -1    0    0    0    0  0.00000000000E+00  0.00000000000E+00  0.45593999997E+02  0.45594000000E+02  0.51100000000E-03 0. -1.
         11   -1    0    0    0    0 -0.00000000000E+00 -0.00000000000E+00 -0.45593999997E+02  0.45594000000E+02  0.51100000000E-03 0.  1.
    9900012    2    1    2    0    0 -0.23065719856E+02  0.27207327573E+02 -0.24725718666E+02  0.47787225011E+02  0.19999790112E+02 0.  0.
         12    1    1    2    0    0  0.23065719856E+02 -0.27207327573E+02  0.24725718666E+02  0.43400774989E+02  0.00000000000E+00 0. -1.
         11    1    3    3    0    0  0.18386298300E+01 -0.45805143244E+00  0.15029174699E+00  0.19007784292E+01  0.51100000000E-03 0. -1.
        -11    1    3    3    0    0 -0.11831667962E+02  0.17029689455E+02 -0.85732708917E+01  0.22438798180E+02  0.51100000000E-03 0.  1.
        -12    1    3    3    0    0 -0.13072681724E+02  0.10635689550E+02 -0.16302739521E+02  0.23447648401E+02  0.00000000000E+00 0.  1.
</event>
<event>
 7    1  0.1418970E-010  0.4778727E+02  0.7816164E-02  0.1312668E+00
        -11   -1    0    0    0    0  0.00000000000E+00  0.00000000000E+00  0.45593999997E+02  0.45594000000E+02  0.51100000000E-03 0. -1.
         11   -1    0    0    0    0 -0.00000000000E+00 -0.00000000000E+00 -0.45593999997E+02  0.45594000000E+02  0.51100000000E-03 0.  1.
    9900012    2    1    2    0    0  0.21961959814E+02 -0.34042991978E+02 -0.15568251097E+02  0.47787269316E+02  0.19999992119E+02 0.  0.
         12    1    1    2    0    0 -0.21961959814E+02  0.34042991978E+02  0.15568251097E+02  0.43400730684E+02  0.00000000000E+00 0. -1.
         11    1    3    3    0    0 -0.16028761067E+01 -0.65606197618E+01 -0.28751417158E+01  0.73401214990E+01  0.51100000000E-03 0.  1.
        -11    1    3    3    0    0  0.55101569273E+01 -0.58464763978E+01  0.25245760030E+01  0.84211994330E+01  0.51100000000E-03 0. -1.
        -12    1    3    3    0    0  0.18054678994E+02 -0.21635895818E+02 -0.15217685384E+02  0.32025948384E+02  0.00000000000E+00 0.  1.
</event>
<event>
 7    1  0.1418970E-010  0.4778728E+02  0.7816164E-02  0.1312668E+00
        -11   -1    0    0    0    0  0.00000000000E+00  0.00000000000E+00  0.45593999997E+02  0.45594000000E+02  0.51100000000E-03 0.  1.
         11   -1    0    0    0    0 -0.00000000000E+00 -0.00000000000E+00 -0.45593999997E+02  0.45594000000E+02  0.51100000000E-03 0. -1.
    9900012    2    1    2    0    0 -0.14269169857E+02  0.71045417271E+01  0.40367546002E+02  0.47787280055E+02  0.20000041081E+02 0.  0.
         12    1    1    2    0    0  0.14269169857E+02 -0.71045417271E+01 -0.40367546002E+02  0.43400719945E+02  0.00000000000E+00 0. -1.
         11    1    3    3    0    0 -0.19723498010E+01  0.56219175709E+01  0.83444330054E+01  0.10253081652E+02  0.51100000000E-03 0. -1.
        -11    1    3    3    0    0 -0.49074285328E+01  0.69930195907E+01  0.76181183512E+01  0.11446436357E+02  0.51100000000E-03 0.  1.
         12    1    3    3    0    0 -0.73893915229E+01 -0.55103954344E+01  0.24404994646E+02  0.26087762046E+02  0.00000000000E+00 0. -1.
</event>
<event>
 7    1  0.1418970E-010  0.4778726E+02  0.7816164E-02  0.1312668E+00
        -11   -1    0    0    0    0  0.00000000000E+00  0.00000000000E+00  0.45593999997E+02  0.45594000000E+02  0.51100000000E-03 0.  1.
         11   -1    0    0    0    0 -0.00000000000E+00 -0.00000000000E+00 -0.45593999997E+02  0.45594000000E+02  0.51100000000E-03 0. -1.
    9900012    2    1    2    0    0  0.13253219213E+02 -0.93911049376E+01  0.40246530719E+02  0.47787263758E+02  0.19999966778E+02 0.  0.
         12    1    1    2    0    0 -0.13253219213E+02  0.93911049376E+01 -0.40246530719E+02  0.43400736242E+02  0.00000000000E+00 0. -1.
         11    1    3    3    0    0 -0.26590701421E+01  0.79203774065E+00 -0.47307556940E+00  0.28145654298E+01  0.51100000000E-03 0. -1.
        -11    1    3    3    0    0  0.57153955620E+01 -0.21691358154E+01  0.12430240153E+02  0.13852139443E+02  0.51100000000E-03 0.  1.
         12    1    3    3    0    0  0.10196893793E+02 -0.80140068628E+01  0.28289366135E+02  0.31120558885E+02  0.00000000000E+00 0. -1.
</event>
<event>
 7    1  0.1418970E-010  0.4778728E+02  0.7816164E-02  0.1312668E+00
        -11   -1    0    0    0    0  0.00000000000E+00  0.00000000000E+00  0.45593999997E+02  0.45594000000E+02  0.51100000000E-03 0. -1.
         11   -1    0    0    0    0 -0.00000000000E+00 -0.00000000000E+00 -0.45593999997E+02  0.45594000000E+02  0.51100000000E-03 0.  1.
    9900012    2    1    2    0    0  0.32309349289E+02 -0.20599049147E+02 -0.20381558724E+02  0.47787276351E+02  0.20000024195E+02 0.  0.
         12    1    1    2    0    0 -0.32309349289E+02  0.20599049147E+02  0.20381558724E+02  0.43400723649E+02  0.00000000000E+00 0. -1.
         11    1    3    3    0    0  0.41276377395E+01  0.28278420144E+01 -0.12486395255E+01  0.51568580253E+01  0.51100000000E-03 0. -1.
        -11    1    3    3    0    0  0.82607280704E+01 -0.10807273986E+02 -0.26484664880E+01  0.13858252930E+02  0.51100000000E-03 0.  1.
         12    1    3    3    0    0  0.19920983479E+02 -0.12619617176E+02 -0.16484452710E+02  0.28772165396E+02  0.00000000000E+00 0. -1.
</event>
<event>
 7    1  0.1418970E-010  0.4778727E+02  0.7816164E-02  0.1312668E+00
        -11   -1    0    0    0    0  0.00000000000E+00  0.00000000000E+00  0.45593999997E+02  0.45594000000E+02  0.51100000000E-03 0.  1.
         11   -1    0    0    0    0 -0.00000000000E+00 -0.00000000000E+00 -0.45593999997E+02  0.45594000000E+02  0.51100000000E-03 0. -1.
    9900012    2    1    2    0    0  0.38191225556E+02 -0.52549510535E+01  0.19935876379E+02  0.47787269740E+02  0.19999994055E+02 0.  0.
         12    1    1    2    0    0 -0.38191225556E+02  0.52549510535E+01 -0.19935876379E+02  0.43400730260E+02  0.00000000000E+00 0. -1.
         11    1    3    3    0    0  0.11247153964E+02  0.48664642289E+01  0.57069998281E+01  0.13518535190E+02  0.51100000000E-03 0. -1.
        -11    1    3    3    0    0  0.15731323838E+02 -0.52557227534E+01  0.15512652859E+01  0.16658439170E+02  0.51100000000E-03 0.  1.
        -12    1    3    3    0    0  0.11212747755E+02 -0.48656925290E+01  0.12677611265E+02  0.17610295380E+02  0.00000000000E+00 0.  1.
</event>
<event>
 7    1  0.1418970E-010  0.4778727E+02  0.7816164E-02  0.1312668E+00
        -11   -1    0    0    0    0  0.00000000000E+00  0.00000000000E+00  0.45593999997E+02  0.45594000000E+02  0.51100000000E-03 0. -1.
         11   -1    0    0    0    0 -0.00000000000E+00 -0.00000000000E+00 -0.45593999997E+02  0.45594000000E+02  0.51100000000E-03 0.  1.
    9900012    2    1    2    0    0 -0.16595572195E+02  0.40046198876E+02  0.21242327860E+01  0.47787269294E+02  0.19999992017E+02 0.  0.
         12    1    1    2    0    0  0.16595572195E+02 -0.40046198876E+02 -0.21242327860E+01  0.43400730706E+02  0.00000000000E+00 0. -1.
         11    1    3    3    0    0 -0.11763253093E+02  0.85624661422E+01  0.30061645241E+01  0.14856883091E+02  0.51100000000E-03 0. -1.
        -11    1    3    3    0    0 -0.27989298680E+01  0.15886353056E+02  0.36946767691E+01  0.16548741902E+02  0.51100000000E-03 0.  1.
         12    1    3    3    0    0 -0.20333892341E+01  0.15597379678E+02 -0.45766085072E+01  0.16381644301E+02  0.00000000000E+00 0. -1.
</event>
<event>
 7    1  0.1418970E-010  0.4778727E+02  0.7816164E-02  0.1312668E+00
        -11   -1    0    0    0    0  0.00000000000E+00  0.00000000000E+00  0.45593999997E+02  0.45594000000E+02  0.51100000000E-03 0.  1.
         11   -1    0    0    0    0 -0.00000000000E+00 -0.00000000000E+00 -0.45593999997E+02  0.45594000000E+02  0.51100000000E-03 0. -1.
    9900012    2    1    2    0    0 -0.26729662939E+02 -0.71397296557E+00  0.34185361608E+02  0.47787267443E+02  0.19999983580E+02 0.  0.
         12    1    1    2    0    0  0.26729662939E+02  0.71397296557E+00 -0.34185361608E+02  0.43400732557E+02  0.00000000000E+00 0. -1.
         11    1    3    3    0    0  0.20055196578E+01  0.36474554462E+00  0.22435678851E+01  0.30312943648E+01  0.51100000000E-03 0. -1.
        -11    1    3    3    0    0 -0.13953479955E+02 -0.58252358553E+01  0.20485663765E+02  0.25461645582E+02  0.51100000000E-03 0.  1.
         12    1    3    3    0    0 -0.14781702642E+02  0.47465173451E+01  0.11456129958E+02  0.19294327496E+02  0.00000000000E+00 0. -1.
</event>
<event>
 7    1  0.1418970E-010  0.4778727E+02  0.7816164E-02  0.1312668E+00
        -11   -1    0    0    0    0  0.00000000000E+00  0.00000000000E+00  0.45593999997E+02  0.45594000000E+02  0.51100000000E-03 0. -1.
         11   -1    0    0    0    0 -0.00000000000E+00 -0.00000000000E+00 -0.45593999997E+02  0.45594000000E+02  0.51100000000E-03 0.  1.
    9900012    2    1    2    0    0  0.39568832602E+02 -0.44874892009E+01 -0.17256693581E+02  0.47787267908E+02  0.19999985698E+02 0.  0.
         12    1    1    2    0    0 -0.39568832602E+02  0.44874892009E+01  0.17256693581E+02  0.43400732092E+02  0.00000000000E+00 0. -1.
         11    1    3    3    0    0  0.96334937773E+01 -0.15855820520E+01 -0.12440126838E+02  0.15813760742E+02  0.51100000000E-03 0. -1.
        -11    1    3    3    0    0 -0.45442809025E+00  0.50025987243E+00  0.61674917245E+00  0.91495608201E+00  0.51100000000E-03 0.  1.
        -12    1    3    3    0    0  0.30389766915E+02 -0.34021670214E+01 -0.54333159160E+01  0.31058551084E+02  0.00000000000E+00 0.  1.
</event>
<event>
 7    1  0.1418970E-010  0.4778727E+02  0.7816164E-02  0.1312668E+00
        -11   -1    0    0    0    0  0.00000000000E+00  0.00000000000E+00  0.45593999997E+02  0.45594000000E+02  0.51100000000E-03 0.  1.
         11   -1    0    0    0    0 -0.00000000000E+00 -0.00000000000E+00 -0.45593999997E+02  0.45594000000E+02  0.51100000000E-03 0. -1.
    9900012    2    1    2    0    0  0.25493242251E+02  0.29909503196E+02  0.18415743584E+02  0.47787269664E+02  0.19999993708E+02 0.  0.
         12    1    1    2    0    0 -0.25493242251E+02 -0.29909503196E+02 -0.18415743584E+02  0.43400730336E+02  0.00000000000E+00 0. -1.
         11    1    3    3    0    0 -0.21912336007E+01  0.11826548579E+01  0.68913481221E+00  0.25836184424E+01  0.51100000000E-03 0. -1.
        -11    1    3    3    0    0  0.15337651644E+02  0.11783886723E+02  0.14081393882E+02  0.23924656699E+02  0.51100000000E-03 0.  1.
        -12    1    3    3    0    0  0.12346824208E+02  0.16942961615E+02  0.36452148899E+01  0.21278994523E+02  0.00000000000E+00 0.  1.
</event>
<event>
 7    1  0.1418970E-010  0.4778727E+02  0.7816164E-02  0.1312668E+00
        -11   -1    0    0    0    0  0.00000000000E+00  0.00000000000E+00  0.45593999997E+02  0.45594000000E+02  0.51100000000E-03 0. -1.
         11   -1    0    0    0    0 -0.00000000000E+00 -0.00000000000E+00 -0.45593999997E+02  0.45594000000E+02  0.51100000000E-03 0.  1.
    9900012    2    1    2    0    0  0.23344870154E+02  0.36082294783E+02  0.60587576229E+01  0.47787268402E+02  0.19999987951E+02 0.  0.
         12    1    1    2    0    0 -0.23344870154E+02 -0.36082294783E+02 -0.60587576229E+01  0.43400731598E+02  0.00000000000E+00 0. -1.
         11    1    3    3    0    0  0.15925262522E+01  0.27996604491E+01  0.41540956225E+01  0.52564959047E+01  0.51100000000E-03 0. -1.
        -11    1    3    3    0    0  0.18117829614E+02  0.24313808563E+02 -0.48800280535E+01  0.30712077605E+02  0.51100000000E-03 0.  1.
        -12    1    3    3    0    0  0.36345142879E+01  0.89688257715E+01  0.67846900539E+01  0.11818694892E+02  0.00000000000E+00 0.  1.
</event>
<event>
 7    1  0.1418970E-010  0.4778722E+02  0.7816164E-02  0.1312668E+00
        -11   -1    0    0    0    0  0.00000000000E+00  0.00000000000E+00  0.45593999997E+02  0.45594000000E+02  0.51100000000E-03 0.  1.
         11   -1    0    0    0    0 -0.00000000000E+00 -0.00000000000E+00 -0.45593999997E+02  0.45594000000E+02  0.51100000000E-03 0. -1.
    9900012    2    1    2    0    0 -0.41351924195E+02  0.55803820857E+01  0.11937556220E+02  0.47787221811E+02  0.19999775525E+02 0.  0.
         12    1    1    2    0    0  0.41351924195E+02 -0.55803820857E+01 -0.11937556220E+02  0.43400778189E+02  0.00000000000E+00 0. -1.
         11    1    3    3    0    0 -0.23873351714E+02  0.22033794286E+01  0.79918582836E+01  0.25271755025E+02  0.51100000000E-03 0. -1.
        -11    1    3    3    0    0 -0.12591506258E+02  0.13913762649E+01  0.87373262864E+01  0.15389048984E+02  0.51100000000E-03 0.  1.
         12    1    3    3    0    0 -0.48870662241E+01  0.19856263921E+01 -0.47916283499E+01  0.71264178022E+01  0.00000000000E+00 0. -1.
</event>
<event>
 7    1  0.1418970E-010  0.4778727E+02  0.7816164E-02  0.1312668E+00
        -11   -1    0    0    0    0  0.00000000000E+00  0.00000000000E+00  0.45593999997E+02  0.45594000000E+02  0.51100000000E-03 0.  1.
         11   -1    0    0    0    0 -0.00000000000E+00 -0.00000000000E+00 -0.45593999997E+02  0.45594000000E+02  0.51100000000E-03 0. -1.
    9900012    2    1    2    0    0 -0.12781741555E+02 -0.38480816801E+02  0.15475054784E+02  0.47787268447E+02  0.19999988155E+02 0.  0.
         12    1    1    2    0    0  0.12781741555E+02  0.38480816801E+02 -0.15475054784E+02  0.43400731553E+02  0.00000000000E+00 0. -1.
         11    1    3    3    0    0 -0.38033531598E+01 -0.14533882464E+02  0.12891320529E+02  0.19796095069E+02  0.51100000000E-03 0. -1.
        -11    1    3    3    0    0 -0.48558194931E+00 -0.61620059064E+01  0.52412804472E+01  0.81041426202E+01  0.51100000000E-03 0.  1.
         12    1    3    3    0    0 -0.84928064459E+01 -0.17784928430E+02 -0.26575461923E+01  0.19887030757E+02  0.00000000000E+00 0. -1.
</event>
<event>
 7    1  0.1418970E-010  0.4778727E+02  0.7816164E-02  0.1312668E+00
        -11   -1    0    0    0    0  0.00000000000E+00  0.00000000000E+00  0.45593999997E+02  0.45594000000E+02  0.51100000000E-03 0.  1.
         11   -1    0    0    0    0 -0.00000000000E+00 -0.00000000000E+00 -0.45593999997E+02  0.45594000000E+02  0.51100000000E-03 0. -1.
    9900012    2    1    2    0    0  0.27843247671E+02  0.91654551043E+01  0.32005803638E+02  0.47787268731E+02  0.19999989453E+02 0.  0.
         12    1    1    2    0    0 -0.27843247671E+02 -0.91654551043E+01 -0.32005803638E+02  0.43400731269E+02  0.00000000000E+00 0. -1.
         11    1    3    3    0    0  0.26850070270E+01 -0.25888258707E+01  0.55973759904E+01  0.67262099553E+01  0.51100000000E-03 0. -1.
        -11    1    3    3    0    0  0.24523032736E+02  0.94934981930E+01  0.27851962287E+02  0.38304535580E+02  0.51100000000E-03 0.  1.
        -12    1    3    3    0    0  0.63520790808E+00  0.22607827819E+01 -0.14435346393E+01  0.27565231957E+01  0.00000000000E+00 0.  1.
</event>
<event>
 7    1  0.1418970E-010  0.4778728E+02  0.7816164E-02  0.1312668E+00
        -11   -1    0    0    0    0  0.00000000000E+00  0.00000000000E+00  0.45593999997E+02  0.45594000000E+02  0.51100000000E-03 0. -1.
         11   -1    0    0    0    0 -0.00000000000E+00 -0.00000000000E+00 -0.45593999997E+02  0.45594000000E+02  0.51100000000E-03 0.  1.
    9900012    2    1    2    0    0 -0.31986427435E+02  0.19624244326E+02 -0.21803208963E+02  0.47787280807E+02  0.20000044512E+02 0.  0.
         12    1    1    2    0    0  0.31986427435E+02 -0.19624244326E+02  0.21803208963E+02  0.43400719193E+02  0.00000000000E+00 0. -1.
         11    1    3    3    0    0 -0.19091823733E+02  0.33979580790E+00 -0.11778177742E+02  0.22435210403E+02  0.51100000000E-03 0.  1.
        -11    1    3    3    0    0 -0.61407385622E+01  0.10530013467E+02 -0.45223975181E+01  0.13001612718E+02  0.51100000000E-03 0. -1.
        -12    1    3    3    0    0 -0.67538651392E+01  0.87544350510E+01 -0.55026337021E+01  0.12350457685E+02  0.00000000000E+00 0.  1.
</event>
<event>
 7    1  0.1418970E-010  0.4778727E+02  0.7816164E-02  0.1312668E+00
        -11   -1    0    0    0    0  0.00000000000E+00  0.00000000000E+00  0.45593999997E+02  0.45594000000E+02  0.51100000000E-03 0.  1.
         11   -1    0    0    0    0 -0.00000000000E+00 -0.00000000000E+00 -0.45593999997E+02  0.45594000000E+02  0.51100000000E-03 0. -1.
    9900012    2    1    2    0    0  0.31954109606E+02  0.37914488592E+01  0.29123582170E+02  0.47787271394E+02  0.20000001594E+02 0.  0.
         12    1    1    2    0    0 -0.31954109606E+02 -0.37914488592E+01 -0.29123582170E+02  0.43400728606E+02  0.00000000000E+00 0. -1.
         11    1    3    3    0    0  0.12812269184E+02  0.81998308351E+00  0.19580592478E+02  0.23414231057E+02  0.51100000000E-03 0. -1.
        -11    1    3    3    0    0  0.53438716920E+01  0.14563195923E+01  0.88931559476E+01  0.10476929626E+02  0.51100000000E-03 0.  1.
         12    1    3    3    0    0  0.13797968729E+02  0.15151461833E+01  0.64983374358E+00  0.13896110711E+02  0.00000000000E+00 0. -1.
</event>
<event>
 7    1  0.1418970E-010  0.4778727E+02  0.7816164E-02  0.1312668E+00
        -11   -1    0    0    0    0  0.00000000000E+00  0.00000000000E+00  0.45593999997E+02  0.45594000000E+02  0.51100000000E-03 0. -1.
         11   -1    0    0    0    0 -0.00000000000E+00 -0.00000000000E+00 -0.45593999997E+02  0.45594000000E+02  0.51100000000E-03 0.  1.
    9900012    2    1    2    0    0 -0.22498285430E+02 -0.23691045742E+02 -0.28568948885E+02  0.47787270328E+02  0.19999996735E+02 0.  0.
         12    1    1    2    0    0  0.22498285430E+02  0.23691045742E+02  0.28568948885E+02  0.43400729672E+02  0.00000000000E+00 0. -1.
         11    1    3    3    0    0 -0.31656991841E+01  0.26996360865E+01 -0.27855042963E+01  0.50068673609E+01  0.51100000000E-03 0. -1.
        -11    1    3    3    0    0 -0.29596171704E+01 -0.11381035187E+02 -0.10971054462E+02  0.16082640703E+02  0.51100000000E-03 0.  1.
         12    1    3    3    0    0 -0.16372969075E+02 -0.15009646642E+02 -0.14812390127E+02  0.26697762264E+02  0.00000000000E+00 0. -1.
</event>
<event>
 7    1  0.1418970E-010  0.4778727E+02  0.7816164E-02  0.1312668E+00
        -11   -1    0    0    0    0  0.00000000000E+00  0.00000000000E+00  0.45593999997E+02  0.45594000000E+02  0.51100000000E-03 0.  1.
         11   -1    0    0    0    0 -0.00000000000E+00 -0.00000000000E+00 -0.45593999997E+02  0.45594000000E+02  0.51100000000E-03 0. -1.
    9900012    2    1    2    0    0  0.37557245406E+02 -0.14247708440E+02  0.16434089385E+02  0.47787272216E+02  0.20000005341E+02 0.  0.
         12    1    1    2    0    0 -0.37557245406E+02  0.14247708440E+02 -0.16434089385E+02  0.43400727784E+02  0.00000000000E+00 0. -1.
         11    1    3    3    0    0 -0.18555149578E+00 -0.21496862446E+01  0.39611720867E+00  0.21937386836E+01  0.51100000000E-03 0. -1.
        -11    1    3    3    0    0  0.30632084253E+02 -0.60823436948E+01  0.18041027382E+02  0.36066579541E+02  0.51100000000E-03 0.  1.
        -12    1    3    3    0    0  0.71107126484E+01 -0.60156785005E+01 -0.20030552061E+01  0.95269539911E+01  0.00000000000E+00 0.  1.
</event>
<event>
 7    1  0.1418970E-010  0.4778727E+02  0.7816164E-02  0.1312668E+00
        -11   -1    0    0    0    0  0.00000000000E+00  0.00000000000E+00  0.45593999997E+02  0.45594000000E+02  0.51100000000E-03 0.  1.
         11   -1    0    0    0    0 -0.00000000000E+00 -0.00000000000E+00 -0.45593999997E+02  0.45594000000E+02  0.51100000000E-03 0. -1.
    9900012    2    1    2    0    0  0.22600199420E+02 -0.29864860989E+02  0.21930447409E+02  0.47787268909E+02  0.19999990262E+02 0.  0.
         12    1    1    2    0    0 -0.22600199420E+02  0.29864860989E+02 -0.21930447409E+02  0.43400731091E+02  0.00000000000E+00 0. -1.
         11    1    3    3    0    0 -0.58683686227E+00 -0.34195580308E+01 -0.26735211234E+01  0.43801221544E+01  0.51100000000E-03 0. -1.
        -11    1    3    3    0    0  0.78341872000E+01 -0.46950894273E+01  0.65812026544E+01  0.11257467853E+02  0.51100000000E-03 0.  1.
         12    1    3    3    0    0  0.15352849082E+02 -0.21750213531E+02  0.18022765878E+02  0.32149678902E+02  0.00000000000E+00 0. -1.
</event>
<event>
 7    1  0.1418970E-010  0.4778727E+02  0.7816164E-02  0.1312668E+00
        -11   -1    0    0    0    0  0.00000000000E+00  0.00000000000E+00  0.45593999997E+02  0.45594000000E+02  0.51100000000E-03 0.  1.
         11   -1    0    0    0    0 -0.00000000000E+00 -0.00000000000E+00 -0.45593999997E+02  0.45594000000E+02  0.51100000000E-03 0. -1.
    9900012    2    1    2    0    0 -0.41644767432E+00  0.12166754009E+02  0.41658372288E+02  0.47787270588E+02  0.19999997920E+02 0.  0.
         12    1    1    2    0    0  0.41644767432E+00 -0.12166754009E+02 -0.41658372288E+02  0.43400729412E+02  0.00000000000E+00 0. -1.
         11    1    3    3    0    0  0.37065376293E+01  0.12771091716E+02  0.14831927532E+02  0.19920473875E+02  0.51100000000E-03 0. -1.
        -11    1    3    3    0    0  0.57492313783E+00  0.12354778295E+01  0.14349345244E+01  0.19788833801E+01  0.51100000000E-03 0.  1.
        -12    1    3    3    0    0 -0.46979084414E+01 -0.18398155365E+01  0.25391510231E+02  0.25887913333E+02  0.00000000000E+00 0.  1.
</event>
<event>
 7    1  0.1418970E-010  0.4778727E+02  0.7816164E-02  0.1312668E+00
        -11   -1    0    0    0    0  0.00000000000E+00  0.00000000000E+00  0.45593999997E+02  0.45594000000E+02  0.51100000000E-03 0.  1.
         11   -1    0    0    0    0 -0.00000000000E+00 -0.00000000000E+00 -0.45593999997E+02  0.45594000000E+02  0.51100000000E-03 0. -1.
    9900012    2    1    2    0    0 -0.30157002550E+01  0.52259565611E+01  0.42979276173E+02  0.47787271316E+02  0.20000001237E+02 0.  0.
         12    1    1    2    0    0  0.30157002550E+01 -0.52259565611E+01 -0.42979276173E+02  0.43400728684E+02  0.00000000000E+00 0. -1.
         11    1    3    3    0    0 -0.57846467468E+01 -0.14960409938E+01  0.51640196204E+01  0.78973017886E+01  0.51100000000E-03 0. -1.
        -11    1    3    3    0    0  0.21204301879E+01 -0.18745281091E+01  0.18798608172E+02  0.19010464205E+02  0.51100000000E-03 0.  1.
        -12    1    3    3    0    0  0.64851630386E+00  0.85965256640E+01  0.19016648380E+02  0.20879505322E+02  0.00000000000E+00 0.  1.
</event>
<event>
 7    1  0.1694644E-010  0.4778726E+02  0.7816164E-02  0.1312668E+00
        -11   -1    0    0    0    0  0.00000000000E+00  0.00000000000E+00  0.45593999997E+02  0.45594000000E+02  0.51100000000E-03 0. -1.
         11   -1    0    0    0    0 -0.00000000000E+00 -0.00000000000E+00 -0.45593999997E+02  0.45594000000E+02  0.51100000000E-03 0.  1.
    9900012    2    1    2    0    0 -0.23940884799E+00  0.25339453736E+02 -0.35234627927E+02  0.47787259944E+02  0.19999949389E+02 0.  0.
         12    1    1    2    0    0  0.23940884799E+00 -0.25339453736E+02  0.35234627927E+02  0.43400740056E+02  0.00000000000E+00 0. -1.
         11    1    3    3    0    0 -0.11168974747E+00  0.60483865862E+01 -0.12395692755E+00  0.60506876037E+01  0.51100000000E-03 0. -1.
        -11    1    3    3    0    0 -0.49226072090E+01  0.14748261834E+02 -0.20742157707E+02  0.25922584660E+02  0.51100000000E-03 0.  1.
         12    1    3    3    0    0  0.47948881085E+01  0.45428053159E+01 -0.14368513293E+02  0.15813987680E+02  0.00000000000E+00 0. -1.
</event>
<event>
 7    1  0.1418970E-010  0.4778723E+02  0.7816164E-02  0.1312668E+00
        -11   -1    0    0    0    0  0.00000000000E+00  0.00000000000E+00  0.45593999997E+02  0.45594000000E+02  0.51100000000E-03 0.  1.
         11   -1    0    0    0    0 -0.00000000000E+00 -0.00000000000E+00 -0.45593999997E+02  0.45594000000E+02  0.51100000000E-03 0. -1.
    9900012    2    1    2    0    0  0.35740691012E+02 -0.22078136104E+02  0.10898878026E+02  0.47787232379E+02  0.19999823710E+02 0.  0.
         12    1    1    2    0    0 -0.35740691012E+02  0.22078136104E+02 -0.10898878026E+02  0.43400767621E+02  0.00000000000E+00 0. -1.
         11    1    3    3    0    0  0.44461353744E+01 -0.62633680450E+01 -0.42681389621E+01  0.87872014598E+01  0.51100000000E-03 0. -1.
        -11    1    3    3    0    0  0.48959741676E-01  0.34588964909E+00 -0.40083827342E+00  0.53170319560E+00  0.51100000000E-03 0.  1.
        -12    1    3    3    0    0  0.31245595896E+02 -0.16160657708E+02  0.15567855262E+02  0.38468327724E+02  0.00000000000E+00 0.  1.
</event>
<event>
 7    1  0.1418970E-010  0.4778727E+02  0.7816164E-02  0.1312668E+00
        -11   -1    0    0    0    0  0.00000000000E+00  0.00000000000E+00  0.45593999997E+02  0.45594000000E+02  0.51100000000E-03 0.  1.
         11   -1    0    0    0    0 -0.00000000000E+00 -0.00000000000E+00 -0.45593999997E+02  0.45594000000E+02  0.51100000000E-03 0. -1.
    9900012    2    1    2    0    0 -0.20630596251E+02  0.80711229024E+01  0.37321027716E+02  0.47787266868E+02  0.19999980960E+02 0.  0.
         12    1    1    2    0    0  0.20630596251E+02 -0.80711229024E+01 -0.37321027716E+02  0.43400733132E+02  0.00000000000E+00 0. -1.
         11    1    3    3    0    0 -0.37271790705E+01  0.57873481990E+01  0.12617196789E+02  0.14372853512E+02  0.51100000000E-03 0. -1.
        -11    1    3    3    0    0 -0.13070696197E+01  0.62044402674E+01  0.82728689513E+01  0.10423237068E+02  0.51100000000E-03 0.  1.
        -12    1    3    3    0    0 -0.15596347560E+02 -0.39206655640E+01  0.16430961975E+02  0.22991176288E+02  0.00000000000E+00 0.  1.
</event>
<event>
 7    1  0.1418970E-010  0.4778728E+02  0.7816164E-02  0.1312668E+00
        -11   -1    0    0    0    0  0.00000000000E+00  0.00000000000E+00  0.45593999997E+02  0.45594000000E+02  0.51100000000E-03 0.  1.
         11   -1    0    0    0    0 -0.00000000000E+00 -0.00000000000E+00 -0.45593999997E+02  0.45594000000E+02  0.51100000000E-03 0. -1.
    9900012    2    1    2    0    0 -0.35466633365E+02  0.15541467865E+02  0.19601108725E+02  0.47787276862E+02  0.20000026526E+02 0.  0.
         12    1    1    2    0    0  0.35466633365E+02 -0.15541467865E+02 -0.19601108725E+02  0.43400723138E+02  0.00000000000E+00 0. -1.
         11    1    3    3    0    0 -0.92410404634E+01  0.13125113333E+02  0.26983803173E+01  0.16277182970E+02  0.51100000000E-03 0. -1.
        -11    1    3    3    0    0 -0.11083168992E+02  0.19332084778E+01  0.90917863219E+01  0.14464940674E+02  0.51100000000E-03 0.  1.
        -12    1    3    3    0    0 -0.15142423909E+02  0.48314605443E+00  0.78109420860E+01  0.17045153218E+02  0.00000000000E+00 0.  1.
</event>
<event>
 7    1  0.1418970E-010  0.4778727E+02  0.7816164E-02  0.1312668E+00
        -11   -1    0    0    0    0  0.00000000000E+00  0.00000000000E+00  0.45593999997E+02  0.45594000000E+02  0.51100000000E-03 0. -1.
         11   -1    0    0    0    0 -0.00000000000E+00 -0.00000000000E+00 -0.45593999997E+02  0.45594000000E+02  0.51100000000E-03 0.  1.
    9900012    2    1    2    0    0  0.19329581358E+02  0.16943877089E+02 -0.34969922061E+02  0.47787272642E+02  0.20000007283E+02 0.  0.
         12    1    1    2    0    0 -0.19329581358E+02 -0.16943877089E+02  0.34969922061E+02  0.43400727358E+02  0.00000000000E+00 0. -1.
         11    1    3    3    0    0  0.94301845034E+01  0.10186634576E+02 -0.19779575278E+02  0.24164591910E+02  0.51100000000E-03 0. -1.
        -11    1    3    3    0    0  0.22495573241E+00 -0.15623448733E+01 -0.95368495438E+01  0.96665933021E+01  0.51100000000E-03 0.  1.
         12    1    3    3    0    0  0.96744411225E+01  0.83195873862E+01 -0.56534972390E+01  0.13956087429E+02  0.00000000000E+00 0. -1.
</event>
<event>
 7    1  0.1418970E-010  0.4778727E+02  0.7816164E-02  0.1312668E+00
        -11   -1    0    0    0    0  0.00000000000E+00  0.00000000000E+00  0.45593999997E+02  0.45594000000E+02  0.51100000000E-03 0. -1.
         11   -1    0    0    0    0 -0.00000000000E+00 -0.00000000000E+00 -0.45593999997E+02  0.45594000000E+02  0.51100000000E-03 0.  1.
    9900012    2    1    2    0    0  0.20333630599E+02  0.20109235430E+02 -0.32646371531E+02  0.47787268934E+02  0.19999990379E+02 0.  0.
         12    1    1    2    0    0 -0.20333630599E+02 -0.20109235430E+02  0.32646371531E+02  0.43400731066E+02  0.00000000000E+00 0. -1.
         11    1    3    3    0    0  0.60457143472E+01  0.10519794342E+02 -0.13268586218E+02  0.17979769616E+02  0.51100000000E-03 0. -1.
        -11    1    3    3    0    0  0.80699957540E+01  0.13164352300E+02 -0.12439696362E+02  0.19828541267E+02  0.51100000000E-03 0.  1.
         12    1    3    3    0    0  0.62179204978E+01 -0.35749112122E+01 -0.69380889512E+01  0.99789580511E+01  0.00000000000E+00 0. -1.
</event>
<event>
 7    1  0.1418970E-010  0.4778727E+02  0.7816164E-02  0.1312668E+00
        -11   -1    0    0    0    0  0.00000000000E+00  0.00000000000E+00  0.45593999997E+02  0.45594000000E+02  0.51100000000E-03 0.  1.
         11   -1    0    0    0    0 -0.00000000000E+00 -0.00000000000E+00 -0.45593999997E+02  0.45594000000E+02  0.51100000000E-03 0. -1.
    9900012    2    1    2    0    0  0.17452269177E+02  0.16417561693E+02  0.36187087542E+02  0.47787270327E+02  0.19999996728E+02 0.  0.
         12    1    1    2    0    0 -0.17452269177E+02 -0.16417561693E+02 -0.36187087542E+02  0.43400729673E+02  0.00000000000E+00 0. -1.
         11    1    3    3    0    0 -0.20611779556E+01  0.80886794137E+01  0.11140989022E+02  0.13921092840E+02  0.51100000000E-03 0. -1.
        -11    1    3    3    0    0  0.93827779642E+01  0.31837292086E+01  0.17853524350E+02  0.20418643098E+02  0.51100000000E-03 0.  1.
        -12    1    3    3    0    0  0.10130669169E+02  0.51451530708E+01  0.71925741703E+01  0.13447534388E+02  0.00000000000E+00 0.  1.
</event>
<event>
 7    1  0.1418970E-010  0.4778727E+02  0.7816164E-02  0.1312668E+00
        -11   -1    0    0    0    0  0.00000000000E+00  0.00000000000E+00  0.45593999997E+02  0.45594000000E+02  0.51100000000E-03 0.  1.
         11   -1    0    0    0    0 -0.00000000000E+00 -0.00000000000E+00 -0.45593999997E+02  0.45594000000E+02  0.51100000000E-03 0. -1.
    9900012    2    1    2    0    0 -0.28838225877E+02  0.19446221616E+01  0.32375894049E+02  0.47787270253E+02  0.19999996390E+02 0.  0.
         12    1    1    2    0    0  0.28838225877E+02 -0.19446221616E+01 -0.32375894049E+02  0.43400729747E+02  0.00000000000E+00 0. -1.
         11    1    3    3    0    0 -0.97899195581E+01  0.26516904269E+01  0.81946366124E+01  0.13039403995E+02  0.51100000000E-03 0. -1.
        -11    1    3    3    0    0 -0.69864298223E+01 -0.71343766992E+01  0.15874991006E+02  0.18754329427E+02  0.51100000000E-03 0.  1.
        -12    1    3    3    0    0 -0.12061876497E+02  0.64273084339E+01  0.83062664306E+01  0.15993536831E+02  0.00000000000E+00 0.  1.
</event>
<event>
 7    1  0.1418970E-010  0.4778727E+02  0.7816164E-02  0.1312668E+00
        -11   -1    0    0    0    0  0.00000000000E+00  0.00000000000E+00  0.45593999997E+02  0.45594000000E+02  0.51100000000E-03 0.  1.
         11   -1    0    0    0    0 -0.00000000000E+00 -0.00000000000E+00 -0.45593999997E+02  0.45594000000E+02  0.51100000000E-03 0. -1.
    9900012    2    1    2    0    0  0.22765766788E+02 -0.71342829152E+01  0.36255278370E+02  0.47787270284E+02  0.19999996535E+02 0.  0.
         12    1    1    2    0    0 -0.22765766788E+02  0.71342829152E+01 -0.36255278370E+02  0.43400729716E+02  0.00000000000E+00 0. -1.
         11    1    3    3    0    0  0.84761496651E+00 -0.10228257610E+00  0.18528624598E+02  0.18548284088E+02  0.51100000000E-03 0. -1.
        -11    1    3    3    0    0  0.89081776160E+01 -0.13215963904E+01  0.60597264004E+01  0.10854608688E+02  0.51100000000E-03 0.  1.
        -12    1    3    3    0    0  0.13009974205E+02 -0.57104039487E+01  0.11666927372E+02  0.18384377508E+02  0.00000000000E+00 0.  1.
</event>
<event>
 7    1  0.1418970E-010  0.4778727E+02  0.7816164E-02  0.1312668E+00
        -11   -1    0    0    0    0  0.00000000000E+00  0.00000000000E+00  0.45593999997E+02  0.45594000000E+02  0.51100000000E-03 0.  1.
         11   -1    0    0    0    0 -0.00000000000E+00 -0.00000000000E+00 -0.45593999997E+02  0.45594000000E+02  0.51100000000E-03 0. -1.
    9900012    2    1    2    0    0 -0.82960673874E+01  0.22489162480E+02  0.36180601091E+02  0.47787273526E+02  0.20000011316E+02 0.  0.
         12    1    1    2    0    0  0.82960673874E+01 -0.22489162480E+02 -0.36180601091E+02  0.43400726474E+02  0.00000000000E+00 0. -1.
         11    1    3    3    0    0  0.20588203985E+01 -0.70107146497E-01  0.61041925688E+01  0.64424237383E+01  0.51100000000E-03 0. -1.
        -11    1    3    3    0    0  0.30436751896E+00 -0.13775076628E+01 -0.57479064555E-01  0.14119033436E+01  0.51100000000E-03 0.  1.
        -12    1    3    3    0    0 -0.10659255305E+02  0.23936777289E+02  0.30133887587E+02  0.39932946444E+02  0.00000000000E+00 0.  1.
</event>
<event>
 7    1  0.1418970E-010  0.4778727E+02  0.7816164E-02  0.1312668E+00
        -11   -1    0    0    0    0  0.00000000000E+00  0.00000000000E+00  0.45593999997E+02  0.45594000000E+02  0.51100000000E-03 0. -1.
         11   -1    0    0    0    0 -0.00000000000E+00 -0.00000000000E+00 -0.45593999997E+02  0.45594000000E+02  0.51100000000E-03 0.  1.
    9900012    2    1    2    0    0 -0.22433764847E+02 -0.50985160505E+00 -0.37149554561E+02  0.47787272379E+02  0.20000006086E+02 0.  0.
         12    1    1    2    0    0  0.22433764847E+02  0.50985160505E+00  0.37149554561E+02  0.43400727621E+02  0.00000000000E+00 0. -1.
         11    1    3    3    0    0 -0.23768045169E+01 -0.28570011801E+01  0.66540206507E+00  0.37755020360E+01  0.51100000000E-03 0. -1.
        -11    1    3    3    0    0 -0.18377789333E+02  0.13539526336E+00 -0.36651093771E+02  0.41000782279E+02  0.51100000000E-03 0.  1.
        -12    1    3    3    0    0 -0.16791709976E+01  0.22117543117E+01 -0.11638628553E+01  0.30109880639E+01  0.00000000000E+00 0.  1.
</event>
<event>
 7    1  0.1418970E-010  0.4778727E+02  0.7816164E-02  0.1312668E+00
        -11   -1    0    0    0    0  0.00000000000E+00  0.00000000000E+00  0.45593999997E+02  0.45594000000E+02  0.51100000000E-03 0.  1.
         11   -1    0    0    0    0 -0.00000000000E+00 -0.00000000000E+00 -0.45593999997E+02  0.45594000000E+02  0.51100000000E-03 0. -1.
    9900012    2    1    2    0    0  0.16583737613E+02  0.38684935848E+02  0.10586719950E+02  0.47787271272E+02  0.20000001039E+02 0.  0.
         12    1    1    2    0    0 -0.16583737613E+02 -0.38684935848E+02 -0.10586719950E+02  0.43400728728E+02  0.00000000000E+00 0. -1.
         11    1    3    3    0    0  0.21177625591E+01 -0.10466263424E+01 -0.91866796375E+00  0.25346195071E+01  0.51100000000E-03 0. -1.
        -11    1    3    3    0    0  0.11791391749E+02  0.17413717031E+02  0.31129178232E+01  0.21259461843E+02  0.51100000000E-03 0.  1.
         12    1    3    3    0    0  0.26745833049E+01  0.22317845160E+02  0.83924700908E+01  0.23993189922E+02  0.00000000000E+00 0. -1.
</event>
<event>
 7    1  0.1418970E-010  0.4778726E+02  0.7816164E-02  0.1312668E+00
        -11   -1    0    0    0    0  0.00000000000E+00  0.00000000000E+00  0.45593999997E+02  0.45594000000E+02  0.51100000000E-03 0.  1.
         11   -1    0    0    0    0 -0.00000000000E+00 -0.00000000000E+00 -0.45593999997E+02  0.45594000000E+02  0.51100000000E-03 0. -1.
    9900012    2    1    2    0    0  0.27275698301E+02  0.29503360428E+02  0.16407678616E+02  0.47787263694E+02  0.19999966486E+02 0.  0.
         12    1    1    2    0    0 -0.27275698301E+02 -0.29503360428E+02 -0.16407678616E+02  0.43400736306E+02  0.00000000000E+00 0. -1.
         11    1    3    3    0    0  0.36041046774E+01  0.81816158716E+01 -0.15583726484E+01  0.90750721412E+01  0.51100000000E-03 0. -1.
        -11    1    3    3    0    0  0.21392397704E+02  0.22180463940E+02  0.13537696012E+02  0.33658236343E+02  0.51100000000E-03 0.  1.
         12    1    3    3    0    0  0.22791959191E+01 -0.85871938349E+00  0.44283552531E+01  0.50539552100E+01  0.00000000000E+00 0. -1.
</event>
<event>
 7    1  0.1418970E-010  0.4778726E+02  0.7816164E-02  0.1312668E+00
        -11   -1    0    0    0    0  0.00000000000E+00  0.00000000000E+00  0.45593999997E+02  0.45594000000E+02  0.51100000000E-03 0.  1.
         11   -1    0    0    0    0 -0.00000000000E+00 -0.00000000000E+00 -0.45593999997E+02  0.45594000000E+02  0.51100000000E-03 0. -1.
    9900012    2    1    2    0    0 -0.36885963094E+02 -0.21008490399E+02  0.90384107813E+01  0.47787264849E+02  0.19999971750E+02 0.  0.
         12    1    1    2    0    0  0.36885963094E+02  0.21008490399E+02 -0.90384107813E+01  0.43400735151E+02  0.00000000000E+00 0. -1.
         11    1    3    3    0    0  0.18449701354E+00 -0.11248944539E+01  0.15741910067E+01  0.19435802704E+01  0.51100000000E-03 0. -1.
        -11    1    3    3    0    0 -0.28502445127E+02 -0.10673342571E+02 -0.13797225024E+01  0.30466592430E+02  0.51100000000E-03 0.  1.
        -12    1    3    3    0    0 -0.85680149805E+01 -0.92102533746E+01  0.88439422769E+01  0.15377092148E+02  0.00000000000E+00 0.  1.
</event>
<event>
 7    1  0.1418970E-010  0.4778727E+02  0.7816164E-02  0.1312668E+00
        -11   -1    0    0    0    0  0.00000000000E+00  0.00000000000E+00  0.45593999997E+02  0.45594000000E+02  0.51100000000E-03 0.  1.
         11   -1    0    0    0    0 -0.00000000000E+00 -0.00000000000E+00 -0.45593999997E+02  0.45594000000E+02  0.51100000000E-03 0. -1.
    9900012    2    1    2    0    0 -0.33947101543E+02  0.21936382164E+02  0.15811786703E+02  0.47787272307E+02  0.20000005754E+02 0.  0.
         12    1    1    2    0    0  0.33947101543E+02 -0.21936382164E+02 -0.15811786703E+02  0.43400727693E+02  0.00000000000E+00 0. -1.
         11    1    3    3    0    0 -0.97890041502E+00  0.16657971810E+01 -0.19506742765E+01  0.27455885826E+01  0.51100000000E-03 0. -1.
        -11    1    3    3    0    0 -0.30608978255E+02  0.22502860564E+02  0.15257297836E+02  0.40939875683E+02  0.51100000000E-03 0.  1.
         12    1    3    3    0    0 -0.23592228729E+01 -0.22322755814E+01  0.25051631430E+01  0.41018080414E+01  0.00000000000E+00 0. -1.
</event>
<event>
 7    1  0.1418970E-010  0.4778727E+02  0.7816164E-02  0.1312668E+00
        -11   -1    0    0    0    0  0.00000000000E+00  0.00000000000E+00  0.45593999997E+02  0.45594000000E+02  0.51100000000E-03 0.  1.
         11   -1    0    0    0    0 -0.00000000000E+00 -0.00000000000E+00 -0.45593999997E+02  0.45594000000E+02  0.51100000000E-03 0. -1.
    9900012    2    1    2    0    0  0.13298421520E+02  0.28662217660E+02  0.29753188923E+02  0.47787274346E+02  0.20000015055E+02 0.  0.
         12    1    1    2    0    0 -0.13298421520E+02 -0.28662217660E+02 -0.29753188923E+02  0.43400725654E+02  0.00000000000E+00 0. -1.
         11    1    3    3    0    0 -0.30061168905E+01  0.29093262975E+01  0.81906930416E+00  0.42628386142E+01  0.51100000000E-03 0. -1.
        -11    1    3    3    0    0  0.72569891358E+01  0.20591016326E+02  0.22104276047E+02  0.31068518865E+02  0.51100000000E-03 0.  1.
        -12    1    3    3    0    0  0.90475492751E+01  0.51618750370E+01  0.68298435725E+01  0.12455916867E+02  0.00000000000E+00 0.  1.
</event>
<event>
 7    1  0.1418970E-010  0.4778727E+02  0.7816164E-02  0.1312668E+00
        -11   -1    0    0    0    0  0.00000000000E+00  0.00000000000E+00  0.45593999997E+02  0.45594000000E+02  0.51100000000E-03 0. -1.
         11   -1    0    0    0    0 -0.00000000000E+00 -0.00000000000E+00 -0.45593999997E+02  0.45594000000E+02  0.51100000000E-03 0.  1.
    9900012    2    1    2    0    0  0.71139561717E+01 -0.32326730712E+02 -0.28071293572E+02  0.47787269433E+02  0.19999992651E+02 0.  0.
         12    1    1    2    0    0 -0.71139561717E+01  0.32326730712E+02  0.28071293572E+02  0.43400730567E+02  0.00000000000E+00 0. -1.
         11    1    3    3    0    0  0.16232490718E+01 -0.47482734149E+01  0.11150267694E+00  0.50193098210E+01  0.51100000000E-03 0. -1.
        -11    1    3    3    0    0  0.95685478528E+00 -0.12377454469E+02 -0.22900234819E+02  0.26048756309E+02  0.51100000000E-03 0.  1.
         12    1    3    3    0    0  0.45338523146E+01 -0.15201002828E+02 -0.52825614300E+01  0.16719203302E+02  0.00000000000E+00 0. -1.
</event>
<event>
 7    1  0.1418970E-010  0.4778727E+02  0.7816164E-02  0.1312668E+00
        -11   -1    0    0    0    0  0.00000000000E+00  0.00000000000E+00  0.45593999997E+02  0.45594000000E+02  0.51100000000E-03 0.  1.
         11   -1    0    0    0    0 -0.00000000000E+00 -0.00000000000E+00 -0.45593999997E+02  0.45594000000E+02  0.51100000000E-03 0. -1.
    9900012    2    1    2    0    0 -0.39691567950E+02 -0.10198442012E+02 -0.14289668978E+02  0.47787269300E+02  0.19999992048E+02 0.  0.
         12    1    1    2    0    0  0.39691567950E+02  0.10198442012E+02  0.14289668978E+02  0.43400730700E+02  0.00000000000E+00 0. -1.
         11    1    3    3    0    0 -0.37533870581E+01 -0.31777924220E+01  0.25789884657E+01  0.55531487331E+01  0.51100000000E-03 0. -1.
        -11    1    3    3    0    0 -0.31218749947E+02 -0.10335667886E+02 -0.15214738116E+02  0.36234301912E+02  0.51100000000E-03 0.  1.
         12    1    3    3    0    0 -0.47194309446E+01  0.33150182962E+01 -0.16539193279E+01  0.59998186546E+01  0.00000000000E+00 0. -1.
</event>
<event>
 7    1  0.1418970E-010  0.4778727E+02  0.7816164E-02  0.1312668E+00
        -11   -1    0    0    0    0  0.00000000000E+00  0.00000000000E+00  0.45593999997E+02  0.45594000000E+02  0.51100000000E-03 0. -1.
         11   -1    0    0    0    0 -0.00000000000E+00 -0.00000000000E+00 -0.45593999997E+02  0.45594000000E+02  0.51100000000E-03 0.  1.
    9900012    2    1    2    0    0  0.36181145837E+02  0.97388040169E+01 -0.21902138926E+02  0.47787270659E+02  0.19999998243E+02 0.  0.
         12    1    1    2    0    0 -0.36181145837E+02 -0.97388040169E+01  0.21902138926E+02  0.43400729341E+02  0.00000000000E+00 0. -1.
         11    1    3    3    0    0  0.86432353186E+01  0.61102129562E+01 -0.36252413205E+01  0.11188502761E+02  0.51100000000E-03 0. -1.
        -11    1    3    3    0    0  0.14494969578E+02  0.82089719721E+01 -0.49034856843E+01  0.17364778606E+02  0.51100000000E-03 0.  1.
         12    1    3    3    0    0  0.13042940941E+02 -0.45803809114E+01 -0.13373411922E+02  0.19233989292E+02  0.00000000000E+00 0. -1.
</event>
<event>
 7    1  0.1418970E-010  0.4778728E+02  0.7816164E-02  0.1312668E+00
        -11   -1    0    0    0    0  0.00000000000E+00  0.00000000000E+00  0.45593999997E+02  0.45594000000E+02  0.51100000000E-03 0. -1.
         11   -1    0    0    0    0 -0.00000000000E+00 -0.00000000000E+00 -0.45593999997E+02  0.45594000000E+02  0.51100000000E-03 0.  1.
    9900012    2    1    2    0    0 -0.41719570366E+02  0.11790647578E+02  0.20200553248E+01  0.47787279437E+02  0.20000038267E+02 0.  0.
         12    1    1    2    0    0  0.41719570366E+02 -0.11790647578E+02 -0.20200553248E+01  0.43400720563E+02  0.00000000000E+00 0. -1.
         11    1    3    3    0    0 -0.19198557724E+01  0.24476343774E+01  0.26597729445E+01  0.40928171972E+01  0.51100000000E-03 0. -1.
        -11    1    3    3    0    0 -0.37503647151E+02  0.12418215150E+02  0.10053427455E+01  0.39518936365E+02  0.51100000000E-03 0.  1.
         12    1    3    3    0    0 -0.22960674430E+01 -0.30752019493E+01 -0.16450603652E+01  0.41755258755E+01  0.00000000000E+00 0. -1.
</event>
<event>
 7    1  0.1418970E-010  0.4778727E+02  0.7816164E-02  0.1312668E+00
        -11   -1    0    0    0    0  0.00000000000E+00  0.00000000000E+00  0.45593999997E+02  0.45594000000E+02  0.51100000000E-03 0. -1.
         11   -1    0    0    0    0 -0.00000000000E+00 -0.00000000000E+00 -0.45593999997E+02  0.45594000000E+02  0.51100000000E-03 0.  1.
    9900012    2    1    2    0    0 -0.36566280544E+02 -0.15555632691E+02  0.17451436936E+02  0.47787271522E+02  0.20000002178E+02 0.  0.
         12    1    1    2    0    0  0.36566280544E+02  0.15555632691E+02 -0.17451436936E+02  0.43400728478E+02  0.00000000000E+00 0. -1.
         11    1    3    3    0    0 -0.11360187075E+02 -0.12450217843E+02  0.37952227881E+01  0.17276153825E+02  0.51100000000E-03 0. -1.
        -11    1    3    3    0    0 -0.19558004226E+02 -0.62569091935E+01  0.12186714801E+02  0.23878451789E+02  0.51100000000E-03 0.  1.
         12    1    3    3    0    0 -0.56480892436E+01  0.31514943452E+01  0.14694993465E+01  0.66326659076E+01  0.00000000000E+00 0. -1.
</event>
<event>
 7    1  0.1418970E-010  0.4778727E+02  0.7816164E-02  0.1312668E+00
        -11   -1    0    0    0    0  0.00000000000E+00  0.00000000000E+00  0.45593999997E+02  0.45594000000E+02  0.51100000000E-03 0. -1.
         11   -1    0    0    0    0 -0.00000000000E+00 -0.00000000000E+00 -0.45593999997E+02  0.45594000000E+02  0.51100000000E-03 0.  1.
    9900012    2    1    2    0    0  0.22344212032E+02 -0.32281924488E+02 -0.18499643292E+02  0.47787271182E+02  0.20000000628E+02 0.  0.
         12    1    1    2    0    0 -0.22344212032E+02  0.32281924488E+02  0.18499643292E+02  0.43400728818E+02  0.00000000000E+00 0. -1.
         11    1    3    3    0    0  0.31092959074E+01 -0.85467655107E+01  0.28590083685E+01  0.95335644356E+01  0.51100000000E-03 0. -1.
        -11    1    3    3    0    0  0.54306525790E+01 -0.55158931090E+01 -0.10235235155E+02  0.12832657681E+02  0.51100000000E-03 0.  1.
        -12    1    3    3    0    0  0.13804263545E+02 -0.18219265869E+02 -0.11123416505E+02  0.25421049065E+02  0.00000000000E+00 0.  1.
</event>
<event>
 7    1  0.1418970E-010  0.4778727E+02  0.7816164E-02  0.1312668E+00
        -11   -1    0    0    0    0  0.00000000000E+00  0.00000000000E+00  0.45593999997E+02  0.45594000000E+02  0.51100000000E-03 0.  1.
         11   -1    0    0    0    0 -0.00000000000E+00 -0.00000000000E+00 -0.45593999997E+02  0.45594000000E+02  0.51100000000E-03 0. -1.
    9900012    2    1    2    0    0  0.22507664919E+01 -0.31477076405E+02  0.29795150634E+02  0.47787270857E+02  0.19999999148E+02 0.  0.
         12    1    1    2    0    0 -0.22507664919E+01  0.31477076405E+02 -0.29795150634E+02  0.43400729143E+02  0.00000000000E+00 0. -1.
         11    1    3    3    0    0 -0.29167752041E+01 -0.28161520151E+02  0.28319912650E+02  0.40044927863E+02  0.51100000000E-03 0.  1.
        -11    1    3    3    0    0  0.16963098914E+01 -0.33053675115E+01 -0.49957804075E+00  0.37486664447E+01  0.51100000000E-03 0. -1.
        -12    1    3    3    0    0  0.34712318047E+01 -0.10188742656E-01  0.19748160246E+01  0.39936765497E+01  0.00000000000E+00 0.  1.
</event>
<event>
 7    1  0.1418970E-010  0.4778727E+02  0.7816164E-02  0.1312668E+00
        -11   -1    0    0    0    0  0.00000000000E+00  0.00000000000E+00  0.45593999997E+02  0.45594000000E+02  0.51100000000E-03 0.  1.
         11   -1    0    0    0    0 -0.00000000000E+00 -0.00000000000E+00 -0.45593999997E+02  0.45594000000E+02  0.51100000000E-03 0. -1.
    9900012    2    1    2    0    0  0.37288959637E+02 -0.18432420719E+02  0.12385581172E+02  0.47787271143E+02  0.20000000450E+02 0.  0.
         12    1    1    2    0    0 -0.37288959637E+02  0.18432420719E+02 -0.12385581172E+02  0.43400728857E+02  0.00000000000E+00 0. -1.
         11    1    3    3    0    0  0.11065781364E+02 -0.44367225341E+01  0.59280289682E+01  0.13314561643E+02  0.51100000000E-03 0. -1.
        -11    1    3    3    0    0  0.28487726788E+02 -0.12841095809E+02  0.53622290174E+01  0.31704854824E+02  0.51100000000E-03 0.  1.
         12    1    3    3    0    0 -0.22645485153E+01 -0.11546023753E+01  0.10953231862E+01  0.27678546756E+01  0.00000000000E+00 0. -1.
</event>
<event>
 7    1  0.1673014E-010  0.4778725E+02  0.7816164E-02  0.1312668E+00
        -11   -1    0    0    0    0  0.00000000000E+00  0.00000000000E+00  0.45593999997E+02  0.45594000000E+02  0.51100000000E-03 0. -1.
         11   -1    0    0    0    0 -0.00000000000E+00 -0.00000000000E+00 -0.45593999997E+02  0.45594000000E+02  0.51100000000E-03 0.  1.
    9900012    2    1    2    0    0 -0.53274698532E+01 -0.35447353682E+02 -0.24468924949E+02  0.47787249935E+02  0.19999903752E+02 0.  0.
         12    1    1    2    0    0  0.53274698532E+01  0.35447353682E+02  0.24468924949E+02  0.43400750065E+02  0.00000000000E+00 0. -1.
         11    1    3    3    0    0  0.18161835562E+01 -0.86965713477E+01  0.74980177726E+00  0.89157769645E+01  0.51100000000E-03 0. -1.
        -11    1    3    3    0    0 -0.31790636958E+01 -0.22569932754E+02 -0.15468255271E+02  0.27545875043E+02  0.51100000000E-03 0.  1.
        -12    1    3    3    0    0 -0.39645897136E+01 -0.41808495802E+01 -0.97504714546E+01  0.11325597927E+02  0.00000000000E+00 0.  1.
</event>
<event>
 7    1  0.1418970E-010  0.4778727E+02  0.7816164E-02  0.1312668E+00
        -11   -1    0    0    0    0  0.00000000000E+00  0.00000000000E+00  0.45593999997E+02  0.45594000000E+02  0.51100000000E-03 0.  1.
         11   -1    0    0    0    0 -0.00000000000E+00 -0.00000000000E+00 -0.45593999997E+02  0.45594000000E+02  0.51100000000E-03 0. -1.
    9900012    2    1    2    0    0  0.77342233707E+01 -0.42502186183E+02  0.41676281062E+01  0.47787272292E+02  0.20000005690E+02 0.  0.
         12    1    1    2    0    0 -0.77342233707E+01  0.42502186183E+02 -0.41676281062E+01  0.43400727708E+02  0.00000000000E+00 0. -1.
         11    1    3    3    0    0  0.46613222371E+01 -0.11146995758E+02  0.25703290993E+01  0.12352733761E+02  0.51100000000E-03 0. -1.
        -11    1    3    3    0    0  0.46480878098E+01 -0.31161248313E+02  0.47910348075E+01  0.31868199376E+02  0.51100000000E-03 0.  1.
         12    1    3    3    0    0 -0.15751866762E+01 -0.19394211269E+00 -0.31937358006E+01  0.35663391555E+01  0.00000000000E+00 0. -1.
</event>
<event>
 7    1  0.1418970E-010  0.4778727E+02  0.7816164E-02  0.1312668E+00
        -11   -1    0    0    0    0  0.00000000000E+00  0.00000000000E+00  0.45593999997E+02  0.45594000000E+02  0.51100000000E-03 0. -1.
         11   -1    0    0    0    0 -0.00000000000E+00 -0.00000000000E+00 -0.45593999997E+02  0.45594000000E+02  0.51100000000E-03 0.  1.
    9900012    2    1    2    0    0  0.14397546441E+02 -0.40869081761E+02 -0.24600836676E+01  0.47787271905E+02  0.20000003925E+02 0.  0.
         12    1    1    2    0    0 -0.14397546441E+02  0.40869081761E+02  0.24600836676E+01  0.43400728095E+02  0.00000000000E+00 0. -1.
         11    1    3    3    0    0  0.33548972179E+01 -0.22681571054E+01  0.43433562861E+01  0.59384018125E+01  0.51100000000E-03 0. -1.
        -11    1    3    3    0    0  0.73996036569E+01 -0.13946145889E+02 -0.60739088802E+01  0.16915717212E+02  0.51100000000E-03 0.  1.
         12    1    3    3    0    0  0.36430455664E+01 -0.24654778766E+02 -0.72953107348E+00  0.24933152881E+02  0.00000000000E+00 0. -1.
</event>
<event>
 7    1  0.1418970E-010  0.4778728E+02  0.7816164E-02  0.1312668E+00
        -11   -1    0    0    0    0  0.00000000000E+00  0.00000000000E+00  0.45593999997E+02  0.45594000000E+02  0.51100000000E-03 0.  1.
         11   -1    0    0    0    0 -0.00000000000E+00 -0.00000000000E+00 -0.45593999997E+02  0.45594000000E+02  0.51100000000E-03 0. -1.
    9900012    2    1    2    0    0 -0.14933220387E+02 -0.30084741594E+02  0.27486898495E+02  0.47787281840E+02  0.20000049222E+02 0.  0.
         12    1    1    2    0    0  0.14933220387E+02  0.30084741594E+02 -0.27486898495E+02  0.43400718160E+02  0.00000000000E+00 0. -1.
         11    1    3    3    0    0 -0.71821887036E+01  0.33947213518E+00  0.37465617865E+01  0.81077617988E+01  0.51100000000E-03 0. -1.
        -11    1    3    3    0    0 -0.12001438086E+01 -0.14557043899E+02  0.11639218998E+02  0.18676704511E+02  0.51100000000E-03 0.  1.
         12    1    3    3    0    0 -0.65508878750E+01 -0.15867169830E+02  0.12101117710E+02  0.21002815530E+02  0.00000000000E+00 0. -1.
</event>
<event>
 7    1  0.1418970E-010  0.4778728E+02  0.7816164E-02  0.1312668E+00
        -11   -1    0    0    0    0  0.00000000000E+00  0.00000000000E+00  0.45593999997E+02  0.45594000000E+02  0.51100000000E-03 0.  1.
         11   -1    0    0    0    0 -0.00000000000E+00 -0.00000000000E+00 -0.45593999997E+02  0.45594000000E+02  0.51100000000E-03 0. -1.
    9900012    2    1    2    0    0  0.22299501037E+02  0.19504034714E+02  0.31716678118E+02  0.47787276648E+02  0.20000025549E+02 0.  0.
         12    1    1    2    0    0 -0.22299501037E+02 -0.19504034714E+02 -0.31716678118E+02  0.43400723352E+02  0.00000000000E+00 0. -1.
         11    1    3    3    0    0  0.12545600851E+02  0.58809951617E+01  0.96618694467E+01  0.16891711762E+02  0.51100000000E-03 0. -1.
        -11    1    3    3    0    0  0.62894131705E+01  0.38124261637E+01  0.10157910491E+01  0.74244961444E+01  0.51100000000E-03 0.  1.
        -12    1    3    3    0    0  0.34644870155E+01  0.98106133888E+01  0.21039017622E+02  0.23471068741E+02  0.00000000000E+00 0.  1.
</event>
<event>
 7    1  0.1666684E-010  0.4778727E+02  0.7816164E-02  0.1312668E+00
        -11   -1    0    0    0    0  0.00000000000E+00  0.00000000000E+00  0.45593999997E+02  0.45594000000E+02  0.51100000000E-03 0. -1.
         11   -1    0    0    0    0 -0.00000000000E+00 -0.00000000000E+00 -0.45593999997E+02  0.45594000000E+02  0.51100000000E-03 0.  1.
    9900012    2    1    2    0    0  0.18314505909E+02 -0.35031821061E+01 -0.39190942796E+02  0.47787269490E+02  0.19999992914E+02 0.  0.
         12    1    1    2    0    0 -0.18314505909E+02  0.35031821061E+01  0.39190942796E+02  0.43400730510E+02  0.00000000000E+00 0. -1.
         11    1    3    3    0    0  0.93963462067E-01 -0.50169154731E+01 -0.93318722077E+01  0.10595381501E+02  0.51100000000E-03 0. -1.
        -11    1    3    3    0    0  0.15344283807E+02 -0.36550924269E+01 -0.17957719736E+02  0.23901599205E+02  0.51100000000E-03 0.  1.
        -12    1    3    3    0    0  0.28762586404E+01  0.51688257939E+01 -0.11901350852E+02  0.13290288784E+02  0.00000000000E+00 0.  1.
</event>
<event>
 7    1  0.1418970E-010  0.4778727E+02  0.7816164E-02  0.1312668E+00
        -11   -1    0    0    0    0  0.00000000000E+00  0.00000000000E+00  0.45593999997E+02  0.45594000000E+02  0.51100000000E-03 0.  1.
         11   -1    0    0    0    0 -0.00000000000E+00 -0.00000000000E+00 -0.45593999997E+02  0.45594000000E+02  0.51100000000E-03 0. -1.
    9900012    2    1    2    0    0  0.11640970417E+02  0.10490399851E+01  0.41797258385E+02  0.47787268605E+02  0.19999988877E+02 0.  0.
         12    1    1    2    0    0 -0.11640970417E+02 -0.10490399851E+01 -0.41797258385E+02  0.43400731395E+02  0.00000000000E+00 0. -1.
         11    1    3    3    0    0  0.61889640780E+01 -0.74396916395E+00  0.18103710722E+01  0.64910869780E+01  0.51100000000E-03 0. -1.
        -11    1    3    3    0    0  0.62109666080E+01  0.33568899734E+01  0.19554459995E+02  0.20789942820E+02  0.51100000000E-03 0.  1.
        -12    1    3    3    0    0 -0.75896026872E+00 -0.15638808243E+01  0.20432427318E+02  0.20506238807E+02  0.00000000000E+00 0.  1.
</event>
<event>
 7    1  0.1418970E-010  0.4778726E+02  0.7816164E-02  0.1312668E+00
        -11   -1    0    0    0    0  0.00000000000E+00  0.00000000000E+00  0.45593999997E+02  0.45594000000E+02  0.51100000000E-03 0.  1.
         11   -1    0    0    0    0 -0.00000000000E+00 -0.00000000000E+00 -0.45593999997E+02  0.45594000000E+02  0.51100000000E-03 0. -1.
    9900012    2    1    2    0    0  0.26253391070E+02 -0.59165939542E+01  0.34049631622E+02  0.47787262215E+02  0.19999959742E+02 0.  0.
         12    1    1    2    0    0 -0.26253391070E+02  0.59165939542E+01 -0.34049631622E+02  0.43400737785E+02  0.00000000000E+00 0. -1.
         11    1    3    3    0    0  0.65508428955E+01 -0.88335940989E+01  0.71875243174E+01  0.13137976763E+02  0.51100000000E-03 0. -1.
        -11    1    3    3    0    0 -0.75441348910E+00  0.15293246553E+00  0.30005819525E+01  0.30977443997E+01  0.51100000000E-03 0.  1.
        -12    1    3    3    0    0  0.20456961664E+02  0.27640676792E+01  0.23861525352E+02  0.31551541052E+02  0.00000000000E+00 0.  1.
</event>
<event>
 7    1  0.1418970E-010  0.4778727E+02  0.7816164E-02  0.1312668E+00
        -11   -1    0    0    0    0  0.00000000000E+00  0.00000000000E+00  0.45593999997E+02  0.45594000000E+02  0.51100000000E-03 0. -1.
         11   -1    0    0    0    0 -0.00000000000E+00 -0.00000000000E+00 -0.45593999997E+02  0.45594000000E+02  0.51100000000E-03 0.  1.
    9900012    2    1    2    0    0 -0.16395296976E+02  0.39990340177E+02 -0.39484441150E+01  0.47787270958E+02  0.19999999607E+02 0.  0.
         12    1    1    2    0    0  0.16395296976E+02 -0.39990340177E+02  0.39484441150E+01  0.43400729042E+02  0.00000000000E+00 0. -1.
         11    1    3    3    0    0 -0.80627552831E+01  0.46845544715E+01  0.86945622677E+00  0.93653098050E+01  0.51100000000E-03 0. -1.
        -11    1    3    3    0    0 -0.54863181643E+00  0.15393482591E+02  0.29342786354E+01  0.15680251737E+02  0.51100000000E-03 0.  1.
        -12    1    3    3    0    0 -0.77839098764E+01  0.19912303115E+02 -0.77521789771E+01  0.22741709417E+02  0.00000000000E+00 0.  1.
</event>
<event>
 7    1  0.1418970E-010  0.4778727E+02  0.7816164E-02  0.1312668E+00
        -11   -1    0    0    0    0  0.00000000000E+00  0.00000000000E+00  0.45593999997E+02  0.45594000000E+02  0.51100000000E-03 0.  1.
         11   -1    0    0    0    0 -0.00000000000E+00 -0.00000000000E+00 -0.45593999997E+02  0.45594000000E+02  0.51100000000E-03 0. -1.
    9900012    2    1    2    0    0  0.15731463651E+02  0.37547956353E+02  0.15043117703E+02  0.47787269994E+02  0.19999995209E+02 0.  0.
         12    1    1    2    0    0 -0.15731463651E+02 -0.37547956353E+02 -0.15043117703E+02  0.43400730006E+02  0.00000000000E+00 0. -1.
         11    1    3    3    0    0  0.24361658590E+01  0.57317420130E+01 -0.46524494926E+01  0.77738701519E+01  0.51100000000E-03 0. -1.
        -11    1    3    3    0    0  0.61265868209E+01  0.14930122809E+02  0.64172997182E+01  0.17367365059E+02  0.51100000000E-03 0.  1.
         12    1    3    3    0    0  0.71687109712E+01  0.16886091531E+02  0.13278267477E+02  0.22646034782E+02  0.00000000000E+00 0. -1.
</event>
<event>
 7    1  0.1418970E-010  0.4778727E+02  0.7816164E-02  0.1312668E+00
        -11   -1    0    0    0    0  0.00000000000E+00  0.00000000000E+00  0.45593999997E+02  0.45594000000E+02  0.51100000000E-03 0.  1.
         11   -1    0    0    0    0 -0.00000000000E+00 -0.00000000000E+00 -0.45593999997E+02  0.45594000000E+02  0.51100000000E-03 0. -1.
    9900012    2    1    2    0    0  0.91414350572E+00 -0.26467642833E+02  0.34383884761E+02  0.47787270666E+02  0.19999998275E+02 0.  0.
         12    1    1    2    0    0 -0.91414350572E+00  0.26467642833E+02 -0.34383884761E+02  0.43400729334E+02  0.00000000000E+00 0. -1.
         11    1    3    3    0    0  0.19606122487E+01  0.60241642176E+00  0.59184379992E+00  0.21347564919E+01  0.51100000000E-03 0. -1.
        -11    1    3    3    0    0  0.29424163406E+01 -0.21505796589E+02  0.31837068993E+02  0.38532532530E+02  0.51100000000E-03 0.  1.
         12    1    3    3    0    0 -0.39888850836E+01 -0.55642626654E+01  0.19549719685E+01  0.71199816445E+01  0.00000000000E+00 0. -1.
</event>
<event>
 7    1  0.1418970E-010  0.4778727E+02  0.7816164E-02  0.1312668E+00
        -11   -1    0    0    0    0  0.00000000000E+00  0.00000000000E+00  0.45593999997E+02  0.45594000000E+02  0.51100000000E-03 0. -1.
         11   -1    0    0    0    0 -0.00000000000E+00 -0.00000000000E+00 -0.45593999997E+02  0.45594000000E+02  0.51100000000E-03 0.  1.
    9900012    2    1    2    0    0  0.26855922824E+01 -0.43089303331E+02 -0.44410310490E+01  0.47787271616E+02  0.20000002606E+02 0.  0.
         12    1    1    2    0    0 -0.26855922824E+01  0.43089303331E+02  0.44410310490E+01  0.43400728384E+02  0.00000000000E+00 0. -1.
         11    1    3    3    0    0  0.12060136471E+00 -0.14855672365E+02 -0.55144696138E+01  0.15846605993E+02  0.51100000000E-03 0.  1.
        -11    1    3    3    0    0  0.52707058627E+01 -0.27552980195E+02  0.34652065462E+01  0.28265786998E+02  0.51100000000E-03 0. -1.
         12    1    3    3    0    0 -0.27057149450E+01 -0.68065077077E+00 -0.23917679813E+01  0.36748786255E+01  0.00000000000E+00 0. -1.
</event>
<event>
 7    1  0.1418970E-010  0.4778728E+02  0.7816164E-02  0.1312668E+00
        -11   -1    0    0    0    0  0.00000000000E+00  0.00000000000E+00  0.45593999997E+02  0.45594000000E+02  0.51100000000E-03 0.  1.
         11   -1    0    0    0    0 -0.00000000000E+00 -0.00000000000E+00 -0.45593999997E+02  0.45594000000E+02  0.51100000000E-03 0. -1.
    9900012    2    1    2    0    0  0.16426690798E+02  0.99046517938E+01  0.38931784429E+02  0.47787284147E+02  0.20000059740E+02 0.  0.
         12    1    1    2    0    0 -0.16426690798E+02 -0.99046517938E+01 -0.38931784429E+02  0.43400715853E+02  0.00000000000E+00 0. -1.
         11    1    3    3    0    0 -0.25036934401E+01 -0.12828785696E+01  0.83440040637E+01  0.88054904657E+01  0.51100000000E-03 0. -1.
        -11    1    3    3    0    0  0.61791940953E+01  0.93560912870E+01  0.12751500653E+02  0.16979978003E+02  0.51100000000E-03 0.  1.
        -12    1    3    3    0    0  0.12751190143E+02  0.18314390764E+01  0.17836279712E+02  0.22001815678E+02  0.00000000000E+00 0.  1.
</event>
<event>
 7    1  0.1418970E-010  0.4778727E+02  0.7816164E-02  0.1312668E+00
        -11   -1    0    0    0    0  0.00000000000E+00  0.00000000000E+00  0.45593999997E+02  0.45594000000E+02  0.51100000000E-03 0.  1.
         11   -1    0    0    0    0 -0.00000000000E+00 -0.00000000000E+00 -0.45593999997E+02  0.45594000000E+02  0.51100000000E-03 0. -1.
    9900012    2    1    2    0    0  0.31079079363E+02 -0.37734055164E+01  0.30057873426E+02  0.47787268230E+02  0.19999987169E+02 0.  0.
         12    1    1    2    0    0 -0.31079079363E+02  0.37734055164E+01 -0.30057873426E+02  0.43400731770E+02  0.00000000000E+00 0. -1.
         11    1    3    3    0    0  0.28977981318E+02 -0.44799349407E+01  0.28142945935E+02  0.40642571578E+02  0.51100000000E-03 0.  1.
        -11    1    3    3    0    0 -0.12956594415E-01  0.12503440378E+01  0.39604704749E+01  0.41531740549E+01  0.51100000000E-03 0. -1.
         12    1    3    3    0    0  0.21140546396E+01 -0.54381461348E+00 -0.20455429835E+01  0.29915225974E+01  0.00000000000E+00 0. -1.
</event>
<event>
 7    1  0.1464014E-010  0.4778727E+02  0.7816164E-02  0.1312668E+00
        -11   -1    0    0    0    0  0.00000000000E+00  0.00000000000E+00  0.45593999997E+02  0.45594000000E+02  0.51100000000E-03 0. -1.
         11   -1    0    0    0    0 -0.00000000000E+00 -0.00000000000E+00 -0.45593999997E+02  0.45594000000E+02  0.51100000000E-03 0.  1.
    9900012    2    1    2    0    0  0.68354371869E+00  0.38028140895E+02 -0.20904947276E+02  0.47787267834E+02  0.19999985363E+02 0.  0.
         12    1    1    2    0    0 -0.68354371869E+00 -0.38028140895E+02  0.20904947276E+02  0.43400732166E+02  0.00000000000E+00 0. -1.
         11    1    3    3    0    0  0.52208676418E+01  0.15005237559E+02 -0.45489443891E+01  0.16525964676E+02  0.51100000000E-03 0. -1.
        -11    1    3    3    0    0 -0.35628571710E+01  0.24361411782E+02 -0.13824074753E+02  0.28236100621E+02  0.51100000000E-03 0.  1.
        -12    1    3    3    0    0 -0.97446675213E+00 -0.13385084472E+01 -0.25319281343E+01  0.30252025373E+01  0.00000000000E+00 0.  1.
</event>
<event>
 7    1  0.1418970E-010  0.4778727E+02  0.7816164E-02  0.1312668E+00
        -11   -1    0    0    0    0  0.00000000000E+00  0.00000000000E+00  0.45593999997E+02  0.45594000000E+02  0.51100000000E-03 0.  1.
         11   -1    0    0    0    0 -0.00000000000E+00 -0.00000000000E+00 -0.45593999997E+02  0.45594000000E+02  0.51100000000E-03 0. -1.
    9900012    2    1    2    0    0  0.28272817693E+02  0.22749797368E+02  0.23805838696E+02  0.47787268939E+02  0.19999990402E+02 0.  0.
         12    1    1    2    0    0 -0.28272817693E+02 -0.22749797368E+02 -0.23805838696E+02  0.43400731061E+02  0.00000000000E+00 0. -1.
         11    1    3    3    0    0 -0.17039291485E+01 -0.64759280313E+00  0.18987120917E+01  0.26320826070E+01  0.51100000000E-03 0. -1.
        -11    1    3    3    0    0  0.69191012744E+01  0.26957010883E+01  0.40175281442E+00  0.74365430402E+01  0.51100000000E-03 0.  1.
        -12    1    3    3    0    0  0.23057645567E+02  0.20701689083E+02  0.21505373790E+02  0.37718643292E+02  0.00000000000E+00 0.  1.
</event>
<event>
 7    1  0.1418970E-010  0.4778727E+02  0.7816164E-02  0.1312668E+00
        -11   -1    0    0    0    0  0.00000000000E+00  0.00000000000E+00  0.45593999997E+02  0.45594000000E+02  0.51100000000E-03 0. -1.
         11   -1    0    0    0    0 -0.00000000000E+00 -0.00000000000E+00 -0.45593999997E+02  0.45594000000E+02  0.51100000000E-03 0.  1.
    9900012    2    1    2    0    0  0.10971077591E+02  0.17659435543E+02 -0.38097283725E+02  0.47787271499E+02  0.20000002072E+02 0.  0.
         12    1    1    2    0    0 -0.10971077591E+02 -0.17659435543E+02  0.38097283725E+02  0.43400728501E+02  0.00000000000E+00 0. -1.
         11    1    3    3    0    0 -0.23143724544E+01  0.59819346919E+01 -0.10542065112E+02  0.12339975673E+02  0.51100000000E-03 0. -1.
        -11    1    3    3    0    0 -0.27957183973E+01  0.23683921649E+01 -0.54914039688E+01  0.66015786456E+01  0.51100000000E-03 0.  1.
        -12    1    3    3    0    0  0.16081168443E+02  0.93091086861E+01 -0.22063814644E+02  0.28845717181E+02  0.00000000000E+00 0.  1.
</event>
<event>
 7    1  0.1418970E-010  0.4778727E+02  0.7816164E-02  0.1312668E+00
        -11   -1    0    0    0    0  0.00000000000E+00  0.00000000000E+00  0.45593999997E+02  0.45594000000E+02  0.51100000000E-03 0. -1.
         11   -1    0    0    0    0 -0.00000000000E+00 -0.00000000000E+00 -0.45593999997E+02  0.45594000000E+02  0.51100000000E-03 0.  1.
    9900012    2    1    2    0    0  0.26304484445E+02 -0.18046449576E+02 -0.29428270259E+02  0.47787270345E+02  0.19999996809E+02 0.  0.
         12    1    1    2    0    0 -0.26304484445E+02  0.18046449576E+02  0.29428270259E+02  0.43400729655E+02  0.00000000000E+00 0. -1.
         11    1    3    3    0    0  0.15376208400E+02 -0.18907857731E+01 -0.63879231494E+01  0.16757339229E+02  0.51100000000E-03 0. -1.
        -11    1    3    3    0    0  0.42744935348E+01 -0.16736524505E+01 -0.32719886408E+01  0.56372260404E+01  0.51100000000E-03 0.  1.
         12    1    3    3    0    0  0.66537825096E+01 -0.14482011353E+02 -0.19768358468E+02  0.25392705075E+02  0.00000000000E+00 0. -1.
</event>
<event>
 7    1  0.1418970E-010  0.4778726E+02  0.7816164E-02  0.1312668E+00
        -11   -1    0    0    0    0  0.00000000000E+00  0.00000000000E+00  0.45593999997E+02  0.45594000000E+02  0.51100000000E-03 0.  1.
         11   -1    0    0    0    0 -0.00000000000E+00 -0.00000000000E+00 -0.45593999997E+02  0.45594000000E+02  0.51100000000E-03 0. -1.
    9900012    2    1    2    0    0 -0.40166169632E+01 -0.42699199250E+02  0.66535384268E+01  0.47787258048E+02  0.19999940744E+02 0.  0.
         12    1    1    2    0    0  0.40166169632E+01  0.42699199250E+02 -0.66535384268E+01  0.43400741952E+02  0.00000000000E+00 0. -1.
         11    1    3    3    0    0 -0.68634642561E+01 -0.37423630346E+02 -0.20859174421E+00  0.38048373955E+02  0.51100000000E-03 0. -1.
        -11    1    3    3    0    0 -0.44972476337E+00 -0.22887520477E+01  0.15063495757E+01  0.27766396244E+01  0.51100000000E-03 0.  1.
         12    1    3    3    0    0  0.32965720563E+01 -0.29868168560E+01  0.53557805954E+01  0.69622444685E+01  0.00000000000E+00 0. -1.
</event>
<event>
 7    1  0.1418970E-010  0.4778728E+02  0.7816164E-02  0.1312668E+00
        -11   -1    0    0    0    0  0.00000000000E+00  0.00000000000E+00  0.45593999997E+02  0.45594000000E+02  0.51100000000E-03 0. -1.
         11   -1    0    0    0    0 -0.00000000000E+00 -0.00000000000E+00 -0.45593999997E+02  0.45594000000E+02  0.51100000000E-03 0.  1.
    9900012    2    1    2    0    0 -0.12891482091E+02  0.38032313135E+02  0.16461336004E+02  0.47787277241E+02  0.20000028254E+02 0.  0.
         12    1    1    2    0    0  0.12891482091E+02 -0.38032313135E+02 -0.16461336004E+02  0.43400722759E+02  0.00000000000E+00 0. -1.
         11    1    3    3    0    0  0.16184357692E+01  0.43514192809E+01  0.80203736376E+01  0.92671774368E+01  0.51100000000E-03 0. -1.
        -11    1    3    3    0    0 -0.64717535510E+01  0.19697781141E+02  0.84547035589E+01  0.22391252498E+02  0.51100000000E-03 0.  1.
         12    1    3    3    0    0 -0.80381643089E+01  0.13983112713E+02 -0.13741192268E-01  0.16128847306E+02  0.00000000000E+00 0. -1.
</event>
<event>
 7    1  0.1418970E-010  0.4778726E+02  0.7816164E-02  0.1312668E+00
        -11   -1    0    0    0    0  0.00000000000E+00  0.00000000000E+00  0.45593999997E+02  0.45594000000E+02  0.51100000000E-03 0.  1.
         11   -1    0    0    0    0 -0.00000000000E+00 -0.00000000000E+00 -0.45593999997E+02  0.45594000000E+02  0.51100000000E-03 0. -1.
    9900012    2    1    2    0    0 -0.31829778943E+02  0.18847093948E+02  0.22699692907E+02  0.47787264570E+02  0.19999970479E+02 0.  0.
         12    1    1    2    0    0  0.31829778943E+02 -0.18847093948E+02 -0.22699692907E+02  0.43400735430E+02  0.00000000000E+00 0. -1.
         11    1    3    3    0    0  0.61675618498E+00  0.41877787445E+01  0.15525332119E+01  0.45086848016E+01  0.51100000000E-03 0. -1.
        -11    1    3    3    0    0 -0.12703622186E+02  0.12963671220E+01  0.12636042102E+02  0.17964747274E+02  0.51100000000E-03 0.  1.
        -12    1    3    3    0    0 -0.19742912941E+02  0.13362948082E+02  0.85111175928E+01  0.25313832494E+02  0.00000000000E+00 0.  1.
</event>
<event>
 7    1  0.1418970E-010  0.4778727E+02  0.7816164E-02  0.1312668E+00
        -11   -1    0    0    0    0  0.00000000000E+00  0.00000000000E+00  0.45593999997E+02  0.45594000000E+02  0.51100000000E-03 0.  1.
         11   -1    0    0    0    0 -0.00000000000E+00 -0.00000000000E+00 -0.45593999997E+02  0.45594000000E+02  0.51100000000E-03 0. -1.
    9900012    2    1    2    0    0  0.20073303638E+02  0.29155361265E+02  0.25112768244E+02  0.47787265694E+02  0.19999975605E+02 0.  0.
         12    1    1    2    0    0 -0.20073303638E+02 -0.29155361265E+02 -0.25112768244E+02  0.43400734306E+02  0.00000000000E+00 0. -1.
         11    1    3    3    0    0 -0.19321708341E+01 -0.32856578877E+00  0.98184825805E+00  0.21920916661E+01  0.51100000000E-03 0. -1.
        -11    1    3    3    0    0  0.13565607543E+02  0.11431756047E+02  0.16589284461E+02  0.24288168179E+02  0.51100000000E-03 0.  1.
        -12    1    3    3    0    0  0.84398669291E+01  0.18052171007E+02  0.75416355251E+01  0.21307005849E+02  0.00000000000E+00 0.  1.
</event>
<event>
 7    1  0.1418970E-010  0.4778727E+02  0.7816164E-02  0.1312668E+00
        -11   -1    0    0    0    0  0.00000000000E+00  0.00000000000E+00  0.45593999997E+02  0.45594000000E+02  0.51100000000E-03 0.  1.
         11   -1    0    0    0    0 -0.00000000000E+00 -0.00000000000E+00 -0.45593999997E+02  0.45594000000E+02  0.51100000000E-03 0. -1.
    9900012    2    1    2    0    0  0.22481154763E+02  0.79659100785E+01  0.36259687924E+02  0.47787274071E+02  0.20000013799E+02 0.  0.
         12    1    1    2    0    0 -0.22481154763E+02 -0.79659100785E+01 -0.36259687924E+02  0.43400725929E+02  0.00000000000E+00 0. -1.
         11    1    3    3    0    0  0.23157571317E+00  0.77262732415E+01  0.70991270294E+01  0.10495071717E+02  0.51100000000E-03 0. -1.
        -11    1    3    3    0    0  0.10478535246E+02  0.34702647850E+01  0.14045149863E+02  0.17863613115E+02  0.51100000000E-03 0.  1.
         12    1    3    3    0    0  0.11771043804E+02 -0.32306279481E+01  0.15115411031E+02  0.19428589239E+02  0.00000000000E+00 0. -1.
</event>
<event>
 7    1  0.1418970E-010  0.4778727E+02  0.7816164E-02  0.1312668E+00
        -11   -1    0    0    0    0  0.00000000000E+00  0.00000000000E+00  0.45593999997E+02  0.45594000000E+02  0.51100000000E-03 0. -1.
         11   -1    0    0    0    0 -0.00000000000E+00 -0.00000000000E+00 -0.45593999997E+02  0.45594000000E+02  0.51100000000E-03 0.  1.
    9900012    2    1    2    0    0 -0.24879021180E+02  0.54582888830E+01 -0.35140640930E+02  0.47787271235E+02  0.20000000868E+02 0.  0.
         12    1    1    2    0    0  0.24879021180E+02 -0.54582888830E+01  0.35140640930E+02  0.43400728765E+02  0.00000000000E+00 0. -1.
         11    1    3    3    0    0 -0.47205304177E+01 -0.42128805768E+01 -0.25601915440E+01  0.68254194876E+01  0.51100000000E-03 0. -1.
        -11    1    3    3    0    0 -0.31308592803E+01  0.30489926970E+01 -0.14937572231E+02  0.15563730296E+02  0.51100000000E-03 0.  1.
         12    1    3    3    0    0 -0.17027631482E+02  0.66221767628E+01 -0.17642877154E+02  0.25398121451E+02  0.00000000000E+00 0. -1.
</event>
<event>
 7    1  0.1418970E-010  0.4778727E+02  0.7816164E-02  0.1312668E+00
        -11   -1    0    0    0    0  0.00000000000E+00  0.00000000000E+00  0.45593999997E+02  0.45594000000E+02  0.51100000000E-03 0.  1.
         11   -1    0    0    0    0 -0.00000000000E+00 -0.00000000000E+00 -0.45593999997E+02  0.45594000000E+02  0.51100000000E-03 0. -1.
    9900012    2    1    2    0    0  0.29137522808E+01  0.18825825020E+02  0.38996432953E+02  0.47787269326E+02  0.19999992163E+02 0.  0.
         12    1    1    2    0    0 -0.29137522808E+01 -0.18825825020E+02 -0.38996432953E+02  0.43400730674E+02  0.00000000000E+00 0. -1.
         11    1    3    3    0    0  0.60702769508E+00  0.11345774118E+00 -0.10646695605E+01  0.12308033213E+01  0.51100000000E-03 0. -1.
        -11    1    3    3    0    0  0.26553815335E+01  0.20598396798E+02  0.31133247933E+02  0.37424913211E+02  0.51100000000E-03 0.  1.
        -12    1    3    3    0    0 -0.34865694777E+00 -0.18860295190E+01  0.89278545798E+01  0.91315527930E+01  0.00000000000E+00 0.  1.
</event>
<event>
 7    1  0.1418970E-010  0.4778728E+02  0.7816164E-02  0.1312668E+00
        -11   -1    0    0    0    0  0.00000000000E+00  0.00000000000E+00  0.45593999997E+02  0.45594000000E+02  0.51100000000E-03 0.  1.
         11   -1    0    0    0    0 -0.00000000000E+00 -0.00000000000E+00 -0.45593999997E+02  0.45594000000E+02  0.51100000000E-03 0. -1.
    9900012    2    1    2    0    0  0.38725013184E+02  0.50837372461E+00  0.19589225142E+02  0.47787276139E+02  0.20000023229E+02 0.  0.
         12    1    1    2    0    0 -0.38725013184E+02 -0.50837372461E+00 -0.19589225142E+02  0.43400723861E+02  0.00000000000E+00 0. -1.
         11    1    3    3    0    0  0.13312511982E+02  0.49718153472E+01  0.41717077529E+00  0.14216749095E+02  0.51100000000E-03 0. -1.
        -11    1    3    3    0    0  0.11978998315E+01 -0.30462905113E+01  0.18036497091E+01  0.37373790844E+01  0.51100000000E-03 0.  1.
        -12    1    3    3    0    0  0.24214601371E+02 -0.14171511112E+01  0.17368404658E+02  0.29833147960E+02  0.00000000000E+00 0.  1.
</event>
<event>
 7    1  0.1418970E-010  0.4778727E+02  0.7816164E-02  0.1312668E+00
        -11   -1    0    0    0    0  0.00000000000E+00  0.00000000000E+00  0.45593999997E+02  0.45594000000E+02  0.51100000000E-03 0.  1.
         11   -1    0    0    0    0 -0.00000000000E+00 -0.00000000000E+00 -0.45593999997E+02  0.45594000000E+02  0.51100000000E-03 0. -1.
    9900012    2    1    2    0    0  0.32255008486E+01  0.77158005995E+01  0.42587388209E+02  0.47787273404E+02  0.20000010759E+02 0.  0.
         12    1    1    2    0    0 -0.32255008486E+01 -0.77158005995E+01 -0.42587388209E+02  0.43400726596E+02  0.00000000000E+00 0. -1.
         11    1    3    3    0    0  0.23966790422E+01 -0.32731094867E+01  0.20950925663E+02  0.21340070350E+02  0.51100000000E-03 0.  1.
        -11    1    3    3    0    0  0.16777128675E+01  0.89248866749E+01  0.22333427764E+02  0.24109133510E+02  0.51100000000E-03 0. -1.
        -12    1    3    3    0    0 -0.84889106110E+00  0.20640234113E+01 -0.69696521899E+00  0.23380695440E+01  0.00000000000E+00 0.  1.
</event>
<event>
 7    1  0.1418970E-010  0.4778727E+02  0.7816164E-02  0.1312668E+00
        -11   -1    0    0    0    0  0.00000000000E+00  0.00000000000E+00  0.45593999997E+02  0.45594000000E+02  0.51100000000E-03 0.  1.
         11   -1    0    0    0    0 -0.00000000000E+00 -0.00000000000E+00 -0.45593999997E+02  0.45594000000E+02  0.51100000000E-03 0. -1.
    9900012    2    1    2    0    0 -0.10970693423E+02  0.14725067671E+02  0.39324794930E+02  0.47787271569E+02  0.20000002392E+02 0.  0.
         12    1    1    2    0    0  0.10970693423E+02 -0.14725067671E+02 -0.39324794930E+02  0.43400728431E+02  0.00000000000E+00 0. -1.
         11    1    3    3    0    0 -0.16729176171E+01 -0.22511968737E+01  0.28585888174E+01  0.40047560482E+01  0.51100000000E-03 0. -1.
        -11    1    3    3    0    0 -0.12935285147E+02  0.13514919050E+02  0.24661029307E+02  0.30953852838E+02  0.51100000000E-03 0.  1.
         12    1    3    3    0    0  0.36375093409E+01  0.34613454947E+01  0.11805176805E+02  0.12828662683E+02  0.00000000000E+00 0. -1.
</event>
<event>
 7    1  0.1418970E-010  0.4778727E+02  0.7816164E-02  0.1312668E+00
        -11   -1    0    0    0    0  0.00000000000E+00  0.00000000000E+00  0.45593999997E+02  0.45594000000E+02  0.51100000000E-03 0. -1.
         11   -1    0    0    0    0 -0.00000000000E+00 -0.00000000000E+00 -0.45593999997E+02  0.45594000000E+02  0.51100000000E-03 0.  1.
    9900012    2    1    2    0    0  0.13825906423E+02  0.12578965046E+02 -0.39169341903E+02  0.47787269647E+02  0.19999993631E+02 0.  0.
         12    1    1    2    0    0 -0.13825906423E+02 -0.12578965046E+02  0.39169341903E+02  0.43400730353E+02  0.00000000000E+00 0. -1.
         11    1    3    3    0    0  0.71444771728E+01 -0.47698769053E+01 -0.13862007367E+02  0.16307989707E+02  0.51100000000E-03 0. -1.
        -11    1    3    3    0    0  0.25136700811E+01  0.54794808041E+01 -0.66358193123E+01  0.89653413412E+01  0.51100000000E-03 0.  1.
         12    1    3    3    0    0  0.41677591688E+01  0.11869361147E+02 -0.18671515223E+02  0.22513938600E+02  0.00000000000E+00 0. -1.
</event>
<event>
 7    1  0.1418970E-010  0.4778727E+02  0.7816164E-02  0.1312668E+00
        -11   -1    0    0    0    0  0.00000000000E+00  0.00000000000E+00  0.45593999997E+02  0.45594000000E+02  0.51100000000E-03 0.  1.
         11   -1    0    0    0    0 -0.00000000000E+00 -0.00000000000E+00 -0.45593999997E+02  0.45594000000E+02  0.51100000000E-03 0. -1.
    9900012    2    1    2    0    0  0.38435116195E+02  0.15255301271E+00  0.20157918504E+02  0.47787272958E+02  0.20000008725E+02 0.  0.
         12    1    1    2    0    0 -0.38435116195E+02 -0.15255301271E+00 -0.20157918504E+02  0.43400727042E+02  0.00000000000E+00 0. -1.
         11    1    3    3    0    0  0.99188265307E+00  0.46171758503E+00  0.82720256010E+01  0.83440650842E+01  0.51100000000E-03 0. -1.
        -11    1    3    3    0    0  0.14922439248E+02  0.15987340715E+01  0.46502947490E+01  0.15711791281E+02  0.51100000000E-03 0.  1.
        -12    1    3    3    0    0  0.22520794294E+02 -0.19078986438E+01  0.72355981542E+01  0.23731416593E+02  0.00000000000E+00 0.  1.
</event>
<event>
 7    1  0.1418970E-010  0.4778727E+02  0.7816164E-02  0.1312668E+00
        -11   -1    0    0    0    0  0.00000000000E+00  0.00000000000E+00  0.45593999997E+02  0.45594000000E+02  0.51100000000E-03 0.  1.
         11   -1    0    0    0    0 -0.00000000000E+00 -0.00000000000E+00 -0.45593999997E+02  0.45594000000E+02  0.51100000000E-03 0. -1.
    9900012    2    1    2    0    0  0.84843238162E+01  0.42555187244E+02 -0.83401085047E+00  0.47787270904E+02  0.19999999358E+02 0.  0.
         12    1    1    2    0    0 -0.84843238162E+01 -0.42555187244E+02  0.83401085047E+00  0.43400729096E+02  0.00000000000E+00 0. -1.
         11    1    3    3    0    0  0.63602516573E+00  0.62635303608E+01  0.29770064126E+01  0.69641157395E+01  0.51100000000E-03 0. -1.
        -11    1    3    3    0    0  0.73662566757E+01  0.20899890851E+02 -0.98907361025E+01  0.24267134893E+02  0.51100000000E-03 0.  1.
        -12    1    3    3    0    0  0.48204197475E+00  0.15391766032E+02  0.60797188395E+01  0.16556020271E+02  0.00000000000E+00 0.  1.
</event>
<event>
 7    1  0.1418970E-010  0.4778730E+02  0.7816164E-02  0.1312668E+00
        -11   -1    0    0    0    0  0.00000000000E+00  0.00000000000E+00  0.45593999997E+02  0.45594000000E+02  0.51100000000E-03 0.  1.
         11   -1    0    0    0    0 -0.00000000000E+00 -0.00000000000E+00 -0.45593999997E+02  0.45594000000E+02  0.51100000000E-03 0. -1.
    9900012    2    1    2    0    0  0.41653689851E+02 -0.12161310006E+02  0.83280524084E+00  0.47787298348E+02  0.20000124489E+02 0.  0.
         12    1    1    2    0    0 -0.41653689851E+02  0.12161310006E+02 -0.83280524084E+00  0.43400701652E+02  0.00000000000E+00 0. -1.
         11    1    3    3    0    0  0.21964997193E+01 -0.27956393921E+01 -0.23572306289E+01  0.42657645419E+01  0.51100000000E-03 0. -1.
        -11    1    3    3    0    0  0.37800764910E+02 -0.11718062912E+02  0.49368056561E+00  0.39578460644E+02  0.51100000000E-03 0.  1.
         12    1    3    3    0    0  0.16564252220E+01  0.23523922980E+01  0.26963553042E+01  0.39430731627E+01  0.00000000000E+00 0. -1.
</event>
<event>
 7    1  0.1418970E-010  0.4778725E+02  0.7816164E-02  0.1312668E+00
        -11   -1    0    0    0    0  0.00000000000E+00  0.00000000000E+00  0.45593999997E+02  0.45594000000E+02  0.51100000000E-03 0. -1.
         11   -1    0    0    0    0 -0.00000000000E+00 -0.00000000000E+00 -0.45593999997E+02  0.45594000000E+02  0.51100000000E-03 0.  1.
    9900012    2    1    2    0    0  0.41825472172E+02 -0.44791901402E+01 -0.10686038938E+02  0.47787254673E+02  0.19999925358E+02 0.  0.
         12    1    1    2    0    0 -0.41825472172E+02  0.44791901402E+01  0.10686038938E+02  0.43400745327E+02  0.00000000000E+00 0. -1.
         11    1    3    3    0    0  0.66992198703E+00 -0.27904844915E+01 -0.43430741763E+00  0.29024510952E+01  0.51100000000E-03 0. -1.
        -11    1    3    3    0    0  0.20669097854E+02 -0.79906267114E+01 -0.67627266825E+01  0.23168862591E+02  0.51100000000E-03 0.  1.
         12    1    3    3    0    0  0.20486452331E+02  0.63019210627E+01 -0.34890048378E+01  0.21715940987E+02  0.00000000000E+00 0. -1.
</event>
<event>
 7    1  0.1418970E-010  0.4778727E+02  0.7816164E-02  0.1312668E+00
        -11   -1    0    0    0    0  0.00000000000E+00  0.00000000000E+00  0.45593999997E+02  0.45594000000E+02  0.51100000000E-03 0.  1.
         11   -1    0    0    0    0 -0.00000000000E+00 -0.00000000000E+00 -0.45593999997E+02  0.45594000000E+02  0.51100000000E-03 0. -1.
    9900012    2    1    2    0    0  0.12749511980E+00 -0.17662563141E+02  0.39643931718E+02  0.47787265977E+02  0.19999976896E+02 0.  0.
         12    1    1    2    0    0 -0.12749511980E+00  0.17662563141E+02 -0.39643931718E+02  0.43400734023E+02  0.00000000000E+00 0. -1.
         11    1    3    3    0    0 -0.65372947146E+00 -0.14034254641E+02  0.14797343649E+02  0.20404632927E+02  0.51100000000E-03 0.  1.
        -11    1    3    3    0    0  0.11022939527E+01 -0.57333656484E+01  0.58425115986E+01  0.82596292688E+01  0.51100000000E-03 0. -1.
        -12    1    3    3    0    0 -0.32106936145E+00  0.21050571493E+01  0.19004076470E+02  0.19123003781E+02  0.00000000000E+00 0.  1.
</event>
<event>
 7    1  0.1418970E-010  0.4778728E+02  0.7816164E-02  0.1312668E+00
        -11   -1    0    0    0    0  0.00000000000E+00  0.00000000000E+00  0.45593999997E+02  0.45594000000E+02  0.51100000000E-03 0.  1.
         11   -1    0    0    0    0 -0.00000000000E+00 -0.00000000000E+00 -0.45593999997E+02  0.45594000000E+02  0.51100000000E-03 0. -1.
    9900012    2    1    2    0    0 -0.36364156654E+02  0.20467768736E+02  0.11930673997E+02  0.47787280787E+02  0.20000044419E+02 0.  0.
         12    1    1    2    0    0  0.36364156654E+02 -0.20467768736E+02 -0.11930673997E+02  0.43400719213E+02  0.00000000000E+00 0. -1.
         11    1    3    3    0    0 -0.13190825527E+02  0.46445013851E+01  0.72463459058E+01  0.15750517466E+02  0.51100000000E-03 0. -1.
        -11    1    3    3    0    0 -0.10242576212E+02  0.40050465361E+01 -0.49320365912E+01  0.12053039053E+02  0.51100000000E-03 0.  1.
        -12    1    3    3    0    0 -0.12930754915E+02  0.11818220815E+02  0.96163646823E+01  0.19983724267E+02  0.00000000000E+00 0.  1.
</event>
<event>
 7    1  0.1452557E-010  0.4778727E+02  0.7816164E-02  0.1312668E+00
        -11   -1    0    0    0    0  0.00000000000E+00  0.00000000000E+00  0.45593999997E+02  0.45594000000E+02  0.51100000000E-03 0. -1.
         11   -1    0    0    0    0 -0.00000000000E+00 -0.00000000000E+00 -0.45593999997E+02  0.45594000000E+02  0.51100000000E-03 0.  1.
    9900012    2    1    2    0    0  0.16635816686E+01  0.25659439911E+02 -0.34963540403E+02  0.47787268231E+02  0.19999987173E+02 0.  0.
         12    1    1    2    0    0 -0.16635816686E+01 -0.25659439911E+02  0.34963540403E+02  0.43400731769E+02  0.00000000000E+00 0. -1.
         11    1    3    3    0    0  0.35146707582E+01  0.13619047743E+02 -0.14123920467E+02  0.19932799643E+02  0.51100000000E-03 0.  1.
        -11    1    3    3    0    0 -0.26233527530E+01  0.71076667621E+01 -0.21520736916E+02  0.22815411987E+02  0.51100000000E-03 0. -1.
         12    1    3    3    0    0  0.77226366331E+00  0.49327254061E+01  0.68111697934E+00  0.50390566019E+01  0.00000000000E+00 0. -1.
</event>
<event>
 7    1  0.1418970E-010  0.4778727E+02  0.7816164E-02  0.1312668E+00
        -11   -1    0    0    0    0  0.00000000000E+00  0.00000000000E+00  0.45593999997E+02  0.45594000000E+02  0.51100000000E-03 0.  1.
         11   -1    0    0    0    0 -0.00000000000E+00 -0.00000000000E+00 -0.45593999997E+02  0.45594000000E+02  0.51100000000E-03 0. -1.
    9900012    2    1    2    0    0 -0.37849946332E+02  0.20851957003E+02  0.40249974917E+01  0.47787272437E+02  0.20000006350E+02 0.  0.
         12    1    1    2    0    0  0.37849946332E+02 -0.20851957003E+02 -0.40249974917E+01  0.43400727563E+02  0.00000000000E+00 0. -1.
         11    1    3    3    0    0 -0.96721797500E+01  0.79853501709E+01  0.76631125837E+01  0.14698305113E+02  0.51100000000E-03 0.  1.
        -11    1    3    3    0    0 -0.45778918781E+01 -0.15288266432E+01 -0.24668577794E+01  0.54203129539E+01  0.51100000000E-03 0. -1.
        -12    1    3    3    0    0 -0.23599874704E+02  0.14395433476E+02 -0.11712573125E+01  0.27668654370E+02  0.00000000000E+00 0.  1.
</event>
<event>
 7    1  0.1418970E-010  0.4778728E+02  0.7816164E-02  0.1312668E+00
        -11   -1    0    0    0    0  0.00000000000E+00  0.00000000000E+00  0.45593999997E+02  0.45594000000E+02  0.51100000000E-03 0.  1.
         11   -1    0    0    0    0 -0.00000000000E+00 -0.00000000000E+00 -0.45593999997E+02  0.45594000000E+02  0.51100000000E-03 0. -1.
    9900012    2    1    2    0    0 -0.39173372164E+02  0.83617378493E+01  0.16707813049E+02  0.47787276925E+02  0.20000026810E+02 0.  0.
         12    1    1    2    0    0  0.39173372164E+02 -0.83617378493E+01 -0.16707813049E+02  0.43400723075E+02  0.00000000000E+00 0. -1.
         11    1    3    3    0    0 -0.21212701303E+02  0.14204962801E+01  0.83266070847E+01  0.22832627796E+02  0.51100000000E-03 0.  1.
        -11    1    3    3    0    0 -0.94475412164E+00 -0.34354338614E+01  0.98990253401E+00  0.36979282652E+01  0.51100000000E-03 0. -1.
         12    1    3    3    0    0 -0.17015916740E+02  0.10376675431E+02  0.73913034301E+01  0.21256720864E+02  0.00000000000E+00 0. -1.
</event>
<event>
 7    1  0.1418970E-010  0.4778728E+02  0.7816164E-02  0.1312668E+00
        -11   -1    0    0    0    0  0.00000000000E+00  0.00000000000E+00  0.45593999997E+02  0.45594000000E+02  0.51100000000E-03 0.  1.
         11   -1    0    0    0    0 -0.00000000000E+00 -0.00000000000E+00 -0.45593999997E+02  0.45594000000E+02  0.51100000000E-03 0. -1.
    9900012    2    1    2    0    0 -0.27269948434E+01 -0.26648825716E+02  0.34147130113E+02  0.47787275261E+02  0.20000019226E+02 0.  0.
         12    1    1    2    0    0  0.27269948434E+01  0.26648825716E+02 -0.34147130113E+02  0.43400724739E+02  0.00000000000E+00 0. -1.
         11    1    3    3    0    0  0.77318519375E+00 -0.53799821788E+00  0.29548786263E-01  0.94240692812E+00  0.51100000000E-03 0. -1.
        -11    1    3    3    0    0 -0.38793239775E+01 -0.14704453147E+02  0.57338126443E+01  0.16252590703E+02  0.51100000000E-03 0.  1.
         12    1    3    3    0    0  0.37914394036E+00 -0.11406374351E+02  0.28383768682E+02  0.30592277630E+02  0.00000000000E+00 0. -1.
</event>
<event>
 7    1  0.1418970E-010  0.4778727E+02  0.7816164E-02  0.1312668E+00
        -11   -1    0    0    0    0  0.00000000000E+00  0.00000000000E+00  0.45593999997E+02  0.45594000000E+02  0.51100000000E-03 0.  1.
         11   -1    0    0    0    0 -0.00000000000E+00 -0.00000000000E+00 -0.45593999997E+02  0.45594000000E+02  0.51100000000E-03 0. -1.
    9900012    2    1    2    0    0  0.10554964698E+02  0.32163504313E+02  0.27161093165E+02  0.47787271073E+02  0.20000000129E+02 0.  0.
         12    1    1    2    0    0 -0.10554964698E+02 -0.32163504313E+02 -0.27161093165E+02  0.43400728927E+02  0.00000000000E+00 0. -1.
         11    1    3    3    0    0  0.93652170643E+01  0.12952228500E+02  0.15695627139E+02  0.22401344275E+02  0.51100000000E-03 0. -1.
        -11    1    3    3    0    0  0.41953318019E+00  0.19657115007E+02  0.13029103562E+02  0.23586769986E+02  0.51100000000E-03 0.  1.
        -12    1    3    3    0    0  0.77021445336E+00 -0.44583919390E+00 -0.15636375354E+01  0.17991568117E+01  0.00000000000E+00 0.  1.
</event>
<event>
 7    1  0.1418970E-010  0.4778727E+02  0.7816164E-02  0.1312668E+00
        -11   -1    0    0    0    0  0.00000000000E+00  0.00000000000E+00  0.45593999997E+02  0.45594000000E+02  0.51100000000E-03 0.  1.
         11   -1    0    0    0    0 -0.00000000000E+00 -0.00000000000E+00 -0.45593999997E+02  0.45594000000E+02  0.51100000000E-03 0. -1.
    9900012    2    1    2    0    0 -0.20337640305E+02 -0.12575345348E+02  0.36219668558E+02  0.47787270579E+02  0.19999997880E+02 0.  0.
         12    1    1    2    0    0  0.20337640305E+02  0.12575345348E+02 -0.36219668558E+02  0.43400729421E+02  0.00000000000E+00 0. -1.
         11    1    3    3    0    0 -0.53634575724E+01 -0.77635386848E+00  0.32008307098E+01  0.62940225575E+01  0.51100000000E-03 0. -1.
        -11    1    3    3    0    0 -0.77794900542E+00 -0.10205078925E+02  0.18391052377E+02  0.21047081705E+02  0.51100000000E-03 0.  1.
        -12    1    3    3    0    0 -0.14196233727E+02 -0.15939125555E+01  0.14627785471E+02  0.20446166317E+02  0.00000000000E+00 0.  1.
</event>
<event>
 7    1  0.1418970E-010  0.4778727E+02  0.7816164E-02  0.1312668E+00
        -11   -1    0    0    0    0  0.00000000000E+00  0.00000000000E+00  0.45593999997E+02  0.45594000000E+02  0.51100000000E-03 0.  1.
         11   -1    0    0    0    0 -0.00000000000E+00 -0.00000000000E+00 -0.45593999997E+02  0.45594000000E+02  0.51100000000E-03 0. -1.
    9900012    2    1    2    0    0 -0.24468586160E+00 -0.43105159957E+02  0.50506174223E+01  0.47787269333E+02  0.19999992197E+02 0.  0.
         12    1    1    2    0    0  0.24468586160E+00  0.43105159957E+02 -0.50506174223E+01  0.43400730667E+02  0.00000000000E+00 0. -1.
         11    1    3    3    0    0 -0.42529239178E+01 -0.37580444849E+01  0.37237339793E+01  0.67879639960E+01  0.51100000000E-03 0.  1.
        -11    1    3    3    0    0  0.19815594026E+01 -0.29451011805E+02 -0.36427555320E+01  0.29741525552E+02  0.51100000000E-03 0. -1.
         12    1    3    3    0    0  0.20266786537E+01 -0.98961036670E+01  0.49696389750E+01  0.11257779785E+02  0.00000000000E+00 0. -1.
</event>
<event>
 7    1  0.1418970E-010  0.4778727E+02  0.7816164E-02  0.1312668E+00
        -11   -1    0    0    0    0  0.00000000000E+00  0.00000000000E+00  0.45593999997E+02  0.45594000000E+02  0.51100000000E-03 0.  1.
         11   -1    0    0    0    0 -0.00000000000E+00 -0.00000000000E+00 -0.45593999997E+02  0.45594000000E+02  0.51100000000E-03 0. -1.
    9900012    2    1    2    0    0 -0.24342177388E+01  0.21153036667E+02  0.37818608603E+02  0.47787268060E+02  0.19999986395E+02 0.  0.
         12    1    1    2    0    0  0.24342177388E+01 -0.21153036667E+02 -0.37818608603E+02  0.43400731940E+02  0.00000000000E+00 0. -1.
         11    1    3    3    0    0  0.29334503520E+01  0.21248991851E+02  0.25354858534E+02  0.33211348018E+02  0.51100000000E-03 0. -1.
        -11    1    3    3    0    0 -0.40625306696E+01  0.16623366558E+01  0.43804733097E+01  0.62012954515E+01  0.51100000000E-03 0.  1.
         12    1    3    3    0    0 -0.13051374212E+01 -0.17582918391E+01  0.80832767586E+01  0.83746245907E+01  0.00000000000E+00 0. -1.
</event>
<event>
 7    1  0.1418970E-010  0.4778726E+02  0.7816164E-02  0.1312668E+00
        -11   -1    0    0    0    0  0.00000000000E+00  0.00000000000E+00  0.45593999997E+02  0.45594000000E+02  0.51100000000E-03 0. -1.
         11   -1    0    0    0    0 -0.00000000000E+00 -0.00000000000E+00 -0.45593999997E+02  0.45594000000E+02  0.51100000000E-03 0.  1.
    9900012    2    1    2    0    0 -0.15798009420E+02  0.23592341344E+02 -0.32824505870E+02  0.47787264323E+02  0.19999969353E+02 0.  0.
         12    1    1    2    0    0  0.15798009420E+02 -0.23592341344E+02  0.32824505870E+02  0.43400735677E+02  0.00000000000E+00 0. -1.
         11    1    3    3    0    0 -0.13223562879E+01 -0.15353324051E+01 -0.27465027257E+01  0.34130850018E+01  0.51100000000E-03 0. -1.
        -11    1    3    3    0    0 -0.13811308010E+02  0.22481818334E+02 -0.31665763621E+02  0.41217774934E+02  0.51100000000E-03 0.  1.
        -12    1    3    3    0    0 -0.66434512208E+00  0.26458554157E+01  0.15877604771E+01  0.31564043870E+01  0.00000000000E+00 0.  1.
</event>
<event>
 7    1  0.1418970E-010  0.4778728E+02  0.7816164E-02  0.1312668E+00
        -11   -1    0    0    0    0  0.00000000000E+00  0.00000000000E+00  0.45593999997E+02  0.45594000000E+02  0.51100000000E-03 0.  1.
         11   -1    0    0    0    0 -0.00000000000E+00 -0.00000000000E+00 -0.45593999997E+02  0.45594000000E+02  0.51100000000E-03 0. -1.
    9900012    2    1    2    0    0  0.12800268278E+02 -0.31350796649E+02 -0.27145967057E+02  0.47787275974E+02  0.20000022477E+02 0.  0.
         12    1    1    2    0    0 -0.12800268278E+02  0.31350796649E+02  0.27145967057E+02  0.43400724026E+02  0.00000000000E+00 0. -1.
         11    1    3    3    0    0  0.55774587119E+01 -0.29409286132E+01 -0.42515059412E+01  0.76047623118E+01  0.51100000000E-03 0. -1.
        -11    1    3    3    0    0  0.65941095707E+01 -0.29689931696E+02 -0.18582973133E+02  0.35641285273E+02  0.51100000000E-03 0.  1.
         12    1    3    3    0    0  0.62869999525E+00  0.12800636611E+01 -0.43114879827E+01  0.45412283895E+01  0.00000000000E+00 0. -1.
</event>
<event>
 7    1  0.1418970E-010  0.4778727E+02  0.7816164E-02  0.1312668E+00
        -11   -1    0    0    0    0  0.00000000000E+00  0.00000000000E+00  0.45593999997E+02  0.45594000000E+02  0.51100000000E-03 0. -1.
         11   -1    0    0    0    0 -0.00000000000E+00 -0.00000000000E+00 -0.45593999997E+02  0.45594000000E+02  0.51100000000E-03 0.  1.
    9900012    2    1    2    0    0  0.32354823181E+02  0.27754207470E+02  0.81542862039E+01  0.47787274213E+02  0.20000014447E+02 0.  0.
         12    1    1    2    0    0 -0.32354823181E+02 -0.27754207470E+02 -0.81542862039E+01  0.43400725787E+02  0.00000000000E+00 0. -1.
         11    1    3    3    0    0  0.11756931503E+02  0.37129231133E+01  0.50428624611E+01  0.13320724398E+02  0.51100000000E-03 0. -1.
        -11    1    3    3    0    0  0.20706559591E+02  0.22658500862E+02 -0.39334080887E+00  0.30697296113E+02  0.51100000000E-03 0.  1.
         12    1    3    3    0    0 -0.10866791356E+00  0.13827834945E+01  0.35047645517E+01  0.37692537021E+01  0.00000000000E+00 0. -1.
</event>
<event>
 7    1  0.1418970E-010  0.4778727E+02  0.7816164E-02  0.1312668E+00
        -11   -1    0    0    0    0  0.00000000000E+00  0.00000000000E+00  0.45593999997E+02  0.45594000000E+02  0.51100000000E-03 0.  1.
         11   -1    0    0    0    0 -0.00000000000E+00 -0.00000000000E+00 -0.45593999997E+02  0.45594000000E+02  0.51100000000E-03 0. -1.
    9900012    2    1    2    0    0  0.90124699113E+01  0.30311426626E+02  0.29725682796E+02  0.47787269410E+02  0.19999992549E+02 0.  0.
         12    1    1    2    0    0 -0.90124699113E+01 -0.30311426626E+02 -0.29725682796E+02  0.43400730590E+02  0.00000000000E+00 0. -1.
         11    1    3    3    0    0 -0.26488766564E+01  0.12088114394E+02  0.80197000077E+01  0.14746343466E+02  0.51100000000E-03 0. -1.
        -11    1    3    3    0    0  0.26684734887E+01 -0.12679499478E+01  0.51303732182E+01  0.59202345772E+01  0.51100000000E-03 0.  1.
         12    1    3    3    0    0  0.89928730790E+01  0.19491262180E+02  0.16575609571E+02  0.27120691367E+02  0.00000000000E+00 0. -1.
</event>
<event>
 7    1  0.1418970E-010  0.4778727E+02  0.7816164E-02  0.1312668E+00
        -11   -1    0    0    0    0  0.00000000000E+00  0.00000000000E+00  0.45593999997E+02  0.45594000000E+02  0.51100000000E-03 0.  1.
         11   -1    0    0    0    0 -0.00000000000E+00 -0.00000000000E+00 -0.45593999997E+02  0.45594000000E+02  0.51100000000E-03 0. -1.
    9900012    2    1    2    0    0 -0.39271371788E+02 -0.17193174076E+02  0.67658880915E+01  0.47787272834E+02  0.20000008157E+02 0.  0.
         12    1    1    2    0    0  0.39271371788E+02  0.17193174076E+02 -0.67658880915E+01  0.43400727166E+02  0.00000000000E+00 0. -1.
         11    1    3    3    0    0 -0.76287654863E+01 -0.20198508019E+00  0.73534868731E+01  0.10597765343E+02  0.51100000000E-03 0. -1.
        -11    1    3    3    0    0 -0.25749158090E+02 -0.11629637420E+02  0.30752585682E+01  0.28420500073E+02  0.51100000000E-03 0.  1.
         12    1    3    3    0    0 -0.58934482118E+01 -0.53615515759E+01 -0.36628573498E+01  0.87690074176E+01  0.00000000000E+00 0. -1.
</event>
<event>
 7    1  0.1418970E-010  0.4778727E+02  0.7816164E-02  0.1312668E+00
        -11   -1    0    0    0    0  0.00000000000E+00  0.00000000000E+00  0.45593999997E+02  0.45594000000E+02  0.51100000000E-03 0.  1.
         11   -1    0    0    0    0 -0.00000000000E+00 -0.00000000000E+00 -0.45593999997E+02  0.45594000000E+02  0.51100000000E-03 0. -1.
    9900012    2    1    2    0    0  0.41316024130E+02 -0.20821021788E+01  0.13125332253E+02  0.47787270212E+02  0.19999996205E+02 0.  0.
         12    1    1    2    0    0 -0.41316024130E+02  0.20821021788E+01 -0.13125332253E+02  0.43400729788E+02  0.00000000000E+00 0. -1.
         11    1    3    3    0    0  0.71044016417E+01 -0.68346202347E+00 -0.46512285376E+01  0.85190122781E+01  0.51100000000E-03 0. -1.
        -11    1    3    3    0    0  0.68587980130E+01 -0.88595918974E-01  0.71116544720E+01  0.98806168335E+01  0.51100000000E-03 0.  1.
        -12    1    3    3    0    0  0.27352824475E+02 -0.13100442363E+01  0.10664906319E+02  0.29387641100E+02  0.00000000000E+00 0.  1.
</event>
<event>
 7    1  0.2157751E-010  0.4778727E+02  0.7816164E-02  0.1312668E+00
        -11   -1    0    0    0    0  0.00000000000E+00  0.00000000000E+00  0.45593999997E+02  0.45594000000E+02  0.51100000000E-03 0.  1.
         11   -1    0    0    0    0 -0.00000000000E+00 -0.00000000000E+00 -0.45593999997E+02  0.45594000000E+02  0.51100000000E-03 0. -1.
    9900012    2    1    2    0    0 -0.30148798961E+01  0.36066331855E+02  0.23953154345E+02  0.47787269622E+02  0.19999993514E+02 0.  0.
         12    1    1    2    0    0  0.30148798961E+01 -0.36066331855E+02 -0.23953154345E+02  0.43400730378E+02  0.00000000000E+00 0. -1.
         11    1    3    3    0    0 -0.95953588134E-01  0.52733493400E+01 -0.17837111056E+01  0.55676786835E+01  0.51100000000E-03 0. -1.
        -11    1    3    3    0    0  0.33903677704E+01  0.22649986434E+02  0.15221713097E+02  0.27499400519E+02  0.51100000000E-03 0.  1.
        -12    1    3    3    0    0 -0.63092940784E+01  0.81429960817E+01  0.10515152354E+02  0.14720190419E+02  0.00000000000E+00 0.  1.
</event>
<event>
 7    1  0.1418970E-010  0.4778727E+02  0.7816164E-02  0.1312668E+00
        -11   -1    0    0    0    0  0.00000000000E+00  0.00000000000E+00  0.45593999997E+02  0.45594000000E+02  0.51100000000E-03 0.  1.
         11   -1    0    0    0    0 -0.00000000000E+00 -0.00000000000E+00 -0.45593999997E+02  0.45594000000E+02  0.51100000000E-03 0. -1.
    9900012    2    1    2    0    0  0.27326432922E+02 -0.24148432036E+02  0.23531737210E+02  0.47787270027E+02  0.19999995363E+02 0.  0.
         12    1    1    2    0    0 -0.27326432922E+02  0.24148432036E+02 -0.23531737210E+02  0.43400729973E+02  0.00000000000E+00 0. -1.
         11    1    3    3    0    0  0.15227940372E+02 -0.26721481525E+01  0.10465828422E+02  0.18669871680E+02  0.51100000000E-03 0. -1.
        -11    1    3    3    0    0 -0.30144724076E+00 -0.67684803370E+01  0.30759048612E+01  0.74407249302E+01  0.51100000000E-03 0.  1.
        -12    1    3    3    0    0  0.12399939790E+02 -0.14707803547E+02  0.99900039266E+01  0.21676673417E+02  0.00000000000E+00 0.  1.
</event>
<event>
 7    1  0.1418970E-010  0.4778728E+02  0.7816164E-02  0.1312668E+00
        -11   -1    0    0    0    0  0.00000000000E+00  0.00000000000E+00  0.45593999997E+02  0.45594000000E+02  0.51100000000E-03 0. -1.
         11   -1    0    0    0    0 -0.00000000000E+00 -0.00000000000E+00 -0.45593999997E+02  0.45594000000E+02  0.51100000000E-03 0.  1.
    9900012    2    1    2    0    0  0.16379881529E+02  0.26828638461E+02 -0.29925679852E+02  0.47787277942E+02  0.20000031447E+02 0.  0.
         12    1    1    2    0    0 -0.16379881529E+02 -0.26828638461E+02  0.29925679852E+02  0.43400722058E+02  0.00000000000E+00 0. -1.
         11    1    3    3    0    0  0.95462005554E+00  0.91252097405E+00 -0.50202493393E+00  0.14128068778E+01  0.51100000000E-03 0. -1.
        -11    1    3    3    0    0  0.16191524448E+02  0.21154755258E+02 -0.13757106971E+02  0.29982446973E+02  0.51100000000E-03 0.  1.
         12    1    3    3    0    0 -0.76626297494E+00  0.47613622287E+01 -0.15666547947E+02  0.16392024091E+02  0.00000000000E+00 0. -1.
</event>
<event>
 7    1  0.1418970E-010  0.4778727E+02  0.7816164E-02  0.1312668E+00
        -11   -1    0    0    0    0  0.00000000000E+00  0.00000000000E+00  0.45593999997E+02  0.45594000000E+02  0.51100000000E-03 0.  1.
         11   -1    0    0    0    0 -0.00000000000E+00 -0.00000000000E+00 -0.45593999997E+02  0.45594000000E+02  0.51100000000E-03 0. -1.
    9900012    2    1    2    0    0 -0.39673695764E+02  0.12221659019E+02  0.12659073271E+02  0.47787271655E+02  0.20000002786E+02 0.  0.
         12    1    1    2    0    0  0.39673695764E+02 -0.12221659019E+02 -0.12659073271E+02  0.43400728345E+02  0.00000000000E+00 0. -1.
         11    1    3    3    0    0 -0.38836825411E+01  0.11526348657E+01  0.37296830115E+01  0.55065499944E+01  0.51100000000E-03 0. -1.
        -11    1    3    3    0    0 -0.17604300369E+02 -0.50633573427E-01  0.11167423981E+02  0.20847669268E+02  0.51100000000E-03 0.  1.
         12    1    3    3    0    0 -0.18185712854E+02  0.11119657727E+02 -0.22380337218E+01  0.21433052393E+02  0.00000000000E+00 0. -1.
</event>
<event>
 7    1  0.1418970E-010  0.4778728E+02  0.7816164E-02  0.1312668E+00
        -11   -1    0    0    0    0  0.00000000000E+00  0.00000000000E+00  0.45593999997E+02  0.45594000000E+02  0.51100000000E-03 0. -1.
         11   -1    0    0    0    0 -0.00000000000E+00 -0.00000000000E+00 -0.45593999997E+02  0.45594000000E+02  0.51100000000E-03 0.  1.
    9900012    2    1    2    0    0 -0.33796283947E+02  0.22543482849E+02 -0.15271720245E+02  0.47787275733E+02  0.20000021379E+02 0.  0.
         12    1    1    2    0    0  0.33796283947E+02 -0.22543482849E+02  0.15271720245E+02  0.43400724267E+02  0.00000000000E+00 0. -1.
         11    1    3    3    0    0 -0.22794157801E+02  0.14190007290E+02 -0.91298032028E+01  0.28359887932E+02  0.51100000000E-03 0. -1.
        -11    1    3    3    0    0 -0.27282507224E+01  0.77829921603E+01 -0.73489291139E+01  0.11046496203E+02  0.51100000000E-03 0.  1.
         12    1    3    3    0    0 -0.82738754244E+01  0.57048339852E+00  0.12070120717E+01  0.83808915986E+01  0.00000000000E+00 0. -1.
</event>
<event>
 7    1  0.1418970E-010  0.4778727E+02  0.7816164E-02  0.1312668E+00
        -11   -1    0    0    0    0  0.00000000000E+00  0.00000000000E+00  0.45593999997E+02  0.45594000000E+02  0.51100000000E-03 0.  1.
         11   -1    0    0    0    0 -0.00000000000E+00 -0.00000000000E+00 -0.45593999997E+02  0.45594000000E+02  0.51100000000E-03 0. -1.
    9900012    2    1    2    0    0  0.23646080555E+02 -0.36039489569E+02  0.50637527002E+01  0.47787268147E+02  0.19999986787E+02 0.  0.
         12    1    1    2    0    0 -0.23646080555E+02  0.36039489569E+02 -0.50637527002E+01  0.43400731853E+02  0.00000000000E+00 0. -1.
         11    1    3    3    0    0 -0.64243278625E+00  0.16682861851E+01  0.16966188995E+00  0.17957405431E+01  0.51100000000E-03 0. -1.
        -11    1    3    3    0    0  0.76300454020E+01 -0.18063081465E+02 -0.75259144933E+00  0.19622917698E+02  0.51100000000E-03 0.  1.
        -12    1    3    3    0    0  0.16658467939E+02 -0.19644694290E+02  0.56466822596E+01  0.26368609906E+02  0.00000000000E+00 0.  1.
</event>
<event>
 7    1  0.1418970E-010  0.4778727E+02  0.7816164E-02  0.1312668E+00
        -11   -1    0    0    0    0  0.00000000000E+00  0.00000000000E+00  0.45593999997E+02  0.45594000000E+02  0.51100000000E-03 0.  1.
         11   -1    0    0    0    0 -0.00000000000E+00 -0.00000000000E+00 -0.45593999997E+02  0.45594000000E+02  0.51100000000E-03 0. -1.
    9900012    2    1    2    0    0  0.11274988581E+02 -0.37280078145E+02 -0.19149250995E+02  0.47787269503E+02  0.19999992974E+02 0.  0.
         12    1    1    2    0    0 -0.11274988581E+02  0.37280078145E+02  0.19149250995E+02  0.43400730497E+02  0.00000000000E+00 0. -1.
         11    1    3    3    0    0 -0.20053327921E+01 -0.15674810938E+01 -0.35099213678E+01  0.43356550665E+01  0.51100000000E-03 0. -1.
        -11    1    3    3    0    0  0.77428386763E+01 -0.13740323914E+02  0.25459154932E+00  0.15773803256E+02  0.51100000000E-03 0.  1.
         12    1    3    3    0    0  0.55374826971E+01 -0.21972273137E+02 -0.15893921176E+02  0.27677811181E+02  0.00000000000E+00 0. -1.
</event>
<event>
 7    1  0.1418970E-010  0.4778727E+02  0.7816164E-02  0.1312668E+00
        -11   -1    0    0    0    0  0.00000000000E+00  0.00000000000E+00  0.45593999997E+02  0.45594000000E+02  0.51100000000E-03 0.  1.
         11   -1    0    0    0    0 -0.00000000000E+00 -0.00000000000E+00 -0.45593999997E+02  0.45594000000E+02  0.51100000000E-03 0. -1.
    9900012    2    1    2    0    0  0.39463137403E+02  0.86279326807E+01  0.15869556588E+02  0.47787271177E+02  0.20000000606E+02 0.  0.
         12    1    1    2    0    0 -0.39463137403E+02 -0.86279326807E+01 -0.15869556588E+02  0.43400728823E+02  0.00000000000E+00 0. -1.
         11    1    3    3    0    0  0.10262968461E+02 -0.11412784188E+01 -0.83383095410E+00  0.10359841330E+02  0.51100000000E-03 0. -1.
        -11    1    3    3    0    0  0.29563644831E+02  0.76057255044E+01  0.17385625763E+02  0.35129989177E+02  0.51100000000E-03 0.  1.
         12    1    3    3    0    0 -0.36347588900E+00  0.21634855950E+01 -0.68223822141E+00  0.22974406701E+01  0.00000000000E+00 0. -1.
</event>
<event>
 7    1  0.1418970E-010  0.4778727E+02  0.7816164E-02  0.1312668E+00
        -11   -1    0    0    0    0  0.00000000000E+00  0.00000000000E+00  0.45593999997E+02  0.45594000000E+02  0.51100000000E-03 0.  1.
         11   -1    0    0    0    0 -0.00000000000E+00 -0.00000000000E+00 -0.45593999997E+02  0.45594000000E+02  0.51100000000E-03 0. -1.
    9900012    2    1    2    0    0  0.10304382067E+02 -0.25745636809E+02  0.33385709564E+02  0.47787266048E+02  0.19999977218E+02 0.  0.
         12    1    1    2    0    0 -0.10304382067E+02  0.25745636809E+02 -0.33385709564E+02  0.43400733952E+02  0.00000000000E+00 0. -1.
         11    1    3    3    0    0  0.63350249111E+01 -0.20757540566E+01  0.28797045493E+00  0.66726473585E+01  0.51100000000E-03 0. -1.
        -11    1    3    3    0    0  0.38231824778E+01 -0.11148585538E+02  0.14351613191E+02  0.18570850417E+02  0.51100000000E-03 0.  1.
         12    1    3    3    0    0  0.14617467783E+00 -0.12521297215E+02  0.18746125918E+02  0.22543768272E+02  0.00000000000E+00 0. -1.
</event>
<event>
 7    1  0.1418970E-010  0.4778727E+02  0.7816164E-02  0.1312668E+00
        -11   -1    0    0    0    0  0.00000000000E+00  0.00000000000E+00  0.45593999997E+02  0.45594000000E+02  0.51100000000E-03 0.  1.
         11   -1    0    0    0    0 -0.00000000000E+00 -0.00000000000E+00 -0.45593999997E+02  0.45594000000E+02  0.51100000000E-03 0. -1.
    9900012    2    1    2    0    0 -0.11881207860E+02 -0.29030939885E+02  0.29994412509E+02  0.47787270138E+02  0.19999995866E+02 0.  0.
         12    1    1    2    0    0  0.11881207860E+02  0.29030939885E+02 -0.29994412509E+02  0.43400729862E+02  0.00000000000E+00 0. -1.
         11    1    3    3    0    0 -0.32173969659E+01 -0.11307419867E+02  0.41599737380E+00  0.11763606648E+02  0.51100000000E-03 0. -1.
        -11    1    3    3    0    0 -0.52565820440E+01 -0.45592565429E+01  0.10435027953E+02  0.12542259910E+02  0.51100000000E-03 0.  1.
         12    1    3    3    0    0 -0.34072288503E+01 -0.13164263475E+02  0.19143387182E+02  0.23481403579E+02  0.00000000000E+00 0. -1.
</event>
<event>
 7    1  0.1418970E-010  0.4778727E+02  0.7816164E-02  0.1312668E+00
        -11   -1    0    0    0    0  0.00000000000E+00  0.00000000000E+00  0.45593999997E+02  0.45594000000E+02  0.51100000000E-03 0.  1.
         11   -1    0    0    0    0 -0.00000000000E+00 -0.00000000000E+00 -0.45593999997E+02  0.45594000000E+02  0.51100000000E-03 0. -1.
    9900012    2    1    2    0    0  0.23868406360E+02 -0.32864762466E+02  0.15291496354E+02  0.47787270803E+02  0.19999998898E+02 0.  0.
         12    1    1    2    0    0 -0.23868406360E+02  0.32864762466E+02 -0.15291496354E+02  0.43400729197E+02  0.00000000000E+00 0. -1.
         11    1    3    3    0    0  0.13574844744E+02 -0.35948021916E+01  0.39569066611E+01  0.14589589549E+02  0.51100000000E-03 0. -1.
        -11    1    3    3    0    0  0.65057361264E+00 -0.44739566814E+01  0.84434019683E+00  0.45991787356E+01  0.51100000000E-03 0.  1.
         12    1    3    3    0    0  0.96429880036E+01 -0.24796003593E+02  0.10490249496E+02  0.28598502519E+02  0.00000000000E+00 0. -1.
</event>
<event>
 7    1  0.1418970E-010  0.4778727E+02  0.7816164E-02  0.1312668E+00
        -11   -1    0    0    0    0  0.00000000000E+00  0.00000000000E+00  0.45593999997E+02  0.45594000000E+02  0.51100000000E-03 0.  1.
         11   -1    0    0    0    0 -0.00000000000E+00 -0.00000000000E+00 -0.45593999997E+02  0.45594000000E+02  0.51100000000E-03 0. -1.
    9900012    2    1    2    0    0 -0.69747749505E+01  0.10956968245E+02  0.41411603989E+02  0.47787267475E+02  0.19999983725E+02 0.  0.
         12    1    1    2    0    0  0.69747749505E+01 -0.10956968245E+02 -0.41411603989E+02  0.43400732525E+02  0.00000000000E+00 0. -1.
         11    1    3    3    0    0 -0.83439681484E+01 -0.13884399236E+01  0.23090153645E+02  0.24590745525E+02  0.51100000000E-03 0. -1.
        -11    1    3    3    0    0 -0.26406078927E+01  0.63425460565E+01  0.10547373091E+02  0.12587604216E+02  0.51100000000E-03 0.  1.
         12    1    3    3    0    0  0.40098010907E+01  0.60028621125E+01  0.77740772534E+01  0.10608917733E+02  0.00000000000E+00 0. -1.
</event>
<event>
 7    1  0.1418970E-010  0.4778727E+02  0.7816164E-02  0.1312668E+00
        -11   -1    0    0    0    0  0.00000000000E+00  0.00000000000E+00  0.45593999997E+02  0.45594000000E+02  0.51100000000E-03 0. -1.
         11   -1    0    0    0    0 -0.00000000000E+00 -0.00000000000E+00 -0.45593999997E+02  0.45594000000E+02  0.51100000000E-03 0.  1.
    9900012    2    1    2    0    0  0.39696503104E+02 -0.27112770152E+01 -0.17333778945E+02  0.47787271040E+02  0.19999999979E+02 0.  0.
         12    1    1    2    0    0 -0.39696503104E+02  0.27112770152E+01  0.17333778945E+02  0.43400728960E+02  0.00000000000E+00 0. -1.
         11    1    3    3    0    0  0.12755741285E+02 -0.20374854394E+01  0.29548706914E+01  0.13251095944E+02  0.51100000000E-03 0. -1.
        -11    1    3    3    0    0  0.91609025801E+01  0.23052357800E+00 -0.28041528143E+01  0.95832432124E+01  0.51100000000E-03 0.  1.
        -12    1    3    3    0    0  0.17779859239E+02 -0.90431515384E+00 -0.17484496822E+02  0.24952931884E+02  0.00000000000E+00 0.  1.
</event>
<event>
 7    1  0.1418970E-010  0.4778728E+02  0.7816164E-02  0.1312668E+00
        -11   -1    0    0    0    0  0.00000000000E+00  0.00000000000E+00  0.45593999997E+02  0.45594000000E+02  0.51100000000E-03 0.  1.
         11   -1    0    0    0    0 -0.00000000000E+00 -0.00000000000E+00 -0.45593999997E+02  0.45594000000E+02  0.51100000000E-03 0. -1.
    9900012    2    1    2    0    0 -0.91997378085E+01 -0.41192122131E+02  0.10109241684E+02  0.47787275711E+02  0.20000021275E+02 0.  0.
         12    1    1    2    0    0  0.91997378085E+01  0.41192122131E+02 -0.10109241684E+02  0.43400724289E+02  0.00000000000E+00 0. -1.
         11    1    3    3    0    0 -0.26060190255E+00 -0.15045133195E+02  0.74769496723E+01  0.16802640354E+02  0.51100000000E-03 0. -1.
        -11    1    3    3    0    0 -0.92144112632E+01 -0.27259863105E+02  0.75501166130E+00  0.28784988350E+02  0.51100000000E-03 0.  1.
         12    1    3    3    0    0  0.27527535723E+00  0.11128741693E+01  0.18772803501E+01  0.21996470062E+01  0.00000000000E+00 0. -1.
</event>
<event>
 7    1  0.1418970E-010  0.4778727E+02  0.7816164E-02  0.1312668E+00
        -11   -1    0    0    0    0  0.00000000000E+00  0.00000000000E+00  0.45593999997E+02  0.45594000000E+02  0.51100000000E-03 0. -1.
         11   -1    0    0    0    0 -0.00000000000E+00 -0.00000000000E+00 -0.45593999997E+02  0.45594000000E+02  0.51100000000E-03 0.  1.
    9900012    2    1    2    0    0 -0.28689400225E+02 -0.23933480586E+02 -0.22084617326E+02  0.47787268432E+02  0.19999988088E+02 0.  0.
         12    1    1    2    0    0  0.28689400225E+02  0.23933480586E+02  0.22084617326E+02  0.43400731568E+02  0.00000000000E+00 0. -1.
         11    1    3    3    0    0 -0.30481295966E+01 -0.12516505737E+02 -0.36980334047E+01  0.13402591587E+02  0.51100000000E-03 0. -1.
        -11    1    3    3    0    0 -0.11715041692E+02 -0.19022616097E+01 -0.10140346890E+02  0.15610491228E+02  0.51100000000E-03 0.  1.
        -12    1    3    3    0    0 -0.13926228936E+02 -0.95147132386E+01 -0.82462370318E+01  0.18774185617E+02  0.00000000000E+00 0.  1.
</event>
<event>
 7    1  0.1418970E-010  0.4778727E+02  0.7816164E-02  0.1312668E+00
        -11   -1    0    0    0    0  0.00000000000E+00  0.00000000000E+00  0.45593999997E+02  0.45594000000E+02  0.51100000000E-03 0.  1.
         11   -1    0    0    0    0 -0.00000000000E+00 -0.00000000000E+00 -0.45593999997E+02  0.45594000000E+02  0.51100000000E-03 0. -1.
    9900012    2    1    2    0    0  0.49455740605E+01  0.10684211567E+02  0.41773344365E+02  0.47787269833E+02  0.19999994475E+02 0.  0.
         12    1    1    2    0    0 -0.49455740605E+01 -0.10684211567E+02 -0.41773344365E+02  0.43400730167E+02  0.00000000000E+00 0. -1.
         11    1    3    3    0    0  0.17838893612E+01 -0.43644844991E+01  0.98073438423E+01  0.10881864716E+02  0.51100000000E-03 0. -1.
        -11    1    3    3    0    0 -0.25842905008E+01  0.66275610219E+01  0.19763213910E+02  0.21004469687E+02  0.51100000000E-03 0.  1.
         12    1    3    3    0    0  0.57459752002E+01  0.84211350441E+01  0.12202786613E+02  0.15900935430E+02  0.00000000000E+00 0. -1.
</event>
<event>
 7    1  0.1418970E-010  0.4778727E+02  0.7816164E-02  0.1312668E+00
        -11   -1    0    0    0    0  0.00000000000E+00  0.00000000000E+00  0.45593999997E+02  0.45594000000E+02  0.51100000000E-03 0.  1.
         11   -1    0    0    0    0 -0.00000000000E+00 -0.00000000000E+00 -0.45593999997E+02  0.45594000000E+02  0.51100000000E-03 0. -1.
    9900012    2    1    2    0    0  0.21882400185E+02 -0.12963496253E+02  0.35167194238E+02  0.47787271625E+02  0.20000002645E+02 0.  0.
         12    1    1    2    0    0 -0.21882400185E+02  0.12963496253E+02 -0.35167194238E+02  0.43400728375E+02  0.00000000000E+00 0. -1.
         11    1    3    3    0    0 -0.15796204598E+01  0.34346359398E-01  0.40874726053E+01  0.43822155389E+01  0.51100000000E-03 0. -1.
        -11    1    3    3    0    0  0.83836186601E+01  0.15528674373E+01  0.13908445091E+02  0.16313837814E+02  0.51100000000E-03 0.  1.
         12    1    3    3    0    0  0.15078401985E+02 -0.14550710050E+02  0.17171276542E+02  0.27091218271E+02  0.00000000000E+00 0. -1.
</event>
<event>
 7    1  0.1418970E-010  0.4778727E+02  0.7816164E-02  0.1312668E+00
        -11   -1    0    0    0    0  0.00000000000E+00  0.00000000000E+00  0.45593999997E+02  0.45594000000E+02  0.51100000000E-03 0.  1.
         11   -1    0    0    0    0 -0.00000000000E+00 -0.00000000000E+00 -0.45593999997E+02  0.45594000000E+02  0.51100000000E-03 0. -1.
    9900012    2    1    2    0    0  0.42725999591E+02 -0.35074838602E+01  0.67682996261E+01  0.47787270008E+02  0.19999995273E+02 0.  0.
         12    1    1    2    0    0 -0.42725999591E+02  0.35074838602E+01 -0.67682996261E+01  0.43400729992E+02  0.00000000000E+00 0. -1.
         11    1    3    3    0    0  0.34815727650E+02 -0.75721942376E+01  0.59052550646E+01  0.36115717562E+02  0.51100000000E-03 0. -1.
        -11    1    3    3    0    0  0.49358874545E+00 -0.55563723479E+00  0.26502891820E+01  0.27525253124E+01  0.51100000000E-03 0.  1.
         12    1    3    3    0    0  0.74166831953E+01  0.46203476122E+01 -0.17872446205E+01  0.89190271336E+01  0.00000000000E+00 0. -1.
</event>
<event>
 7    1  0.1418970E-010  0.4778727E+02  0.7816164E-02  0.1312668E+00
        -11   -1    0    0    0    0  0.00000000000E+00  0.00000000000E+00  0.45593999997E+02  0.45594000000E+02  0.51100000000E-03 0.  1.
         11   -1    0    0    0    0 -0.00000000000E+00 -0.00000000000E+00 -0.45593999997E+02  0.45594000000E+02  0.51100000000E-03 0. -1.
    9900012    2    1    2    0    0  0.34617112806E+02  0.25959196326E+02  0.33762350739E+01  0.47787270327E+02  0.19999996729E+02 0.  0.
         12    1    1    2    0    0 -0.34617112806E+02 -0.25959196326E+02 -0.33762350739E+01  0.43400729673E+02  0.00000000000E+00 0. -1.
         11    1    3    3    0    0  0.52505813387E+01  0.20777664312E+01 -0.60414740410E+01  0.82695300100E+01  0.51100000000E-03 0. -1.
        -11    1    3    3    0    0  0.64396235169E+01  0.88778691849E+01  0.31372139003E+01  0.11407340778E+02  0.51100000000E-03 0.  1.
         12    1    3    3    0    0  0.22926907950E+02  0.15003560710E+02  0.62804952145E+01  0.28110399539E+02  0.00000000000E+00 0. -1.
</event>
<event>
 7    1  0.1418970E-010  0.4778727E+02  0.7816164E-02  0.1312668E+00
        -11   -1    0    0    0    0  0.00000000000E+00  0.00000000000E+00  0.45593999997E+02  0.45594000000E+02  0.51100000000E-03 0.  1.
         11   -1    0    0    0    0 -0.00000000000E+00 -0.00000000000E+00 -0.45593999997E+02  0.45594000000E+02  0.51100000000E-03 0. -1.
    9900012    2    1    2    0    0 -0.37998233140E+02 -0.85374017723E+01  0.19153859512E+02  0.47787270916E+02  0.19999999416E+02 0.  0.
         12    1    1    2    0    0  0.37998233140E+02  0.85374017723E+01 -0.19153859512E+02  0.43400729084E+02  0.00000000000E+00 0. -1.
         11    1    3    3    0    0 -0.21188717597E+02 -0.39748326326E+01  0.12679958472E+02  0.25010845547E+02  0.51100000000E-03 0. -1.
        -11    1    3    3    0    0 -0.17539705375E+02 -0.71679342919E+01  0.66088113597E+01  0.20067310096E+02  0.51100000000E-03 0.  1.
         12    1    3    3    0    0  0.73018983200E+00  0.26053651523E+01 -0.13491032014E+00  0.27091152729E+01  0.00000000000E+00 0. -1.
</event>
<event>
 7    1  0.1418970E-010  0.4778724E+02  0.7816164E-02  0.1312668E+00
        -11   -1    0    0    0    0  0.00000000000E+00  0.00000000000E+00  0.45593999997E+02  0.45594000000E+02  0.51100000000E-03 0.  1.
         11   -1    0    0    0    0 -0.00000000000E+00 -0.00000000000E+00 -0.45593999997E+02  0.45594000000E+02  0.51100000000E-03 0. -1.
    9900012    2    1    2    0    0 -0.41928498675E+02  0.10211237453E+02  0.46214637819E+01  0.47787236194E+02  0.19999841101E+02 0.  0.
         12    1    1    2    0    0  0.41928498675E+02 -0.10211237453E+02 -0.46214637819E+01  0.43400763806E+02  0.00000000000E+00 0. -1.
         11    1    3    3    0    0 -0.11996863553E+02  0.78002150538E+01  0.74248505789E+01  0.16121305666E+02  0.51100000000E-03 0. -1.
        -11    1    3    3    0    0 -0.23730490628E+02 -0.37621326419E+00  0.12219426033E+01  0.23764908286E+02  0.51100000000E-03 0.  1.
        -12    1    3    3    0    0 -0.62011444942E+01  0.27872356630E+01 -0.40253294004E+01  0.79010222415E+01  0.00000000000E+00 0.  1.
</event>
<event>
 7    1  0.1418970E-010  0.4778727E+02  0.7816164E-02  0.1312668E+00
        -11   -1    0    0    0    0  0.00000000000E+00  0.00000000000E+00  0.45593999997E+02  0.45594000000E+02  0.51100000000E-03 0. -1.
         11   -1    0    0    0    0 -0.00000000000E+00 -0.00000000000E+00 -0.45593999997E+02  0.45594000000E+02  0.51100000000E-03 0.  1.
    9900012    2    1    2    0    0 -0.18190073309E+02  0.65006732140E+01 -0.38864967829E+02  0.47787271393E+02  0.20000001590E+02 0.  0.
         12    1    1    2    0    0  0.18190073309E+02 -0.65006732140E+01  0.38864967829E+02  0.43400728607E+02  0.00000000000E+00 0. -1.
         11    1    3    3    0    0  0.14088930593E+01  0.15953365552E+01 -0.27524382105E+00  0.21461215714E+01  0.51100000000E-03 0. -1.
        -11    1    3    3    0    0 -0.16762456116E+02 -0.19871247506E+01 -0.25573070810E+02  0.30641647324E+02  0.51100000000E-03 0.  1.
        -12    1    3    3    0    0 -0.28365102522E+01  0.68924614093E+01 -0.13016653199E+02  0.14999502498E+02  0.00000000000E+00 0.  1.
</event>
<event>
 7    1  0.1418970E-010  0.4778727E+02  0.7816164E-02  0.1312668E+00
        -11   -1    0    0    0    0  0.00000000000E+00  0.00000000000E+00  0.45593999997E+02  0.45594000000E+02  0.51100000000E-03 0.  1.
         11   -1    0    0    0    0 -0.00000000000E+00 -0.00000000000E+00 -0.45593999997E+02  0.45594000000E+02  0.51100000000E-03 0. -1.
    9900012    2    1    2    0    0  0.16591931037E+02  0.34995999337E+02  0.19586000822E+02  0.47787267595E+02  0.19999984272E+02 0.  0.
         12    1    1    2    0    0 -0.16591931037E+02 -0.34995999337E+02 -0.19586000822E+02  0.43400732405E+02  0.00000000000E+00 0. -1.
         11    1    3    3    0    0 -0.11467192925E+01  0.11231518256E+02  0.67828823623E+00  0.11310262715E+02  0.51100000000E-03 0. -1.
        -11    1    3    3    0    0  0.28162784087E+01  0.77961438463E+00  0.48882017066E+01  0.56950626730E+01  0.51100000000E-03 0.  1.
        -12    1    3    3    0    0  0.14922371920E+02  0.22984866696E+02  0.14019510879E+02  0.30781942207E+02  0.00000000000E+00 0.  1.
</event>
<event>
 7    1  0.1418970E-010  0.4778727E+02  0.7816164E-02  0.1312668E+00
        -11   -1    0    0    0    0  0.00000000000E+00  0.00000000000E+00  0.45593999997E+02  0.45594000000E+02  0.51100000000E-03 0.  1.
         11   -1    0    0    0    0 -0.00000000000E+00 -0.00000000000E+00 -0.45593999997E+02  0.45594000000E+02  0.51100000000E-03 0. -1.
    9900012    2    1    2    0    0 -0.18512678891E+02  0.28723900742E+02  0.26755212459E+02  0.47787272503E+02  0.20000006651E+02 0.  0.
         12    1    1    2    0    0  0.18512678891E+02 -0.28723900742E+02 -0.26755212459E+02  0.43400727497E+02  0.00000000000E+00 0. -1.
         11    1    3    3    0    0  0.35200475661E+00  0.44148576906E+01 -0.17469593874E+00  0.44323125689E+01  0.51100000000E-03 0. -1.
        -11    1    3    3    0    0 -0.12004666587E+02  0.23393537141E+02  0.24721090527E+02  0.36090191423E+02  0.51100000000E-03 0.  1.
        -12    1    3    3    0    0 -0.68600170600E+01  0.91550591025E+00  0.22088178707E+01  0.72647685112E+01  0.00000000000E+00 0.  1.
</event>
<event>
 7    1  0.1418970E-010  0.4778727E+02  0.7816164E-02  0.1312668E+00
        -11   -1    0    0    0    0  0.00000000000E+00  0.00000000000E+00  0.45593999997E+02  0.45594000000E+02  0.51100000000E-03 0.  1.
         11   -1    0    0    0    0 -0.00000000000E+00 -0.00000000000E+00 -0.45593999997E+02  0.45594000000E+02  0.51100000000E-03 0. -1.
    9900012    2    1    2    0    0  0.23580961125E+02  0.60886368716E+01  0.35923390439E+02  0.47787271813E+02  0.20000003505E+02 0.  0.
         12    1    1    2    0    0 -0.23580961125E+02 -0.60886368716E+01 -0.35923390439E+02  0.43400728187E+02  0.00000000000E+00 0. -1.
         11    1    3    3    0    0  0.11420092528E+01 -0.38635822318E+00  0.94320445753E+01  0.95087813594E+01  0.51100000000E-03 0. -1.
        -11    1    3    3    0    0  0.48479832512E+01  0.66307617152E+01  0.15481442809E+02  0.17525553179E+02  0.51100000000E-03 0.  1.
         12    1    3    3    0    0  0.17590968621E+02 -0.15576662043E+00  0.11009903055E+02  0.20752937275E+02  0.00000000000E+00 0. -1.
</event>
<event>
 7    1  0.1418970E-010  0.4778727E+02  0.7816164E-02  0.1312668E+00
        -11   -1    0    0    0    0  0.00000000000E+00  0.00000000000E+00  0.45593999997E+02  0.45594000000E+02  0.51100000000E-03 0.  1.
         11   -1    0    0    0    0 -0.00000000000E+00 -0.00000000000E+00 -0.45593999997E+02  0.45594000000E+02  0.51100000000E-03 0. -1.
    9900012    2    1    2    0    0 -0.77979040235E+00 -0.14108445614E+02  0.41036162777E+02  0.47787274589E+02  0.20000016163E+02 0.  0.
         12    1    1    2    0    0  0.77979040235E+00  0.14108445614E+02 -0.41036162777E+02  0.43400725411E+02  0.00000000000E+00 0. -1.
         11    1    3    3    0    0  0.33122762599E+01 -0.76995741604E+01  0.55771665658E+01  0.10067740731E+02  0.51100000000E-03 0. -1.
        -11    1    3    3    0    0  0.22864458195E+01 -0.52922332042E+01  0.22578690863E+02  0.23303065209E+02  0.51100000000E-03 0.  1.
        -12    1    3    3    0    0 -0.63785124817E+01 -0.11166382499E+01  0.12880305348E+02  0.14416468649E+02  0.00000000000E+00 0.  1.
</event>
<event>
 7    1  0.1418970E-010  0.4778727E+02  0.7816164E-02  0.1312668E+00
        -11   -1    0    0    0    0  0.00000000000E+00  0.00000000000E+00  0.45593999997E+02  0.45594000000E+02  0.51100000000E-03 0. -1.
         11   -1    0    0    0    0 -0.00000000000E+00 -0.00000000000E+00 -0.45593999997E+02  0.45594000000E+02  0.51100000000E-03 0.  1.
    9900012    2    1    2    0    0  0.39808345498E+01 -0.39875739969E+02 -0.16664384671E+02  0.47787269612E+02  0.19999993468E+02 0.  0.
         12    1    1    2    0    0 -0.39808345498E+01  0.39875739969E+02  0.16664384671E+02  0.43400730388E+02  0.00000000000E+00 0. -1.
         11    1    3    3    0    0  0.66089297097E+00  0.52403236488E+00 -0.26671933095E+01  0.27973755290E+01  0.51100000000E-03 0. -1.
        -11    1    3    3    0    0  0.68621813418E+01 -0.29962278192E+02 -0.14435552094E+02  0.33958987202E+02  0.51100000000E-03 0.  1.
         12    1    3    3    0    0 -0.35422397630E+01 -0.10437494141E+02  0.43836073267E+00  0.11030906881E+02  0.00000000000E+00 0. -1.
</event>
<event>
 7    1  0.1418970E-010  0.4778727E+02  0.7816164E-02  0.1312668E+00
        -11   -1    0    0    0    0  0.00000000000E+00  0.00000000000E+00  0.45593999997E+02  0.45594000000E+02  0.51100000000E-03 0. -1.
         11   -1    0    0    0    0 -0.00000000000E+00 -0.00000000000E+00 -0.45593999997E+02  0.45594000000E+02  0.51100000000E-03 0.  1.
    9900012    2    1    2    0    0 -0.42586941191E+02  0.46649654117E+01 -0.69436257459E+01  0.47787269583E+02  0.19999993335E+02 0.  0.
         12    1    1    2    0    0  0.42586941191E+02 -0.46649654117E+01  0.69436257459E+01  0.43400730417E+02  0.00000000000E+00 0. -1.
         11    1    3    3    0    0 -0.13340909394E+02  0.54558018631E+01 -0.28542894673E+00  0.14416209882E+02  0.51100000000E-03 0. -1.
        -11    1    3    3    0    0 -0.22425095842E+02  0.11082972365E+01  0.15803613457E+01  0.22508016095E+02  0.51100000000E-03 0.  1.
         12    1    3    3    0    0 -0.68209359542E+01 -0.18991336879E+01 -0.82385581449E+01  0.10863043605E+02  0.00000000000E+00 0. -1.
</event>
<event>
 7    1  0.1418970E-010  0.4778727E+02  0.7816164E-02  0.1312668E+00
        -11   -1    0    0    0    0  0.00000000000E+00  0.00000000000E+00  0.45593999997E+02  0.45594000000E+02  0.51100000000E-03 0.  1.
         11   -1    0    0    0    0 -0.00000000000E+00 -0.00000000000E+00 -0.45593999997E+02  0.45594000000E+02  0.51100000000E-03 0. -1.
    9900012    2    1    2    0    0  0.35046830765E+01  0.32878877132E+02  0.28112628796E+02  0.47787271172E+02  0.20000000584E+02 0.  0.
         12    1    1    2    0    0 -0.35046830765E+01 -0.32878877132E+02 -0.28112628796E+02  0.43400728828E+02  0.00000000000E+00 0. -1.
         11    1    3    3    0    0 -0.59425203371E+01  0.18871755054E+02  0.93659227244E+01  0.21890116388E+02  0.51100000000E-03 0. -1.
        -11    1    3    3    0    0  0.27527768031E+01  0.17926070458E+01  0.67797167212E+01  0.75336431578E+01  0.51100000000E-03 0.  1.
        -12    1    3    3    0    0  0.66944266106E+01  0.12214515033E+02  0.11966989351E+02  0.18363511626E+02  0.00000000000E+00 0.  1.
</event>
<event>
 7    1  0.1418970E-010  0.4778727E+02  0.7816164E-02  0.1312668E+00
        -11   -1    0    0    0    0  0.00000000000E+00  0.00000000000E+00  0.45593999997E+02  0.45594000000E+02  0.51100000000E-03 0.  1.
         11   -1    0    0    0    0 -0.00000000000E+00 -0.00000000000E+00 -0.45593999997E+02  0.45594000000E+02  0.51100000000E-03 0. -1.
    9900012    2    1    2    0    0 -0.27958408348E+02 -0.33076728253E+02 -0.28073455464E+01  0.47787265695E+02  0.19999975608E+02 0.  0.
         12    1    1    2    0    0  0.27958408348E+02  0.33076728253E+02  0.28073455464E+01  0.43400734305E+02  0.00000000000E+00 0. -1.
         11    1    3    3    0    0 -0.23734929065E+01 -0.19839910366E+01  0.25256726227E+01  0.39935837876E+01  0.51100000000E-03 0.  1.
        -11    1    3    3    0    0  0.72747466445E+00 -0.67641611563E+01 -0.40861179080E+01  0.79359596366E+01  0.51100000000E-03 0. -1.
         12    1    3    3    0    0 -0.26312390105E+02 -0.24328576060E+02 -0.12469002611E+01  0.35857722270E+02  0.00000000000E+00 0. -1.
</event>
<event>
 7    1  0.1418970E-010  0.4778727E+02  0.7816164E-02  0.1312668E+00
        -11   -1    0    0    0    0  0.00000000000E+00  0.00000000000E+00  0.45593999997E+02  0.45594000000E+02  0.51100000000E-03 0.  1.
         11   -1    0    0    0    0 -0.00000000000E+00 -0.00000000000E+00 -0.45593999997E+02  0.45594000000E+02  0.51100000000E-03 0. -1.
    9900012    2    1    2    0    0  0.65169199563E+01 -0.70437522161E+01  0.42326570829E+02  0.47787270868E+02  0.19999999197E+02 0.  0.
         12    1    1    2    0    0 -0.65169199563E+01  0.70437522161E+01 -0.42326570829E+02  0.43400729132E+02  0.00000000000E+00 0. -1.
         11    1    3    3    0    0  0.17552701826E+01 -0.54468294679E+01  0.23789196197E+02  0.24467831547E+02  0.51100000000E-03 0. -1.
        -11    1    3    3    0    0  0.43132565805E+01  0.53571241529E+01  0.11605343148E+02  0.13490253940E+02  0.51100000000E-03 0.  1.
         12    1    3    3    0    0  0.44839319312E+00 -0.69540469011E+01  0.69320314844E+01  0.98291853813E+01  0.00000000000E+00 0. -1.
</event>
<event>
 7    1  0.1418970E-010  0.4778727E+02  0.7816164E-02  0.1312668E+00
        -11   -1    0    0    0    0  0.00000000000E+00  0.00000000000E+00  0.45593999997E+02  0.45594000000E+02  0.51100000000E-03 0. -1.
         11   -1    0    0    0    0 -0.00000000000E+00 -0.00000000000E+00 -0.45593999997E+02  0.45594000000E+02  0.51100000000E-03 0.  1.
    9900012    2    1    2    0    0 -0.23720742655E+02 -0.31267056966E+02 -0.18528915905E+02  0.47787271803E+02  0.20000003458E+02 0.  0.
         12    1    1    2    0    0  0.23720742655E+02  0.31267056966E+02  0.18528915905E+02  0.43400728197E+02  0.00000000000E+00 0. -1.
         11    1    3    3    0    0 -0.15540990823E+01 -0.73865723216E+01  0.28811153061E+01  0.80794492565E+01  0.51100000000E-03 0. -1.
        -11    1    3    3    0    0 -0.98562030487E+01 -0.57001372012E+01 -0.87824797689E+01  0.14379438577E+02  0.51100000000E-03 0.  1.
        -12    1    3    3    0    0 -0.12310440524E+02 -0.18180347443E+02 -0.12627551443E+02  0.25328383969E+02  0.00000000000E+00 0.  1.
</event>
<event>
 7    1  0.1418970E-010  0.4778727E+02  0.7816164E-02  0.1312668E+00
        -11   -1    0    0    0    0  0.00000000000E+00  0.00000000000E+00  0.45593999997E+02  0.45594000000E+02  0.51100000000E-03 0.  1.
         11   -1    0    0    0    0 -0.00000000000E+00 -0.00000000000E+00 -0.45593999997E+02  0.45594000000E+02  0.51100000000E-03 0. -1.
    9900012    2    1    2    0    0  0.21989295142E+02  0.27763816804E+02 -0.25085152321E+02  0.47787268540E+02  0.19999988580E+02 0.  0.
         12    1    1    2    0    0 -0.21989295142E+02 -0.27763816804E+02  0.25085152321E+02  0.43400731460E+02  0.00000000000E+00 0. -1.
         11    1    3    3    0    0  0.82688181060E+01  0.97443553618E+01 -0.18457581260E+02  0.22450125179E+02  0.51100000000E-03 0. -1.
        -11    1    3    3    0    0  0.13209374599E+02  0.15126426483E+02 -0.85496306115E+01  0.21826418380E+02  0.51100000000E-03 0.  1.
        -12    1    3    3    0    0  0.51110243673E+00  0.28930349594E+01  0.19220595512E+01  0.35107249815E+01  0.00000000000E+00 0.  1.
</event>
<event>
 7    1  0.1418970E-010  0.4778727E+02  0.7816164E-02  0.1312668E+00
        -11   -1    0    0    0    0  0.00000000000E+00  0.00000000000E+00  0.45593999997E+02  0.45594000000E+02  0.51100000000E-03 0. -1.
         11   -1    0    0    0    0 -0.00000000000E+00 -0.00000000000E+00 -0.45593999997E+02  0.45594000000E+02  0.51100000000E-03 0.  1.
    9900012    2    1    2    0    0 -0.20890129090E+02 -0.11526390094E+02 -0.36254213971E+02  0.47787271981E+02  0.20000004268E+02 0.  0.
         12    1    1    2    0    0  0.20890129090E+02  0.11526390094E+02  0.36254213971E+02  0.43400728019E+02  0.00000000000E+00 0. -1.
         11    1    3    3    0    0 -0.91558211521E+01 -0.27243207511E+01 -0.12297214357E+02  0.15571527405E+02  0.51100000000E-03 0. -1.
        -11    1    3    3    0    0 -0.18588096593E+01 -0.51077984160E+01  0.62167250778E+00  0.54709464425E+01  0.51100000000E-03 0.  1.
        -12    1    3    3    0    0 -0.98754982787E+01 -0.36942709265E+01 -0.24578672121E+02  0.26744798133E+02  0.00000000000E+00 0.  1.
</event>
<event>
 7    1  0.1418970E-010  0.4778727E+02  0.7816164E-02  0.1312668E+00
        -11   -1    0    0    0    0  0.00000000000E+00  0.00000000000E+00  0.45593999997E+02  0.45594000000E+02  0.51100000000E-03 0.  1.
         11   -1    0    0    0    0 -0.00000000000E+00 -0.00000000000E+00 -0.45593999997E+02  0.45594000000E+02  0.51100000000E-03 0. -1.
    9900012    2    1    2    0    0  0.24692641252E+01 -0.23532775915E+02  0.36383165888E+02  0.47787267660E+02  0.19999984570E+02 0.  0.
         12    1    1    2    0    0 -0.24692641252E+01  0.23532775915E+02 -0.36383165888E+02  0.43400732340E+02  0.00000000000E+00 0. -1.
         11    1    3    3    0    0 -0.75645426695E+00  0.14824855419E+01 -0.46024761151E+00  0.17267931448E+01  0.51100000000E-03 0. -1.
        -11    1    3    3    0    0  0.31595215334E+01 -0.77520667069E+01  0.21086378642E+02  0.22687275708E+02  0.51100000000E-03 0.  1.
        -12    1    3    3    0    0  0.66196858700E-01 -0.17263194750E+02  0.15757034858E+02  0.23373198808E+02  0.00000000000E+00 0.  1.
</event>
<event>
 7    1  0.1418970E-010  0.4778727E+02  0.7816164E-02  0.1312668E+00
        -11   -1    0    0    0    0  0.00000000000E+00  0.00000000000E+00  0.45593999997E+02  0.45594000000E+02  0.51100000000E-03 0.  1.
         11   -1    0    0    0    0 -0.00000000000E+00 -0.00000000000E+00 -0.45593999997E+02  0.45594000000E+02  0.51100000000E-03 0. -1.
    9900012    2    1    2    0    0 -0.13060127348E+02 -0.69658281567E+01  0.40798695059E+02  0.47787271818E+02  0.20000003526E+02 0.  0.
         12    1    1    2    0    0  0.13060127348E+02  0.69658281567E+01 -0.40798695059E+02  0.43400728182E+02  0.00000000000E+00 0. -1.
         11    1    3    3    0    0 -0.37062614201E+01 -0.35131645959E+01 -0.50747556710E+00  0.51318837579E+01  0.51100000000E-03 0. -1.
        -11    1    3    3    0    0 -0.32537496769E+01  0.61403869265E+00  0.12605468556E+02  0.13033102787E+02  0.51100000000E-03 0.  1.
         12    1    3    3    0    0 -0.61001162510E+01 -0.40667022535E+01  0.28700702070E+02  0.29622285273E+02  0.00000000000E+00 0. -1.
</event>
<event>
 7    1  0.1418970E-010  0.4778727E+02  0.7816164E-02  0.1312668E+00
        -11   -1    0    0    0    0  0.00000000000E+00  0.00000000000E+00  0.45593999997E+02  0.45594000000E+02  0.51100000000E-03 0.  1.
         11   -1    0    0    0    0 -0.00000000000E+00 -0.00000000000E+00 -0.45593999997E+02  0.45594000000E+02  0.51100000000E-03 0. -1.
    9900012    2    1    2    0    0 -0.39064223201E+02 -0.12262440733E+02 -0.14395908964E+02  0.47787272104E+02  0.20000004831E+02 0.  0.
         12    1    1    2    0    0  0.39064223201E+02  0.12262440733E+02  0.14395908964E+02  0.43400727896E+02  0.00000000000E+00 0. -1.
         11    1    3    3    0    0 -0.17913670508E+01  0.39618685482E+00  0.18477091261E+01  0.26038412414E+01  0.51100000000E-03 0. -1.
        -11    1    3    3    0    0 -0.19928817206E+02 -0.13033319860E+02 -0.14176098453E+02  0.27712577459E+02  0.51100000000E-03 0.  1.
         12    1    3    3    0    0 -0.17344038944E+02  0.37469227275E+00 -0.20675196366E+01  0.17470853403E+02  0.00000000000E+00 0. -1.
</event>
<event>
 7    1  0.1418970E-010  0.4778727E+02  0.7816164E-02  0.1312668E+00
        -11   -1    0    0    0    0  0.00000000000E+00  0.00000000000E+00  0.45593999997E+02  0.45594000000E+02  0.51100000000E-03 0.  1.
         11   -1    0    0    0    0 -0.00000000000E+00 -0.00000000000E+00 -0.45593999997E+02  0.45594000000E+02  0.51100000000E-03 0. -1.
    9900012    2    1    2    0    0 -0.39585102055E+02  0.96903585619E+00  0.17768053216E+02  0.47787273620E+02  0.20000011745E+02 0.  0.
         12    1    1    2    0    0  0.39585102055E+02 -0.96903585619E+00 -0.17768053216E+02  0.43400726380E+02  0.00000000000E+00 0. -1.
         11    1    3    3    0    0 -0.88138097087E+01 -0.44009695478E+01 -0.14023002308E+01  0.99507899556E+01  0.51100000000E-03 0. -1.
        -11    1    3    3    0    0 -0.15424945090E+01  0.41204099823E+00 -0.10858195618E+01  0.19308214512E+01  0.51100000000E-03 0.  1.
        -12    1    3    3    0    0 -0.29228797837E+02  0.49579644057E+01  0.20256173008E+02  0.35905662214E+02  0.00000000000E+00 0.  1.
</event>
<event>
 7    1  0.1418970E-010  0.4778727E+02  0.7816164E-02  0.1312668E+00
        -11   -1    0    0    0    0  0.00000000000E+00  0.00000000000E+00  0.45593999997E+02  0.45594000000E+02  0.51100000000E-03 0.  1.
         11   -1    0    0    0    0 -0.00000000000E+00 -0.00000000000E+00 -0.45593999997E+02  0.45594000000E+02  0.51100000000E-03 0. -1.
    9900012    2    1    2    0    0 -0.11334997588E+01 -0.10817037738E+02  0.42015833266E+02  0.47787269912E+02  0.19999994838E+02 0.  0.
         12    1    1    2    0    0  0.11334997588E+01  0.10817037738E+02 -0.42015833266E+02  0.43400730088E+02  0.00000000000E+00 0. -1.
         11    1    3    3    0    0 -0.10290050933E+02 -0.72447298636E+01  0.22898262881E+02  0.26128561044E+02  0.51100000000E-03 0.  1.
        -11    1    3    3    0    0  0.31793460278E+01 -0.25114160204E+01  0.65510088047E+01  0.77026727967E+01  0.51100000000E-03 0. -1.
        -12    1    3    3    0    0  0.59772051462E+01 -0.10608918536E+01  0.12566561580E+02  0.13956036071E+02  0.00000000000E+00 0.  1.
</event>
<event>
 7    1  0.1418970E-010  0.4778727E+02  0.7816164E-02  0.1312668E+00
        -11   -1    0    0    0    0  0.00000000000E+00  0.00000000000E+00  0.45593999997E+02  0.45594000000E+02  0.51100000000E-03 0.  1.
         11   -1    0    0    0    0 -0.00000000000E+00 -0.00000000000E+00 -0.45593999997E+02  0.45594000000E+02  0.51100000000E-03 0. -1.
    9900012    2    1    2    0    0 -0.31495622201E+02 -0.94489790596E+01  0.28326058779E+02  0.47787273865E+02  0.20000012858E+02 0.  0.
         12    1    1    2    0    0  0.31495622201E+02  0.94489790596E+01 -0.28326058779E+02  0.43400726135E+02  0.00000000000E+00 0. -1.
         11    1    3    3    0    0 -0.69257156802E+00 -0.52502178911E+01  0.29712251634E+01  0.60722831384E+01  0.51100000000E-03 0. -1.
        -11    1    3    3    0    0 -0.11124366021E+02  0.17771976796E+01  0.14796686145E+02  0.18597093109E+02  0.51100000000E-03 0.  1.
        -12    1    3    3    0    0 -0.19678684612E+02 -0.59759588481E+01  0.10558147471E+02  0.23117897617E+02  0.00000000000E+00 0.  1.
</event>
<event>
 7    1  0.1418970E-010  0.4778727E+02  0.7816164E-02  0.1312668E+00
        -11   -1    0    0    0    0  0.00000000000E+00  0.00000000000E+00  0.45593999997E+02  0.45594000000E+02  0.51100000000E-03 0.  1.
         11   -1    0    0    0    0 -0.00000000000E+00 -0.00000000000E+00 -0.45593999997E+02  0.45594000000E+02  0.51100000000E-03 0. -1.
    9900012    2    1    2    0    0  0.25182407081E+02  0.20255596799E+02  0.28968619742E+02  0.47787265469E+02  0.19999974581E+02 0.  0.
         12    1    1    2    0    0 -0.25182407081E+02 -0.20255596799E+02 -0.28968619742E+02  0.43400734531E+02  0.00000000000E+00 0. -1.
         11    1    3    3    0    0  0.53399737542E+01  0.26666788522E+01  0.96560193615E+01  0.11351881164E+02  0.51100000000E-03 0. -1.
        -11    1    3    3    0    0  0.13222582681E+02  0.97643170693E+01  0.23324575847E+01  0.16601775183E+02  0.51100000000E-03 0.  1.
        -12    1    3    3    0    0  0.66198506458E+01  0.78246008773E+01  0.16980142795E+02  0.19833609122E+02  0.00000000000E+00 0.  1.
</event>
<event>
 7    1  0.1418970E-010  0.4778728E+02  0.7816164E-02  0.1312668E+00
        -11   -1    0    0    0    0  0.00000000000E+00  0.00000000000E+00  0.45593999997E+02  0.45594000000E+02  0.51100000000E-03 0.  1.
         11   -1    0    0    0    0 -0.00000000000E+00 -0.00000000000E+00 -0.45593999997E+02  0.45594000000E+02  0.51100000000E-03 0. -1.
    9900012    2    1    2    0    0  0.16371633333E+02 -0.10830524838E+02  0.38707780497E+02  0.47787275153E+02  0.20000018732E+02 0.  0.
         12    1    1    2    0    0 -0.16371633333E+02  0.10830524838E+02 -0.38707780497E+02  0.43400724847E+02  0.00000000000E+00 0. -1.
         11    1    3    3    0    0 -0.19190901840E+01  0.11307282331E+01  0.20192615604E+01  0.30064715169E+01  0.51100000000E-03 0. -1.
        -11    1    3    3    0    0 -0.52177417646E+00 -0.26574104928E+00  0.10345522633E+02  0.10362080168E+02  0.51100000000E-03 0.  1.
        -12    1    3    3    0    0  0.18812497693E+02 -0.11695512022E+02  0.26342996304E+02  0.34418723468E+02  0.00000000000E+00 0.  1.
</event>
<event>
 7    1  0.1418970E-010  0.4778725E+02  0.7816164E-02  0.1312668E+00
        -11   -1    0    0    0    0  0.00000000000E+00  0.00000000000E+00  0.45593999997E+02  0.45594000000E+02  0.51100000000E-03 0.  1.
         11   -1    0    0    0    0 -0.00000000000E+00 -0.00000000000E+00 -0.45593999997E+02  0.45594000000E+02  0.51100000000E-03 0. -1.
    9900012    2    1    2    0    0 -0.25546694086E+02  0.11660034809E+02  0.33091308756E+02  0.47787254550E+02  0.19999924793E+02 0.  0.
         12    1    1    2    0    0  0.25546694086E+02 -0.11660034809E+02 -0.33091308756E+02  0.43400745450E+02  0.00000000000E+00 0. -1.
         11    1    3    3    0    0 -0.67833968127E+01  0.25871791534E+00  0.18194613011E+01  0.70279333354E+01  0.51100000000E-03 0. -1.
        -11    1    3    3    0    0 -0.20705926285E+02  0.11823837595E+02  0.30269571381E+02  0.38532914121E+02  0.51100000000E-03 0.  1.
         12    1    3    3    0    0  0.19426290113E+01 -0.42252070123E+00  0.10022760738E+01  0.22264070936E+01  0.00000000000E+00 0. -1.
</event>
<event>
 7    1  0.1418970E-010  0.4778728E+02  0.7816164E-02  0.1312668E+00
        -11   -1    0    0    0    0  0.00000000000E+00  0.00000000000E+00  0.45593999997E+02  0.45594000000E+02  0.51100000000E-03 0.  1.
         11   -1    0    0    0    0 -0.00000000000E+00 -0.00000000000E+00 -0.45593999997E+02  0.45594000000E+02  0.51100000000E-03 0. -1.
    9900012    2    1    2    0    0  0.33103953930E+02  0.23873177597E+02  0.14758783796E+02  0.47787284873E+02  0.20000063051E+02 0.  0.
         12    1    1    2    0    0 -0.33103953930E+02 -0.23873177597E+02 -0.14758783796E+02  0.43400715127E+02  0.00000000000E+00 0. -1.
         11    1    3    3    0    0  0.15974592427E+02  0.58941839251E+01  0.11776868402E+02  0.20703227694E+02  0.51100000000E-03 0. -1.
        -11    1    3    3    0    0  0.18098344349E+02  0.16382689207E+02  0.43140848881E+01  0.24790197710E+02  0.51100000000E-03 0.  1.
        -12    1    3    3    0    0 -0.96898284598E+00  0.15963044649E+01 -0.13321694941E+01  0.22938594685E+01  0.00000000000E+00 0.  1.
</event>
<event>
 7    1  0.1418970E-010  0.4778727E+02  0.7816164E-02  0.1312668E+00
        -11   -1    0    0    0    0  0.00000000000E+00  0.00000000000E+00  0.45593999997E+02  0.45594000000E+02  0.51100000000E-03 0.  1.
         11   -1    0    0    0    0 -0.00000000000E+00 -0.00000000000E+00 -0.45593999997E+02  0.45594000000E+02  0.51100000000E-03 0. -1.
    9900012    2    1    2    0    0 -0.18416089357E+02  0.19030414225E+02  0.34384797927E+02  0.47787270268E+02  0.19999996460E+02 0.  0.
         12    1    1    2    0    0  0.18416089357E+02 -0.19030414225E+02 -0.34384797927E+02  0.43400729732E+02  0.00000000000E+00 0. -1.
         11    1    3    3    0    0 -0.70651700123E+01 -0.47624022265E+00  0.13736200950E+02  0.15454017240E+02  0.51100000000E-03 0. -1.
        -11    1    3    3    0    0 -0.18918501211E+01 -0.16630225662E+00 -0.47450729852E+00  0.19575266942E+01  0.51100000000E-03 0.  1.
        -12    1    3    3    0    0 -0.94590692234E+01  0.19672956704E+02  0.21123104276E+02  0.30375726334E+02  0.00000000000E+00 0.  1.
</event>
<event>
 7    1  0.1418970E-010  0.4778727E+02  0.7816164E-02  0.1312668E+00
        -11   -1    0    0    0    0  0.00000000000E+00  0.00000000000E+00  0.45593999997E+02  0.45594000000E+02  0.51100000000E-03 0.  1.
         11   -1    0    0    0    0 -0.00000000000E+00 -0.00000000000E+00 -0.45593999997E+02  0.45594000000E+02  0.51100000000E-03 0. -1.
    9900012    2    1    2    0    0 -0.22914126692E+02 -0.52614874543E+01  0.36481269922E+02  0.47787268353E+02  0.19999987730E+02 0.  0.
         12    1    1    2    0    0  0.22914126692E+02  0.52614874543E+01 -0.36481269922E+02  0.43400731647E+02  0.00000000000E+00 0. -1.
         11    1    3    3    0    0 -0.81731859165E+00  0.18105722860E+01  0.57688168586E+01  0.61012646141E+01  0.51100000000E-03 0. -1.
        -11    1    3    3    0    0 -0.22559807807E+02 -0.90946016368E+01  0.31193433062E+02  0.39556124351E+02  0.51100000000E-03 0.  1.
        -12    1    3    3    0    0  0.46299970605E+00  0.20225418965E+01 -0.48097999801E+00  0.21298793884E+01  0.00000000000E+00 0.  1.
</event>
<event>
 7    1  0.1418970E-010  0.4778727E+02  0.7816164E-02  0.1312668E+00
        -11   -1    0    0    0    0  0.00000000000E+00  0.00000000000E+00  0.45593999997E+02  0.45594000000E+02  0.51100000000E-03 0.  1.
         11   -1    0    0    0    0 -0.00000000000E+00 -0.00000000000E+00 -0.45593999997E+02  0.45594000000E+02  0.51100000000E-03 0. -1.
    9900012    2    1    2    0    0 -0.31417051046E+02  0.17919717026E+02  0.23989081157E+02  0.47787269943E+02  0.19999994979E+02 0.  0.
         12    1    1    2    0    0  0.31417051046E+02 -0.17919717026E+02 -0.23989081157E+02  0.43400730057E+02  0.00000000000E+00 0. -1.
         11    1    3    3    0    0 -0.36797783843E+01  0.49087952775E+00 -0.11401894337E+01  0.38835246715E+01  0.51100000000E-03 0. -1.
        -11    1    3    3    0    0  0.18528127776E+01  0.15712870179E+01  0.16702417279E+01  0.29481461585E+01  0.51100000000E-03 0.  1.
        -12    1    3    3    0    0 -0.29590085439E+02  0.15857550480E+02  0.23459028863E+02  0.40955599113E+02  0.00000000000E+00 0.  1.
</event>
<event>
 7    1  0.1418970E-010  0.4778727E+02  0.7816164E-02  0.1312668E+00
        -11   -1    0    0    0    0  0.00000000000E+00  0.00000000000E+00  0.45593999997E+02  0.45594000000E+02  0.51100000000E-03 0.  1.
         11   -1    0    0    0    0 -0.00000000000E+00 -0.00000000000E+00 -0.45593999997E+02  0.45594000000E+02  0.51100000000E-03 0. -1.
    9900012    2    1    2    0    0  0.76546867655E+01  0.34176495312E+01  0.42583432180E+02  0.47787271273E+02  0.20000001041E+02 0.  0.
         12    1    1    2    0    0 -0.76546867655E+01 -0.34176495312E+01 -0.42583432180E+02  0.43400728727E+02  0.00000000000E+00 0. -1.
         11    1    3    3    0    0  0.75302495115E+01  0.19953894825E+01  0.15992810732E+02  0.17789216741E+02  0.51100000000E-03 0. -1.
        -11    1    3    3    0    0 -0.37739923258E+01  0.39901135277E+01  0.24078420535E+02  0.24696849186E+02  0.51100000000E-03 0.  1.
         12    1    3    3    0    0  0.38984295799E+01 -0.25678534789E+01  0.25122009137E+01  0.53012053449E+01  0.00000000000E+00 0. -1.
</event>
<event>
 7    1  0.1418970E-010  0.4778727E+02  0.7816164E-02  0.1312668E+00
        -11   -1    0    0    0    0  0.00000000000E+00  0.00000000000E+00  0.45593999997E+02  0.45594000000E+02  0.51100000000E-03 0.  1.
         11   -1    0    0    0    0 -0.00000000000E+00 -0.00000000000E+00 -0.45593999997E+02  0.45594000000E+02  0.51100000000E-03 0. -1.
    9900012    2    1    2    0    0 -0.26926224367E+02 -0.81698499552E+01  0.33043232752E+02  0.47787271462E+02  0.20000001903E+02 0.  0.
         12    1    1    2    0    0  0.26926224367E+02  0.81698499552E+01 -0.33043232752E+02  0.43400728538E+02  0.00000000000E+00 0. -1.
         11    1    3    3    0    0 -0.15374955931E+01  0.24518880823E+01  0.24587198331E+01  0.37974927710E+01  0.51100000000E-03 0. -1.
        -11    1    3    3    0    0 -0.20129337612E+02 -0.94514340829E+01  0.31465223571E+02  0.38530249591E+02  0.51100000000E-03 0.  1.
        -12    1    3    3    0    0 -0.52593911613E+01 -0.11703039546E+01 -0.88071065214E+00  0.54595290993E+01  0.00000000000E+00 0.  1.
</event>
<event>
 7    1  0.1418970E-010  0.4778727E+02  0.7816164E-02  0.1312668E+00
        -11   -1    0    0    0    0  0.00000000000E+00  0.00000000000E+00  0.45593999997E+02  0.45594000000E+02  0.51100000000E-03 0.  1.
         11   -1    0    0    0    0 -0.00000000000E+00 -0.00000000000E+00 -0.45593999997E+02  0.45594000000E+02  0.51100000000E-03 0. -1.
    9900012    2    1    2    0    0 -0.38637217312E+02 -0.86565591564E+01 -0.17772250737E+02  0.47787268736E+02  0.19999989473E+02 0.  0.
         12    1    1    2    0    0  0.38637217312E+02  0.86565591564E+01  0.17772250737E+02  0.43400731264E+02  0.00000000000E+00 0. -1.
         11    1    3    3    0    0 -0.14826003386E+02 -0.77796245875E+01 -0.41219409296E+01  0.17243066212E+02  0.51100000000E-03 0. -1.
        -11    1    3    3    0    0 -0.13990251558E+02 -0.24916500732E+01 -0.72221248809E+00  0.14228740278E+02  0.51100000000E-03 0.  1.
         12    1    3    3    0    0 -0.98209623679E+01  0.16147155042E+01 -0.12928097319E+02  0.16315462246E+02  0.00000000000E+00 0. -1.
</event>
<event>
 7    1  0.1418970E-010  0.4778728E+02  0.7816164E-02  0.1312668E+00
        -11   -1    0    0    0    0  0.00000000000E+00  0.00000000000E+00  0.45593999997E+02  0.45594000000E+02  0.51100000000E-03 0.  1.
         11   -1    0    0    0    0 -0.00000000000E+00 -0.00000000000E+00 -0.45593999997E+02  0.45594000000E+02  0.51100000000E-03 0. -1.
    9900012    2    1    2    0    0  0.26451641270E+02  0.30579868774E+02  0.15773558401E+02  0.47787275988E+02  0.20000022538E+02 0.  0.
         12    1    1    2    0    0 -0.26451641270E+02 -0.30579868774E+02 -0.15773558401E+02  0.43400724012E+02  0.00000000000E+00 0. -1.
         11    1    3    3    0    0 -0.28150692812E+01  0.23654996091E+01  0.12200956402E+01  0.38741240418E+01  0.51100000000E-03 0. -1.
        -11    1    3    3    0    0  0.17119157597E+02  0.13692171085E+02  0.11436972636E+02  0.24725400891E+02  0.51100000000E-03 0.  1.
        -12    1    3    3    0    0  0.12147552954E+02  0.14522198080E+02  0.31164901245E+01  0.19187751055E+02  0.00000000000E+00 0.  1.
</event>
<event>
 7    1  0.1418970E-010  0.4778727E+02  0.7816164E-02  0.1312668E+00
        -11   -1    0    0    0    0  0.00000000000E+00  0.00000000000E+00  0.45593999997E+02  0.45594000000E+02  0.51100000000E-03 0. -1.
         11   -1    0    0    0    0 -0.00000000000E+00 -0.00000000000E+00 -0.45593999997E+02  0.45594000000E+02  0.51100000000E-03 0.  1.
    9900012    2    1    2    0    0  0.59352005270E+01  0.41662180211E+02 -0.10614106952E+02  0.47787272684E+02  0.20000007473E+02 0.  0.
         12    1    1    2    0    0 -0.59352005270E+01 -0.41662180211E+02  0.10614106952E+02  0.43400727316E+02  0.00000000000E+00 0. -1.
         11    1    3    3    0    0 -0.30548024388E+01  0.39053350161E-01  0.15267506654E+01  0.34153053977E+01  0.51100000000E-03 0. -1.
        -11    1    3    3    0    0  0.38363847473E+01  0.15917823813E+02 -0.32856609428E+01  0.16700015897E+02  0.51100000000E-03 0.  1.
        -12    1    3    3    0    0  0.51536182185E+01  0.25705303048E+02 -0.88551966746E+01  0.27671951389E+02  0.00000000000E+00 0.  1.
</event>
<event>
 7    1  0.1418970E-010  0.4778728E+02  0.7816164E-02  0.1312668E+00
        -11   -1    0    0    0    0  0.00000000000E+00  0.00000000000E+00  0.45593999997E+02  0.45594000000E+02  0.51100000000E-03 0.  1.
         11   -1    0    0    0    0 -0.00000000000E+00 -0.00000000000E+00 -0.45593999997E+02  0.45594000000E+02  0.51100000000E-03 0. -1.
    9900012    2    1    2    0    0  0.35465279116E+02  0.20646433005E+02  0.14126627098E+02  0.47787276368E+02  0.20000024274E+02 0.  0.
         12    1    1    2    0    0 -0.35465279116E+02 -0.20646433005E+02 -0.14126627098E+02  0.43400723632E+02  0.00000000000E+00 0. -1.
         11    1    3    3    0    0  0.43793074942E+01  0.24680278431E+01 -0.21336305710E+01  0.54609408748E+01  0.51100000000E-03 0. -1.
        -11    1    3    3    0    0  0.16372110050E+02  0.17146837785E+02  0.13620906520E+02  0.27342076150E+02  0.51100000000E-03 0.  1.
        -12    1    3    3    0    0  0.14713861571E+02  0.10315673774E+01  0.26393511487E+01  0.14984259344E+02  0.00000000000E+00 0.  1.
</event>
<event>
 7    1  0.1418970E-010  0.4778727E+02  0.7816164E-02  0.1312668E+00
        -11   -1    0    0    0    0  0.00000000000E+00  0.00000000000E+00  0.45593999997E+02  0.45594000000E+02  0.51100000000E-03 0. -1.
         11   -1    0    0    0    0 -0.00000000000E+00 -0.00000000000E+00 -0.45593999997E+02  0.45594000000E+02  0.51100000000E-03 0.  1.
    9900012    2    1    2    0    0 -0.26806285530E+02 -0.96309499113E+01 -0.32745859697E+02  0.47787268815E+02  0.19999989835E+02 0.  0.
         12    1    1    2    0    0  0.26806285530E+02  0.96309499113E+01  0.32745859697E+02  0.43400731185E+02  0.00000000000E+00 0. -1.
         11    1    3    3    0    0  0.51968803338E+00 -0.37697227668E+01 -0.67580599521E+01  0.77557888037E+01  0.51100000000E-03 0. -1.
        -11    1    3    3    0    0 -0.16123783315E+02 -0.92002086151E+01 -0.13699731706E+02  0.23071689926E+02  0.51100000000E-03 0.  1.
         12    1    3    3    0    0 -0.11202190249E+02  0.33389814705E+01 -0.12288068038E+02  0.16959790085E+02  0.00000000000E+00 0. -1.
</event>
<event>
 7    1  0.1418970E-010  0.4778728E+02  0.7816164E-02  0.1312668E+00
        -11   -1    0    0    0    0  0.00000000000E+00  0.00000000000E+00  0.45593999997E+02  0.45594000000E+02  0.51100000000E-03 0. -1.
         11   -1    0    0    0    0 -0.00000000000E+00 -0.00000000000E+00 -0.45593999997E+02  0.45594000000E+02  0.51100000000E-03 0.  1.
    9900012    2    1    2    0    0 -0.14436699928E+02  0.37237910019E+02 -0.16986535920E+02  0.47787278232E+02  0.20000032771E+02 0.  0.
         12    1    1    2    0    0  0.14436699928E+02 -0.37237910019E+02  0.16986535920E+02  0.43400721768E+02  0.00000000000E+00 0. -1.
         11    1    3    3    0    0 -0.99623125321E+01  0.17825062304E+02 -0.25718177839E+01  0.20581417932E+02  0.51100000000E-03 0. -1.
        -11    1    3    3    0    0 -0.77484828985E+01  0.15793265631E+02 -0.13648508663E+02  0.22265399513E+02  0.51100000000E-03 0.  1.
        -12    1    3    3    0    0  0.32740955022E+01  0.36195820850E+01 -0.76620947331E+00  0.49404607867E+01  0.00000000000E+00 0.  1.
</event>
<event>
 7    1  0.1418970E-010  0.4778727E+02  0.7816164E-02  0.1312668E+00
        -11   -1    0    0    0    0  0.00000000000E+00  0.00000000000E+00  0.45593999997E+02  0.45594000000E+02  0.51100000000E-03 0.  1.
         11   -1    0    0    0    0 -0.00000000000E+00 -0.00000000000E+00 -0.45593999997E+02  0.45594000000E+02  0.51100000000E-03 0. -1.
    9900012    2    1    2    0    0 -0.21076916601E+02 -0.22796742568E+02  0.30326481108E+02  0.47787270265E+02  0.19999996444E+02 0.  0.
         12    1    1    2    0    0  0.21076916601E+02  0.22796742568E+02 -0.30326481108E+02  0.43400729735E+02  0.00000000000E+00 0. -1.
         11    1    3    3    0    0 -0.27030514837E+01 -0.91402329949E+01  0.41441455395E+01  0.10393473387E+02  0.51100000000E-03 0. -1.
        -11    1    3    3    0    0 -0.99603659758E+01 -0.93167544528E+00  0.47174024314E+01  0.11060325288E+02  0.51100000000E-03 0.  1.
        -12    1    3    3    0    0 -0.84134991418E+01 -0.12724834128E+02  0.21464933137E+02  0.26333471590E+02  0.00000000000E+00 0.  1.
</event>
<event>
 7    1  0.1418970E-010  0.4778727E+02  0.7816164E-02  0.1312668E+00
        -11   -1    0    0    0    0  0.00000000000E+00  0.00000000000E+00  0.45593999997E+02  0.45594000000E+02  0.51100000000E-03 0.  1.
         11   -1    0    0    0    0 -0.00000000000E+00 -0.00000000000E+00 -0.45593999997E+02  0.45594000000E+02  0.51100000000E-03 0. -1.
    9900012    2    1    2    0    0  0.17977957459E+02 -0.26427707350E+02  0.29359714709E+02  0.47787268233E+02  0.19999987180E+02 0.  0.
         12    1    1    2    0    0 -0.17977957459E+02  0.26427707350E+02 -0.29359714709E+02  0.43400731767E+02  0.00000000000E+00 0. -1.
         11    1    3    3    0    0  0.12216135064E+01 -0.42693399711E+01  0.47216293824E+00  0.44657072731E+01  0.51100000000E-03 0. -1.
        -11    1    3    3    0    0  0.11407600876E+02 -0.87700723473E+01  0.24212262690E+02  0.28165247941E+02  0.51100000000E-03 0.  1.
        -12    1    3    3    0    0  0.53487430760E+01 -0.13388295032E+02  0.46752890804E+01  0.15156313019E+02  0.00000000000E+00 0.  1.
</event>
<event>
 7    1  0.1418970E-010  0.4778727E+02  0.7816164E-02  0.1312668E+00
        -11   -1    0    0    0    0  0.00000000000E+00  0.00000000000E+00  0.45593999997E+02  0.45594000000E+02  0.51100000000E-03 0.  1.
         11   -1    0    0    0    0 -0.00000000000E+00 -0.00000000000E+00 -0.45593999997E+02  0.45594000000E+02  0.51100000000E-03 0. -1.
    9900012    2    1    2    0    0 -0.62672006543E+01 -0.15141075607E+02  0.40188222010E+02  0.47787272323E+02  0.20000005829E+02 0.  0.
         12    1    1    2    0    0  0.62672006543E+01  0.15141075607E+02 -0.40188222010E+02  0.43400727677E+02  0.00000000000E+00 0. -1.
         11    1    3    3    0    0  0.23344417773E+01 -0.18628545750E+01  0.10383927125E+02  0.10804896500E+02  0.51100000000E-03 0. -1.
        -11    1    3    3    0    0 -0.10387252707E+02 -0.11709375234E+02  0.30685706201E+02  0.34447308349E+02  0.51100000000E-03 0.  1.
        -12    1    3    3    0    0  0.17856102751E+01 -0.15688457978E+01 -0.88141131557E+00  0.25350674743E+01  0.00000000000E+00 0.  1.
</event>
<event>
 7    1  0.1418970E-010  0.4778727E+02  0.7816164E-02  0.1312668E+00
        -11   -1    0    0    0    0  0.00000000000E+00  0.00000000000E+00  0.45593999997E+02  0.45594000000E+02  0.51100000000E-03 0.  1.
         11   -1    0    0    0    0 -0.00000000000E+00 -0.00000000000E+00 -0.45593999997E+02  0.45594000000E+02  0.51100000000E-03 0. -1.
    9900012    2    1    2    0    0 -0.39692616228E+02  0.39480869359E+01  0.17103577946E+02  0.47787267840E+02  0.19999985388E+02 0.  0.
         12    1    1    2    0    0  0.39692616228E+02 -0.39480869359E+01 -0.17103577946E+02  0.43400732160E+02  0.00000000000E+00 0. -1.
         11    1    3    3    0    0 -0.11517683087E+02 -0.38862210474E+01  0.57402103555E+00  0.12169192173E+02  0.51100000000E-03 0. -1.
        -11    1    3    3    0    0 -0.69666274511E+01  0.73550034131E+01  0.34784896356E+01  0.10711202717E+02  0.51100000000E-03 0.  1.
        -12    1    3    3    0    0 -0.21208305690E+02  0.47930457010E+00  0.13051067275E+02  0.24906872950E+02  0.00000000000E+00 0.  1.
</event>
<event>
 7    1  0.1418970E-010  0.4778728E+02  0.7816164E-02  0.1312668E+00
        -11   -1    0    0    0    0  0.00000000000E+00  0.00000000000E+00  0.45593999997E+02  0.45594000000E+02  0.51100000000E-03 0. -1.
         11   -1    0    0    0    0 -0.00000000000E+00 -0.00000000000E+00 -0.45593999997E+02  0.45594000000E+02  0.51100000000E-03 0.  1.
    9900012    2    1    2    0    0 -0.37820491499E+01 -0.42882208855E+02 -0.55167744532E+01  0.47787279586E+02  0.20000038945E+02 0.  0.
         12    1    1    2    0    0  0.37820491499E+01  0.42882208855E+02  0.55167744532E+01  0.43400720414E+02  0.00000000000E+00 0. -1.
         11    1    3    3    0    0 -0.14264741401E+01 -0.15393584697E+01  0.28939124187E+01  0.35747982207E+01  0.51100000000E-03 0. -1.
        -11    1    3    3    0    0  0.41777342196E+01 -0.13072819176E+02 -0.63564695153E+01  0.15124707249E+02  0.51100000000E-03 0.  1.
        -12    1    3    3    0    0 -0.65333092294E+01 -0.28270031209E+02 -0.20542173566E+01  0.29087774116E+02  0.00000000000E+00 0.  1.
</event>
<event>
 7    1  0.1418970E-010  0.4778727E+02  0.7816164E-02  0.1312668E+00
        -11   -1    0    0    0    0  0.00000000000E+00  0.00000000000E+00  0.45593999997E+02  0.45594000000E+02  0.51100000000E-03 0.  1.
         11   -1    0    0    0    0 -0.00000000000E+00 -0.00000000000E+00 -0.45593999997E+02  0.45594000000E+02  0.51100000000E-03 0. -1.
    9900012    2    1    2    0    0 -0.19630740572E+02 -0.21058989519E+02  0.32477320065E+02  0.47787270357E+02  0.19999996864E+02 0.  0.
         12    1    1    2    0    0  0.19630740572E+02  0.21058989519E+02 -0.32477320065E+02  0.43400729643E+02  0.00000000000E+00 0. -1.
         11    1    3    3    0    0  0.14055978203E+01  0.30587635901E+00  0.43797360175E+01  0.46099190257E+01  0.51100000000E-03 0. -1.
        -11    1    3    3    0    0 -0.99679346618E+01 -0.52739157999E+01  0.17871105436E+02  0.21131737247E+02  0.51100000000E-03 0.  1.
        -12    1    3    3    0    0 -0.11068403730E+02 -0.16090950078E+02  0.10226478611E+02  0.22045614084E+02  0.00000000000E+00 0.  1.
</event>
<event>
 7    1  0.1418970E-010  0.4778728E+02  0.7816164E-02  0.1312668E+00
        -11   -1    0    0    0    0  0.00000000000E+00  0.00000000000E+00  0.45593999997E+02  0.45594000000E+02  0.51100000000E-03 0. -1.
         11   -1    0    0    0    0 -0.00000000000E+00 -0.00000000000E+00 -0.45593999997E+02  0.45594000000E+02  0.51100000000E-03 0.  1.
    9900012    2    1    2    0    0  0.38642419575E+02 -0.12409868356E+02 -0.15374685251E+02  0.47787281459E+02  0.20000047486E+02 0.  0.
         12    1    1    2    0    0 -0.38642419575E+02  0.12409868356E+02  0.15374685251E+02  0.43400718541E+02  0.00000000000E+00 0. -1.
         11    1    3    3    0    0  0.47548712296E+00 -0.39701212846E+01 -0.28821168087E+01  0.49289500483E+01  0.51100000000E-03 0. -1.
        -11    1    3    3    0    0  0.18342086883E+02 -0.39720664547E+01  0.43614660113E+00  0.18772311718E+02  0.51100000000E-03 0.  1.
         12    1    3    3    0    0  0.19824845570E+02 -0.44676806166E+01 -0.12928715044E+02  0.24086019693E+02  0.00000000000E+00 0. -1.
</event>
<event>
 7    1  0.1418970E-010  0.4778729E+02  0.7816164E-02  0.1312668E+00
        -11   -1    0    0    0    0  0.00000000000E+00  0.00000000000E+00  0.45593999997E+02  0.45594000000E+02  0.51100000000E-03 0.  1.
         11   -1    0    0    0    0 -0.00000000000E+00 -0.00000000000E+00 -0.45593999997E+02  0.45594000000E+02  0.51100000000E-03 0. -1.
    9900012    2    1    2    0    0 -0.51273143503E+01 -0.36209641522E+02  0.23370805934E+02  0.47787285010E+02  0.20000063676E+02 0.  0.
         12    1    1    2    0    0  0.51273143503E+01  0.36209641522E+02 -0.23370805934E+02  0.43400714990E+02  0.00000000000E+00 0. -1.
         11    1    3    3    0    0  0.47486409933E+00 -0.57368936841E+01  0.17468958495E+01  0.60157368980E+01  0.51100000000E-03 0.  1.
        -11    1    3    3    0    0 -0.28139028760E+01 -0.30307694761E+02  0.23459308145E+02  0.38429331897E+02  0.51100000000E-03 0. -1.
         12    1    3    3    0    0 -0.27882755736E+01 -0.16505307692E+00 -0.18353980604E+01  0.33422162157E+01  0.00000000000E+00 0. -1.
</event>
<event>
 7    1  0.1554470E-010  0.4778727E+02  0.7816164E-02  0.1312668E+00
        -11   -1    0    0    0    0  0.00000000000E+00  0.00000000000E+00  0.45593999997E+02  0.45594000000E+02  0.51100000000E-03 0. -1.
         11   -1    0    0    0    0 -0.00000000000E+00 -0.00000000000E+00 -0.45593999997E+02  0.45594000000E+02  0.51100000000E-03 0.  1.
    9900012    2    1    2    0    0  0.87904985969E+01  0.36001549973E+02 -0.22588465124E+02  0.47787271634E+02  0.20000002690E+02 0.  0.
         12    1    1    2    0    0 -0.87904985969E+01 -0.36001549973E+02  0.22588465124E+02  0.43400728366E+02  0.00000000000E+00 0. -1.
         11    1    3    3    0    0  0.76432844770E+01  0.21742617867E+02 -0.99628504541E+01  0.25108158410E+02  0.51100000000E-03 0. -1.
        -11    1    3    3    0    0 -0.21133605422E+01  0.14651337554E+02 -0.12529313667E+02  0.19393599102E+02  0.51100000000E-03 0.  1.
         12    1    3    3    0    0  0.32605746622E+01 -0.39240544835E+00 -0.96301002183E-01  0.32855141221E+01  0.00000000000E+00 0. -1.
</event>
<event>
 7    1  0.1418970E-010  0.4778727E+02  0.7816164E-02  0.1312668E+00
        -11   -1    0    0    0    0  0.00000000000E+00  0.00000000000E+00  0.45593999997E+02  0.45594000000E+02  0.51100000000E-03 0. -1.
         11   -1    0    0    0    0 -0.00000000000E+00 -0.00000000000E+00 -0.45593999997E+02  0.45594000000E+02  0.51100000000E-03 0.  1.
    9900012    2    1    2    0    0  0.40291232477E+02 -0.87392659611E+01 -0.13559687882E+02  0.47787270519E+02  0.19999997604E+02 0.  0.
         12    1    1    2    0    0 -0.40291232477E+02  0.87392659611E+01  0.13559687882E+02  0.43400729481E+02  0.00000000000E+00 0. -1.
         11    1    3    3    0    0  0.87328561430E+01 -0.28407160451E+01 -0.75952703337E+01  0.11917238597E+02  0.51100000000E-03 0. -1.
        -11    1    3    3    0    0  0.16663544327E+02  0.37785952651E+01  0.14232752418E+00  0.17087180841E+02  0.51100000000E-03 0.  1.
        -12    1    3    3    0    0  0.14894832007E+02 -0.96771451812E+01 -0.61067450720E+01  0.18782851081E+02  0.00000000000E+00 0.  1.
</event>
<event>
 7    1  0.1418970E-010  0.4778728E+02  0.7816164E-02  0.1312668E+00
        -11   -1    0    0    0    0  0.00000000000E+00  0.00000000000E+00  0.45593999997E+02  0.45594000000E+02  0.51100000000E-03 0. -1.
         11   -1    0    0    0    0 -0.00000000000E+00 -0.00000000000E+00 -0.45593999997E+02  0.45594000000E+02  0.51100000000E-03 0.  1.
    9900012    2    1    2    0    0  0.15405280406E+02  0.37720694323E+02 -0.14948218862E+02  0.47787277751E+02  0.20000030576E+02 0.  0.
         12    1    1    2    0    0 -0.15405280406E+02 -0.37720694323E+02  0.14948218862E+02  0.43400722249E+02  0.00000000000E+00 0. -1.
         11    1    3    3    0    0  0.20711241782E+01  0.54928544866E+01  0.10371914889E+01  0.59612727013E+01  0.51100000000E-03 0. -1.
        -11    1    3    3    0    0  0.14258191755E+02  0.26486736508E+02 -0.18688641212E+02  0.35413395115E+02  0.51100000000E-03 0.  1.
        -12    1    3    3    0    0 -0.92403552678E+00  0.57411033284E+01  0.27032308609E+01  0.64126099343E+01  0.00000000000E+00 0.  1.
</event>
<event>
 7    1  0.1418970E-010  0.4778727E+02  0.7816164E-02  0.1312668E+00
        -11   -1    0    0    0    0  0.00000000000E+00  0.00000000000E+00  0.45593999997E+02  0.45594000000E+02  0.51100000000E-03 0. -1.
         11   -1    0    0    0    0 -0.00000000000E+00 -0.00000000000E+00 -0.45593999997E+02  0.45594000000E+02  0.51100000000E-03 0.  1.
    9900012    2    1    2    0    0 -0.41348217600E+02 -0.11741334740E+02  0.60074258919E+01  0.47787271826E+02  0.20000003565E+02 0.  0.
         12    1    1    2    0    0  0.41348217600E+02  0.11741334740E+02 -0.60074258919E+01  0.43400728174E+02  0.00000000000E+00 0. -1.
         11    1    3    3    0    0 -0.20304808549E+01 -0.16381479685E+01  0.39963884782E+01  0.47725781710E+01  0.51100000000E-03 0. -1.
        -11    1    3    3    0    0 -0.64503866964E+00  0.87748378052E-01  0.29397891796E+01  0.30110023820E+01  0.51100000000E-03 0.  1.
        -12    1    3    3    0    0 -0.38672698075E+02 -0.10190935150E+02 -0.92875176583E+00  0.40003691273E+02  0.00000000000E+00 0.  1.
</event>
<event>
 7    1  0.1418970E-010  0.4778726E+02  0.7816164E-02  0.1312668E+00
        -11   -1    0    0    0    0  0.00000000000E+00  0.00000000000E+00  0.45593999997E+02  0.45594000000E+02  0.51100000000E-03 0.  1.
         11   -1    0    0    0    0 -0.00000000000E+00 -0.00000000000E+00 -0.45593999997E+02  0.45594000000E+02  0.51100000000E-03 0. -1.
    9900012    2    1    2    0    0  0.27890958285E+02  0.26409717702E+02  0.20205084776E+02  0.47787260444E+02  0.19999951670E+02 0.  0.
         12    1    1    2    0    0 -0.27890958285E+02 -0.26409717702E+02 -0.20205084776E+02  0.43400739556E+02  0.00000000000E+00 0. -1.
         11    1    3    3    0    0  0.31780646728E+01  0.17934190653E+01  0.44803358711E+01  0.57783956932E+01  0.51100000000E-03 0. -1.
        -11    1    3    3    0    0  0.24807562637E+02  0.14398425239E+02  0.10617614685E+02  0.30585348702E+02  0.51100000000E-03 0.  1.
        -12    1    3    3    0    0 -0.94669024381E-01  0.10217873397E+02  0.51071342201E+01  0.11423516049E+02  0.00000000000E+00 0.  1.
</event>
<event>
 7    1  0.1418970E-010  0.4778727E+02  0.7816164E-02  0.1312668E+00
        -11   -1    0    0    0    0  0.00000000000E+00  0.00000000000E+00  0.45593999997E+02  0.45594000000E+02  0.51100000000E-03 0. -1.
         11   -1    0    0    0    0 -0.00000000000E+00 -0.00000000000E+00 -0.45593999997E+02  0.45594000000E+02  0.51100000000E-03 0.  1.
    9900012    2    1    2    0    0  0.15452793506E+02 -0.58776987776E+01 -0.40128388043E+02  0.47787266169E+02  0.19999977773E+02 0.  0.
         12    1    1    2    0    0 -0.15452793506E+02  0.58776987776E+01  0.40128388043E+02  0.43400733831E+02  0.00000000000E+00 0. -1.
         11    1    3    3    0    0  0.96312245489E+01  0.23342201447E+01 -0.25088869734E+02  0.26975182201E+02  0.51100000000E-03 0. -1.
        -11    1    3    3    0    0 -0.26340771785E+01 -0.33347234897E+01 -0.68940609849E+01  0.80985690378E+01  0.51100000000E-03 0.  1.
         12    1    3    3    0    0  0.84556461361E+01 -0.48771954325E+01 -0.81454573250E+01  0.12713514931E+02  0.00000000000E+00 0. -1.
</event>
<event>
 7    1  0.1418970E-010  0.4778727E+02  0.7816164E-02  0.1312668E+00
        -11   -1    0    0    0    0  0.00000000000E+00  0.00000000000E+00  0.45593999997E+02  0.45594000000E+02  0.51100000000E-03 0. -1.
         11   -1    0    0    0    0 -0.00000000000E+00 -0.00000000000E+00 -0.45593999997E+02  0.45594000000E+02  0.51100000000E-03 0.  1.
    9900012    2    1    2    0    0 -0.20036793804E+02 -0.12630196174E+02 -0.36367956894E+02  0.47787271320E+02  0.20000001255E+02 0.  0.
         12    1    1    2    0    0  0.20036793804E+02  0.12630196174E+02  0.36367956894E+02  0.43400728680E+02  0.00000000000E+00 0. -1.
         11    1    3    3    0    0 -0.13659743153E+01 -0.79231859621E+01 -0.60028230044E+01  0.10033775257E+02  0.51100000000E-03 0. -1.
        -11    1    3    3    0    0 -0.14131506113E+01  0.23030182298E+01 -0.90570791024E+01  0.94515379566E+01  0.51100000000E-03 0.  1.
        -12    1    3    3    0    0 -0.17257668878E+02 -0.70100284413E+01 -0.21308054787E+02  0.28301958106E+02  0.00000000000E+00 0.  1.
</event>
<event>
 7    1  0.1418970E-010  0.4778727E+02  0.7816164E-02  0.1312668E+00
        -11   -1    0    0    0    0  0.00000000000E+00  0.00000000000E+00  0.45593999997E+02  0.45594000000E+02  0.51100000000E-03 0.  1.
         11   -1    0    0    0    0 -0.00000000000E+00 -0.00000000000E+00 -0.45593999997E+02  0.45594000000E+02  0.51100000000E-03 0. -1.
    9900012    2    1    2    0    0  0.73103155216E+01 -0.31930097518E+02  0.28471941311E+02  0.47787270945E+02  0.19999999545E+02 0.  0.
         12    1    1    2    0    0 -0.73103155216E+01  0.31930097518E+02 -0.28471941311E+02  0.43400729055E+02  0.00000000000E+00 0. -1.
         11    1    3    3    0    0  0.10890655246E+02 -0.23098249124E+02  0.22745383231E+02  0.34197776870E+02  0.51100000000E-03 0. -1.
        -11    1    3    3    0    0 -0.21650276142E+01 -0.99317013438E+01  0.59577445887E+01  0.11782222074E+02  0.51100000000E-03 0.  1.
         12    1    3    3    0    0 -0.14153121104E+01  0.10998529503E+01 -0.23118650860E+00  0.18072720005E+01  0.00000000000E+00 0. -1.
</event>
<event>
 7    1  0.1418970E-010  0.4778729E+02  0.7816164E-02  0.1312668E+00
        -11   -1    0    0    0    0  0.00000000000E+00  0.00000000000E+00  0.45593999997E+02  0.45594000000E+02  0.51100000000E-03 0. -1.
         11   -1    0    0    0    0 -0.00000000000E+00 -0.00000000000E+00 -0.45593999997E+02  0.45594000000E+02  0.51100000000E-03 0.  1.
    9900012    2    1    2    0    0 -0.32888639448E+02 -0.16362409433E+02 -0.23113421877E+02  0.47787293576E+02  0.20000102732E+02 0.  0.
         12    1    1    2    0    0  0.32888639448E+02  0.16362409433E+02  0.23113421877E+02  0.43400706424E+02  0.00000000000E+00 0. -1.
         11    1    3    3    0    0 -0.18432104471E+02 -0.12966366826E+01 -0.45370946661E+01  0.19026533320E+02  0.51100000000E-03 0. -1.
        -11    1    3    3    0    0 -0.30856854111E+00 -0.38151779405E+01 -0.40366106755E+01  0.55628251158E+01  0.51100000000E-03 0.  1.
         12    1    3    3    0    0 -0.14147966436E+02 -0.11250594810E+02 -0.14539716535E+02  0.23197935141E+02  0.00000000000E+00 0. -1.
</event>
<event>
 7    1  0.1418970E-010  0.4778727E+02  0.7816164E-02  0.1312668E+00
        -11   -1    0    0    0    0  0.00000000000E+00  0.00000000000E+00  0.45593999997E+02  0.45594000000E+02  0.51100000000E-03 0.  1.
         11   -1    0    0    0    0 -0.00000000000E+00 -0.00000000000E+00 -0.45593999997E+02  0.45594000000E+02  0.51100000000E-03 0. -1.
    9900012    2    1    2    0    0  0.18687820908E+02 -0.39132785258E+02  0.17359146344E+01  0.47787274983E+02  0.20000017959E+02 0.  0.
         12    1    1    2    0    0 -0.18687820908E+02  0.39132785258E+02 -0.17359146344E+01  0.43400725017E+02  0.00000000000E+00 0. -1.
         11    1    3    3    0    0  0.11007158595E+02 -0.21460264832E+02  0.33025066132E+01  0.24343521873E+02  0.51100000000E-03 0. -1.
        -11    1    3    3    0    0  0.11227262249E+02 -0.10811563022E+02 -0.12569650167E+00  0.15587081589E+02  0.51100000000E-03 0.  1.
         12    1    3    3    0    0 -0.35465999365E+01 -0.68609574043E+01 -0.14408954770E+01  0.78566715210E+01  0.00000000000E+00 0. -1.
</event>
<event>
 7    1  0.1418970E-010  0.4778726E+02  0.7816164E-02  0.1312668E+00
        -11   -1    0    0    0    0  0.00000000000E+00  0.00000000000E+00  0.45593999997E+02  0.45594000000E+02  0.51100000000E-03 0.  1.
         11   -1    0    0    0    0 -0.00000000000E+00 -0.00000000000E+00 -0.45593999997E+02  0.45594000000E+02  0.51100000000E-03 0. -1.
    9900012    2    1    2    0    0 -0.54520281764E+01 -0.54614620218E+01  0.42709154476E+02  0.47787262049E+02  0.19999958984E+02 0.  0.
         12    1    1    2    0    0  0.54520281764E+01  0.54614620218E+01 -0.42709154476E+02  0.43400737951E+02  0.00000000000E+00 0. -1.
         11    1    3    3    0    0  0.11226316471E+01 -0.86078833160E+00  0.55506098596E+01  0.57280475243E+01  0.51100000000E-03 0.  1.
        -11    1    3    3    0    0  0.23936869748E+01 -0.36893775874E+01  0.63961264129E+00  0.44441364637E+01  0.51100000000E-03 0. -1.
         12    1    3    3    0    0 -0.89683467982E+01 -0.91129610283E+00  0.36518931975E+02  0.37615078061E+02  0.00000000000E+00 0. -1.
</event>
<event>
 7    1  0.1418970E-010  0.4778727E+02  0.7816164E-02  0.1312668E+00
        -11   -1    0    0    0    0  0.00000000000E+00  0.00000000000E+00  0.45593999997E+02  0.45594000000E+02  0.51100000000E-03 0.  1.
         11   -1    0    0    0    0 -0.00000000000E+00 -0.00000000000E+00 -0.45593999997E+02  0.45594000000E+02  0.51100000000E-03 0. -1.
    9900012    2    1    2    0    0 -0.80570961941E+01  0.17306029288E+02  0.38977014421E+02  0.47787273025E+02  0.20000009030E+02 0.  0.
         12    1    1    2    0    0  0.80570961941E+01 -0.17306029288E+02 -0.38977014421E+02  0.43400726975E+02  0.00000000000E+00 0. -1.
         11    1    3    3    0    0 -0.89650216133E+00  0.38675625483E+00 -0.74473492281E+00  0.12279767475E+01  0.51100000000E-03 0. -1.
        -11    1    3    3    0    0 -0.64506159223E+01 -0.80674588907E+00  0.93945024531E+01  0.11424445777E+02  0.51100000000E-03 0.  1.
        -12    1    3    3    0    0 -0.70997811048E+00  0.17726018923E+02  0.30327246890E+02  0.35134850501E+02  0.00000000000E+00 0.  1.
</event>
<event>
 7    1  0.1418970E-010  0.4778727E+02  0.7816164E-02  0.1312668E+00
        -11   -1    0    0    0    0  0.00000000000E+00  0.00000000000E+00  0.45593999997E+02  0.45594000000E+02  0.51100000000E-03 0. -1.
         11   -1    0    0    0    0 -0.00000000000E+00 -0.00000000000E+00 -0.45593999997E+02  0.45594000000E+02  0.51100000000E-03 0.  1.
    9900012    2    1    2    0    0  0.38226515654E+02  0.11505016728E+02 -0.17029133699E+02  0.47787270703E+02  0.19999998445E+02 0.  0.
         12    1    1    2    0    0 -0.38226515654E+02 -0.11505016728E+02  0.17029133699E+02  0.43400729297E+02  0.00000000000E+00 0. -1.
         11    1    3    3    0    0  0.22130769935E+02  0.11047110180E+02 -0.63175851394E+01  0.25528836705E+02  0.51100000000E-03 0. -1.
        -11    1    3    3    0    0  0.17757931522E+02 -0.19976407147E-01 -0.10065282258E+02  0.20412114986E+02  0.51100000000E-03 0.  1.
         12    1    3    3    0    0 -0.16621858035E+01  0.47788295588E+00 -0.64626630171E+00  0.18463190130E+01  0.00000000000E+00 0. -1.
</event>
<event>
 7    1  0.1418970E-010  0.4778727E+02  0.7816164E-02  0.1312668E+00
        -11   -1    0    0    0    0  0.00000000000E+00  0.00000000000E+00  0.45593999997E+02  0.45594000000E+02  0.51100000000E-03 0.  1.
         11   -1    0    0    0    0 -0.00000000000E+00 -0.00000000000E+00 -0.45593999997E+02  0.45594000000E+02  0.51100000000E-03 0. -1.
    9900012    2    1    2    0    0 -0.42179578069E+01 -0.32021078331E+02  0.28991080222E+02  0.47787270076E+02  0.19999995583E+02 0.  0.
         12    1    1    2    0    0  0.42179578069E+01  0.32021078331E+02 -0.28991080222E+02  0.43400729924E+02  0.00000000000E+00 0. -1.
         11    1    3    3    0    0 -0.62352978043E+00 -0.31831123719E+00  0.11148795693E+01  0.13164604613E+01  0.51100000000E-03 0. -1.
        -11    1    3    3    0    0  0.47752574295E+01 -0.27314138766E+02  0.21021955431E+02  0.34796377260E+02  0.51100000000E-03 0.  1.
        -12    1    3    3    0    0 -0.83696854560E+01 -0.43886283280E+01  0.68542452217E+01  0.11674432354E+02  0.00000000000E+00 0.  1.
</event>
<event>
 7    1  0.1418970E-010  0.4778727E+02  0.7816164E-02  0.1312668E+00
        -11   -1    0    0    0    0  0.00000000000E+00  0.00000000000E+00  0.45593999997E+02  0.45594000000E+02  0.51100000000E-03 0.  1.
         11   -1    0    0    0    0 -0.00000000000E+00 -0.00000000000E+00 -0.45593999997E+02  0.45594000000E+02  0.51100000000E-03 0. -1.
    9900012    2    1    2    0    0  0.17529696243E+02 -0.28146268034E+02  0.28002153378E+02  0.47787271338E+02  0.20000001337E+02 0.  0.
         12    1    1    2    0    0 -0.17529696243E+02  0.28146268034E+02 -0.28002153378E+02  0.43400728662E+02  0.00000000000E+00 0. -1.
         11    1    3    3    0    0  0.46192302264E+01 -0.16161282456E+01  0.13210414359E+02  0.14087732471E+02  0.51100000000E-03 0. -1.
        -11    1    3    3    0    0  0.12159199063E+01  0.71405980082E-01  0.50171819927E+00  0.13173008180E+01  0.51100000000E-03 0.  1.
        -12    1    3    3    0    0  0.11694546110E+02 -0.26601545768E+02  0.14290020820E+02  0.32382238048E+02  0.00000000000E+00 0.  1.
</event>
<event>
 7    1  0.1520094E-010  0.4778727E+02  0.7816164E-02  0.1312668E+00
        -11   -1    0    0    0    0  0.00000000000E+00  0.00000000000E+00  0.45593999997E+02  0.45594000000E+02  0.51100000000E-03 0.  1.
         11   -1    0    0    0    0 -0.00000000000E+00 -0.00000000000E+00 -0.45593999997E+02  0.45594000000E+02  0.51100000000E-03 0. -1.
    9900012    2    1    2    0    0  0.40778434792E+00 -0.36913528345E+02  0.22822107449E+02  0.47787269000E+02  0.19999990679E+02 0.  0.
         12    1    1    2    0    0 -0.40778434792E+00  0.36913528345E+02 -0.22822107449E+02  0.43400731000E+02  0.00000000000E+00 0. -1.
         11    1    3    3    0    0  0.17727998863E+01 -0.16431045406E+01 -0.19104219082E+01  0.30809615539E+01  0.51100000000E-03 0. -1.
        -11    1    3    3    0    0 -0.38042077172E+01 -0.92318732167E+01  0.12024410856E+02  0.15629649265E+02  0.51100000000E-03 0.  1.
        -12    1    3    3    0    0  0.24391921789E+01 -0.26038550587E+02  0.12708118501E+02  0.29076658181E+02  0.00000000000E+00 0.  1.
</event>
<event>
 7    1  0.1418970E-010  0.4778727E+02  0.7816164E-02  0.1312668E+00
        -11   -1    0    0    0    0  0.00000000000E+00  0.00000000000E+00  0.45593999997E+02  0.45594000000E+02  0.51100000000E-03 0.  1.
         11   -1    0    0    0    0 -0.00000000000E+00 -0.00000000000E+00 -0.45593999997E+02  0.45594000000E+02  0.51100000000E-03 0. -1.
    9900012    2    1    2    0    0 -0.17177763826E+01 -0.34688714060E+02  0.26026246236E+02  0.47787272679E+02  0.20000007454E+02 0.  0.
         12    1    1    2    0    0  0.17177763826E+01  0.34688714060E+02 -0.26026246236E+02  0.43400727321E+02  0.00000000000E+00 0. -1.
         11    1    3    3    0    0 -0.18257403559E+01  0.32418881932E+00  0.20815512540E+01  0.27877019428E+01  0.51100000000E-03 0. -1.
        -11    1    3    3    0    0  0.16902030077E+01 -0.22015365649E+02  0.61758004996E+01  0.22927573420E+02  0.51100000000E-03 0.  1.
        -12    1    3    3    0    0 -0.15822390344E+01 -0.12997537231E+02  0.17768894482E+02  0.22071997316E+02  0.00000000000E+00 0.  1.
</event>
<event>
 7    1  0.1418970E-010  0.4778726E+02  0.7816164E-02  0.1312668E+00
        -11   -1    0    0    0    0  0.00000000000E+00  0.00000000000E+00  0.45593999997E+02  0.45594000000E+02  0.51100000000E-03 0.  1.
         11   -1    0    0    0    0 -0.00000000000E+00 -0.00000000000E+00 -0.45593999997E+02  0.45594000000E+02  0.51100000000E-03 0. -1.
    9900012    2    1    2    0    0  0.77663426278E+01 -0.37471327886E+02  0.20474569658E+02  0.47787256987E+02  0.19999935908E+02 0.  0.
         12    1    1    2    0    0 -0.77663426278E+01  0.37471327886E+02 -0.20474569658E+02  0.43400743013E+02  0.00000000000E+00 0. -1.
         11    1    3    3    0    0  0.79229144772E+01 -0.93023878228E+01  0.48878813652E+01  0.13160485459E+02  0.51100000000E-03 0.  1.
        -11    1    3    3    0    0 -0.61866086204E+01 -0.12932770632E+02  0.53282536361E+01  0.15294475131E+02  0.51100000000E-03 0. -1.
         12    1    3    3    0    0  0.60300367710E+01 -0.15236169431E+02  0.10258434656E+02  0.19332296398E+02  0.00000000000E+00 0. -1.
</event>
<event>
 7    1  0.1418970E-010  0.4778727E+02  0.7816164E-02  0.1312668E+00
        -11   -1    0    0    0    0  0.00000000000E+00  0.00000000000E+00  0.45593999997E+02  0.45594000000E+02  0.51100000000E-03 0. -1.
         11   -1    0    0    0    0 -0.00000000000E+00 -0.00000000000E+00 -0.45593999997E+02  0.45594000000E+02  0.51100000000E-03 0.  1.
    9900012    2    1    2    0    0 -0.19266291928E+02  0.70246995957E+01 -0.38250316625E+02  0.47787272691E+02  0.20000007508E+02 0.  0.
         12    1    1    2    0    0  0.19266291928E+02 -0.70246995957E+01  0.38250316625E+02  0.43400727309E+02  0.00000000000E+00 0. -1.
         11    1    3    3    0    0 -0.54418974493E+00 -0.35054325097E+01 -0.22096380681E-01  0.35474903904E+01  0.51100000000E-03 0. -1.
        -11    1    3    3    0    0 -0.48517514649E+01  0.56190566919E+01 -0.10655929027E+02  0.12986997885E+02  0.51100000000E-03 0.  1.
        -12    1    3    3    0    0 -0.13870350718E+02  0.49110754134E+01 -0.27572291217E+02  0.31252784416E+02  0.00000000000E+00 0.  1.
</event>
<event>
 7    1  0.1418970E-010  0.4778727E+02  0.7816164E-02  0.1312668E+00
        -11   -1    0    0    0    0  0.00000000000E+00  0.00000000000E+00  0.45593999997E+02  0.45594000000E+02  0.51100000000E-03 0.  1.
         11   -1    0    0    0    0 -0.00000000000E+00 -0.00000000000E+00 -0.45593999997E+02  0.45594000000E+02  0.51100000000E-03 0. -1.
    9900012    2    1    2    0    0 -0.18565065724E+02 -0.16235191683E+02  0.35712465608E+02  0.47787270580E+02  0.19999997885E+02 0.  0.
         12    1    1    2    0    0  0.18565065724E+02  0.16235191683E+02 -0.35712465608E+02  0.43400729420E+02  0.00000000000E+00 0. -1.
         11    1    3    3    0    0  0.15598442172E+01 -0.49179709595E+00  0.71925328561E+01  0.73761444884E+01  0.51100000000E-03 0. -1.
        -11    1    3    3    0    0 -0.13168085633E+02 -0.15484268611E+02  0.26011149104E+02  0.33011224328E+02  0.51100000000E-03 0.  1.
         12    1    3    3    0    0 -0.69568243085E+01 -0.25912597652E+00  0.25087836481E+01  0.73999017644E+01  0.00000000000E+00 0. -1.
</event>
<event>
 7    1  0.1418970E-010  0.4778727E+02  0.7816164E-02  0.1312668E+00
        -11   -1    0    0    0    0  0.00000000000E+00  0.00000000000E+00  0.45593999997E+02  0.45594000000E+02  0.51100000000E-03 0. -1.
         11   -1    0    0    0    0 -0.00000000000E+00 -0.00000000000E+00 -0.45593999997E+02  0.45594000000E+02  0.51100000000E-03 0.  1.
    9900012    2    1    2    0    0 -0.10022671333E+02  0.30543098974E+02 -0.29159704050E+02  0.47787272173E+02  0.20000005148E+02 0.  0.
         12    1    1    2    0    0  0.10022671333E+02 -0.30543098974E+02  0.29159704050E+02  0.43400727827E+02  0.00000000000E+00 0. -1.
         11    1    3    3    0    0 -0.87664549374E+01  0.98810322030E+01 -0.73368604175E+01  0.15110097637E+02  0.51100000000E-03 0. -1.
        -11    1    3    3    0    0 -0.11675820592E+01  0.22244592504E+02 -0.21683065291E+02  0.31086017182E+02  0.51100000000E-03 0.  1.
         12    1    3    3    0    0 -0.88634336875E-01 -0.15825257332E+01 -0.13977834157E+00  0.15911573545E+01  0.00000000000E+00 0. -1.
</event>
<event>
 7    1  0.1418970E-010  0.4778726E+02  0.7816164E-02  0.1312668E+00
        -11   -1    0    0    0    0  0.00000000000E+00  0.00000000000E+00  0.45593999997E+02  0.45594000000E+02  0.51100000000E-03 0.  1.
         11   -1    0    0    0    0 -0.00000000000E+00 -0.00000000000E+00 -0.45593999997E+02  0.45594000000E+02  0.51100000000E-03 0. -1.
    9900012    2    1    2    0    0 -0.54961604261E+01  0.14134912051E+02  0.40664730372E+02  0.47787264818E+02  0.19999971611E+02 0.  0.
         12    1    1    2    0    0  0.54961604261E+01 -0.14134912051E+02 -0.40664730372E+02  0.43400735182E+02  0.00000000000E+00 0. -1.
         11    1    3    3    0    0 -0.97769391219E+00 -0.16893860598E+01  0.19311021803E+01  0.27457360646E+01  0.51100000000E-03 0. -1.
        -11    1    3    3    0    0 -0.57445217785E+01  0.14422238762E+02  0.39920644173E+02  0.42832911795E+02  0.51100000000E-03 0.  1.
        -12    1    3    3    0    0  0.12260552646E+01  0.14020593490E+01 -0.11870159814E+01  0.22086169586E+01  0.00000000000E+00 0.  1.
</event>
<event>
 7    1  0.1418970E-010  0.4778728E+02  0.7816164E-02  0.1312668E+00
        -11   -1    0    0    0    0  0.00000000000E+00  0.00000000000E+00  0.45593999997E+02  0.45594000000E+02  0.51100000000E-03 0.  1.
         11   -1    0    0    0    0 -0.00000000000E+00 -0.00000000000E+00 -0.45593999997E+02  0.45594000000E+02  0.51100000000E-03 0. -1.
    9900012    2    1    2    0    0  0.28848189359E+02  0.32128299561E+02 -0.43791633612E+01  0.47787277267E+02  0.20000028372E+02 0.  0.
         12    1    1    2    0    0 -0.28848189359E+02 -0.32128299561E+02  0.43791633612E+01  0.43400722733E+02  0.00000000000E+00 0. -1.
         11    1    3    3    0    0  0.23864538587E+01 -0.21135510849E+01  0.16882990436E+00  0.31922976061E+01  0.51100000000E-03 0. -1.
        -11    1    3    3    0    0  0.14647787900E+02  0.13350252771E+02 -0.55248482429E+01  0.20574520353E+02  0.51100000000E-03 0.  1.
        -12    1    3    3    0    0  0.11813947600E+02  0.20891597876E+02  0.97685497743E+00  0.24020459308E+02  0.00000000000E+00 0.  1.
</event>
<event>
 7    1  0.1418970E-010  0.4778726E+02  0.7816164E-02  0.1312668E+00
        -11   -1    0    0    0    0  0.00000000000E+00  0.00000000000E+00  0.45593999997E+02  0.45594000000E+02  0.51100000000E-03 0. -1.
         11   -1    0    0    0    0 -0.00000000000E+00 -0.00000000000E+00 -0.45593999997E+02  0.45594000000E+02  0.51100000000E-03 0.  1.
    9900012    2    1    2    0    0  0.42988344994E+02  0.51567218592E+01  0.30057019001E+01  0.47787264642E+02  0.19999970811E+02 0.  0.
         12    1    1    2    0    0 -0.42988344994E+02 -0.51567218592E+01 -0.30057019001E+01  0.43400735358E+02  0.00000000000E+00 0. -1.
         11    1    3    3    0    0  0.49305378361E+01  0.72123947273E+01  0.78108694815E+00  0.87714843748E+01  0.51100000000E-03 0. -1.
        -11    1    3    3    0    0  0.15111493346E+02 -0.14925404746E+01  0.47828246329E+01  0.15920437178E+02  0.51100000000E-03 0.  1.
        -12    1    3    3    0    0  0.22946313812E+02 -0.56313239358E+00 -0.25582096809E+01  0.23095343089E+02  0.00000000000E+00 0.  1.
</event>
<event>
 7    1  0.1418970E-010  0.4778725E+02  0.7816164E-02  0.1312668E+00
        -11   -1    0    0    0    0  0.00000000000E+00  0.00000000000E+00  0.45593999997E+02  0.45594000000E+02  0.51100000000E-03 0. -1.
         11   -1    0    0    0    0 -0.00000000000E+00 -0.00000000000E+00 -0.45593999997E+02  0.45594000000E+02  0.51100000000E-03 0.  1.
    9900012    2    1    2    0    0  0.13841398077E+02 -0.21991420668E+02 -0.34762305149E+02  0.47787254120E+02  0.19999922833E+02 0.  0.
         12    1    1    2    0    0 -0.13841398077E+02  0.21991420668E+02  0.34762305149E+02  0.43400745880E+02  0.00000000000E+00 0. -1.
         11    1    3    3    0    0  0.87177155023E+01 -0.74238324612E+01 -0.10324003932E+02  0.15417422269E+02  0.51100000000E-03 0.  1.
        -11    1    3    3    0    0 -0.15052511807E+01 -0.39748900889E+00  0.14463396803E+01  0.21250123203E+01  0.51100000000E-03 0. -1.
         12    1    3    3    0    0  0.66289337557E+01 -0.14170099198E+02 -0.25884640897E+02  0.30244819530E+02  0.00000000000E+00 0. -1.
</event>
<event>
 7    1  0.1418970E-010  0.4778727E+02  0.7816164E-02  0.1312668E+00
        -11   -1    0    0    0    0  0.00000000000E+00  0.00000000000E+00  0.45593999997E+02  0.45594000000E+02  0.51100000000E-03 0.  1.
         11   -1    0    0    0    0 -0.00000000000E+00 -0.00000000000E+00 -0.45593999997E+02  0.45594000000E+02  0.51100000000E-03 0. -1.
    9900012    2    1    2    0    0  0.20683713566E+02  0.99359000315E-01  0.38154914763E+02  0.47787269595E+02  0.19999993392E+02 0.  0.
         12    1    1    2    0    0 -0.20683713566E+02 -0.99359000315E-01 -0.38154914763E+02  0.43400730405E+02  0.00000000000E+00 0. -1.
         11    1    3    3    0    0  0.11155544989E+01 -0.27066357112E+01  0.19805418498E+01  0.35345275488E+01  0.51100000000E-03 0. -1.
        -11    1    3    3    0    0  0.88029493277E+01  0.85725277831E+01  0.24244383142E+02  0.27180328615E+02  0.51100000000E-03 0.  1.
        -12    1    3    3    0    0  0.10765209739E+02 -0.57665330715E+01  0.11929989772E+02  0.17072413431E+02  0.00000000000E+00 0.  1.
</event>
<event>
 7    1  0.1418970E-010  0.4778727E+02  0.7816164E-02  0.1312668E+00
        -11   -1    0    0    0    0  0.00000000000E+00  0.00000000000E+00  0.45593999997E+02  0.45594000000E+02  0.51100000000E-03 0.  1.
         11   -1    0    0    0    0 -0.00000000000E+00 -0.00000000000E+00 -0.45593999997E+02  0.45594000000E+02  0.51100000000E-03 0. -1.
    9900012    2    1    2    0    0  0.86959523191E+01 -0.37119189893E+02  0.20740537502E+02  0.47787265664E+02  0.19999975467E+02 0.  0.
         12    1    1    2    0    0 -0.86959523191E+01  0.37119189893E+02 -0.20740537502E+02  0.43400734336E+02  0.00000000000E+00 0. -1.
         11    1    3    3    0    0  0.53484332580E+01 -0.81625765915E+01  0.10205444789E+01  0.98119776917E+01  0.51100000000E-03 0. -1.
        -11    1    3    3    0    0  0.31071077962E+01 -0.21375259079E+01 -0.12036977468E+01  0.39587907738E+01  0.51100000000E-03 0.  1.
        -12    1    3    3    0    0  0.24041126482E+00 -0.26819087393E+02  0.20923690770E+02  0.34016497198E+02  0.00000000000E+00 0.  1.
</event>
<event>
 7    1  0.1418970E-010  0.4778727E+02  0.7816164E-02  0.1312668E+00
        -11   -1    0    0    0    0  0.00000000000E+00  0.00000000000E+00  0.45593999997E+02  0.45594000000E+02  0.51100000000E-03 0.  1.
         11   -1    0    0    0    0 -0.00000000000E+00 -0.00000000000E+00 -0.45593999997E+02  0.45594000000E+02  0.51100000000E-03 0. -1.
    9900012    2    1    2    0    0  0.35821288299E+02 -0.21169997147E+02  0.12340576643E+02  0.47787270669E+02  0.19999998287E+02 0.  0.
         12    1    1    2    0    0 -0.35821288299E+02  0.21169997147E+02 -0.12340576643E+02  0.43400729331E+02  0.00000000000E+00 0. -1.
         11    1    3    3    0    0  0.83208089987E+01  0.12073931595E+01 -0.35886777479E+00  0.84156073444E+01  0.51100000000E-03 0. -1.
        -11    1    3    3    0    0  0.21261575676E+02 -0.12543843069E+02  0.44097470345E+01  0.25076851244E+02  0.51100000000E-03 0.  1.
        -12    1    3    3    0    0  0.62389036249E+01 -0.98335472375E+01  0.82896973830E+01  0.14294812080E+02  0.00000000000E+00 0.  1.
</event>
<event>
 7    1  0.1418970E-010  0.4778727E+02  0.7816164E-02  0.1312668E+00
        -11   -1    0    0    0    0  0.00000000000E+00  0.00000000000E+00  0.45593999997E+02  0.45594000000E+02  0.51100000000E-03 0.  1.
         11   -1    0    0    0    0 -0.00000000000E+00 -0.00000000000E+00 -0.45593999997E+02  0.45594000000E+02  0.51100000000E-03 0. -1.
    9900012    2    1    2    0    0 -0.18163924792E+02 -0.39244095778E+02  0.36873164328E+01  0.47787268212E+02  0.19999987084E+02 0.  0.
         12    1    1    2    0    0  0.18163924792E+02  0.39244095778E+02 -0.36873164328E+01  0.43400731788E+02  0.00000000000E+00 0. -1.
         11    1    3    3    0    0 -0.16597149381E+02 -0.23513537900E+02 -0.35181501312E+01  0.28995330879E+02  0.51100000000E-03 0. -1.
        -11    1    3    3    0    0 -0.18698872326E+00 -0.10281344543E+02  0.86630782061E+00  0.10319471880E+02  0.51100000000E-03 0.  1.
        -12    1    3    3    0    0 -0.13797866885E+01 -0.54492133346E+01  0.63391587433E+01  0.84724654526E+01  0.00000000000E+00 0.  1.
</event>
<event>
 7    1  0.1418970E-010  0.4778727E+02  0.7816164E-02  0.1312668E+00
        -11   -1    0    0    0    0  0.00000000000E+00  0.00000000000E+00  0.45593999997E+02  0.45594000000E+02  0.51100000000E-03 0.  1.
         11   -1    0    0    0    0 -0.00000000000E+00 -0.00000000000E+00 -0.45593999997E+02  0.45594000000E+02  0.51100000000E-03 0. -1.
    9900012    2    1    2    0    0 -0.86561204354E+01 -0.24777371684E+02  0.34565540879E+02  0.47787272071E+02  0.20000004679E+02 0.  0.
         12    1    1    2    0    0  0.86561204354E+01  0.24777371684E+02 -0.34565540879E+02  0.43400727929E+02  0.00000000000E+00 0. -1.
         11    1    3    3    0    0 -0.13223490281E+01 -0.20622210377E+02  0.16179669900E+02  0.26245111661E+02  0.51100000000E-03 0.  1.
        -11    1    3    3    0    0 -0.66734358405E+00  0.19542005104E+01  0.23161460173E+01  0.31030275101E+01  0.51100000000E-03 0. -1.
        -12    1    3    3    0    0 -0.66664278233E+01 -0.61093618171E+01  0.16069724962E+02  0.18439132899E+02  0.00000000000E+00 0.  1.
</event>
<event>
 7    1  0.1418970E-010  0.4778728E+02  0.7816164E-02  0.1312668E+00
        -11   -1    0    0    0    0  0.00000000000E+00  0.00000000000E+00  0.45593999997E+02  0.45594000000E+02  0.51100000000E-03 0. -1.
         11   -1    0    0    0    0 -0.00000000000E+00 -0.00000000000E+00 -0.45593999997E+02  0.45594000000E+02  0.51100000000E-03 0.  1.
    9900012    2    1    2    0    0 -0.36898651341E+02  0.80193076333E+00 -0.22835695191E+02  0.47787279516E+02  0.20000038624E+02 0.  0.
         12    1    1    2    0    0  0.36898651341E+02 -0.80193076333E+00  0.22835695191E+02  0.43400720484E+02  0.00000000000E+00 0. -1.
         11    1    3    3    0    0 -0.31966831350E+02 -0.53389206079E+01 -0.19115539375E+02  0.37626934843E+02  0.51100000000E-03 0.  1.
        -11    1    3    3    0    0 -0.33935670878E+01  0.32300751853E+01  0.60585304817E+00  0.47240598493E+01  0.51100000000E-03 0. -1.
        -12    1    3    3    0    0 -0.15382529033E+01  0.29107761858E+01 -0.43260088635E+01  0.54362848238E+01  0.00000000000E+00 0.  1.
</event>
<event>
 7    1  0.1418970E-010  0.4778727E+02  0.7816164E-02  0.1312668E+00
        -11   -1    0    0    0    0  0.00000000000E+00  0.00000000000E+00  0.45593999997E+02  0.45594000000E+02  0.51100000000E-03 0. -1.
         11   -1    0    0    0    0 -0.00000000000E+00 -0.00000000000E+00 -0.45593999997E+02  0.45594000000E+02  0.51100000000E-03 0.  1.
    9900012    2    1    2    0    0  0.38725789468E+02  0.17291471226E+02 -0.92163769683E+01  0.47787270150E+02  0.19999995923E+02 0.  0.
         12    1    1    2    0    0 -0.38725789468E+02 -0.17291471226E+02  0.92163769683E+01  0.43400729850E+02  0.00000000000E+00 0. -1.
         11    1    3    3    0    0  0.69844495506E+01 -0.17738927238E+01  0.23888481841E+00  0.72101523658E+01  0.51100000000E-03 0. -1.
        -11    1    3    3    0    0  0.38721470914E+01  0.90447465168E+01 -0.26492442425E+01  0.10189183381E+02  0.51100000000E-03 0.  1.
        -12    1    3    3    0    0  0.27869192826E+02  0.10020617433E+02 -0.68060175442E+01  0.30387934404E+02  0.00000000000E+00 0.  1.
</event>
<event>
 7    1  0.1418970E-010  0.4778726E+02  0.7816164E-02  0.1312668E+00
        -11   -1    0    0    0    0  0.00000000000E+00  0.00000000000E+00  0.45593999997E+02  0.45594000000E+02  0.51100000000E-03 0. -1.
         11   -1    0    0    0    0 -0.00000000000E+00 -0.00000000000E+00 -0.45593999997E+02  0.45594000000E+02  0.51100000000E-03 0.  1.
    9900012    2    1    2    0    0 -0.23542617571E+02  0.36253423518E+02 -0.38805115536E+01  0.47787263499E+02  0.19999965599E+02 0.  0.
         12    1    1    2    0    0  0.23542617571E+02 -0.36253423518E+02  0.38805115536E+01  0.43400736501E+02  0.00000000000E+00 0. -1.
         11    1    3    3    0    0 -0.46397754330E+01  0.80266793645E+01 -0.57427609605E+01  0.10905704993E+02  0.51100000000E-03 0.  1.
        -11    1    3    3    0    0 -0.16484686315E+01  0.21309762662E+01  0.47536164369E+01  0.54640075189E+01  0.51100000000E-03 0. -1.
         12    1    3    3    0    0 -0.17254373507E+02  0.26095767887E+02 -0.28913670300E+01  0.31417550987E+02  0.00000000000E+00 0. -1.
</event>
<event>
 7    1  0.1418970E-010  0.4778727E+02  0.7816164E-02  0.1312668E+00
        -11   -1    0    0    0    0  0.00000000000E+00  0.00000000000E+00  0.45593999997E+02  0.45594000000E+02  0.51100000000E-03 0.  1.
         11   -1    0    0    0    0 -0.00000000000E+00 -0.00000000000E+00 -0.45593999997E+02  0.45594000000E+02  0.51100000000E-03 0. -1.
    9900012    2    1    2    0    0  0.41806245345E+02 -0.80842172819E+01  0.83968124748E+01  0.47787272142E+02  0.20000005004E+02 0.  0.
         12    1    1    2    0    0 -0.41806245345E+02  0.80842172819E+01 -0.83968124748E+01  0.43400727858E+02  0.00000000000E+00 0. -1.
         11    1    3    3    0    0  0.10012855068E+02 -0.82597314938E+01  0.41533158091E+01  0.13628296424E+02  0.51100000000E-03 0. -1.
        -11    1    3    3    0    0  0.29592895323E+02 -0.16298754727E+01  0.67154981848E+01  0.30389041837E+02  0.51100000000E-03 0.  1.
         12    1    3    3    0    0  0.22004949542E+01  0.18053896846E+01 -0.24720015190E+01  0.37699338809E+01  0.00000000000E+00 0. -1.
</event>
<event>
 7    1  0.1418970E-010  0.4778727E+02  0.7816164E-02  0.1312668E+00
        -11   -1    0    0    0    0  0.00000000000E+00  0.00000000000E+00  0.45593999997E+02  0.45594000000E+02  0.51100000000E-03 0.  1.
         11   -1    0    0    0    0 -0.00000000000E+00 -0.00000000000E+00 -0.45593999997E+02  0.45594000000E+02  0.51100000000E-03 0. -1.
    9900012    2    1    2    0    0 -0.12668673525E+02 -0.39935436899E+02 -0.11326466682E+02  0.47787271243E+02  0.20000000905E+02 0.  0.
         12    1    1    2    0    0  0.12668673525E+02  0.39935436899E+02  0.11326466682E+02  0.43400728757E+02  0.00000000000E+00 0. -1.
         11    1    3    3    0    0 -0.54189523711E+01 -0.66476373037E+01 -0.34672214054E+01  0.92508243447E+01  0.51100000000E-03 0. -1.
        -11    1    3    3    0    0 -0.50188566248E+01 -0.25387949969E+02  0.17015212618E+01  0.25935151827E+02  0.51100000000E-03 0.  1.
        -12    1    3    3    0    0 -0.22308645289E+01 -0.78998496260E+01 -0.95607665384E+01  0.12601295071E+02  0.00000000000E+00 0.  1.
</event>
<event>
 7    1  0.1418970E-010  0.4778728E+02  0.7816164E-02  0.1312668E+00
        -11   -1    0    0    0    0  0.00000000000E+00  0.00000000000E+00  0.45593999997E+02  0.45594000000E+02  0.51100000000E-03 0.  1.
         11   -1    0    0    0    0 -0.00000000000E+00 -0.00000000000E+00 -0.45593999997E+02  0.45594000000E+02  0.51100000000E-03 0. -1.
    9900012    2    1    2    0    0 -0.57819294094E+01  0.41406924174E+02  0.11647256699E+02  0.47787278049E+02  0.20000031938E+02 0.  0.
         12    1    1    2    0    0  0.57819294094E+01 -0.41406924174E+02 -0.11647256699E+02  0.43400721951E+02  0.00000000000E+00 0. -1.
         11    1    3    3    0    0 -0.35219718226E+00  0.14832439482E+01  0.63258708515E+01  0.65069730103E+01  0.51100000000E-03 0. -1.
        -11    1    3    3    0    0  0.24547394448E-01  0.22964240850E+02  0.12042057366E+01  0.22995805533E+02  0.51100000000E-03 0.  1.
         12    1    3    3    0    0 -0.54542796216E+01  0.16959439375E+02  0.41171801110E+01  0.18284499506E+02  0.00000000000E+00 0. -1.
</event>
<event>
 7    1  0.1418970E-010  0.4778726E+02  0.7816164E-02  0.1312668E+00
        -11   -1    0    0    0    0  0.00000000000E+00  0.00000000000E+00  0.45593999997E+02  0.45594000000E+02  0.51100000000E-03 0.  1.
         11   -1    0    0    0    0 -0.00000000000E+00 -0.00000000000E+00 -0.45593999997E+02  0.45594000000E+02  0.51100000000E-03 0. -1.
    9900012    2    1    2    0    0 -0.14299031846E+02  0.14811937681E+02  0.38206911719E+02  0.47787263685E+02  0.19999966444E+02 0.  0.
         12    1    1    2    0    0  0.14299031846E+02 -0.14811937681E+02 -0.38206911719E+02  0.43400736315E+02  0.00000000000E+00 0. -1.
         11    1    3    3    0    0  0.24123642637E+00  0.28597147242E+01  0.17281555084E+02  0.17518227927E+02  0.51100000000E-03 0. -1.
        -11    1    3    3    0    0 -0.72995229309E+01 -0.32884949450E+00  0.47870663523E+01  0.87353981896E+01  0.51100000000E-03 0.  1.
        -12    1    3    3    0    0 -0.72407453413E+01  0.12281072451E+02  0.16138290283E+02  0.21533637568E+02  0.00000000000E+00 0.  1.
</event>
<event>
 7    1  0.1418970E-010  0.4778727E+02  0.7816164E-02  0.1312668E+00
        -11   -1    0    0    0    0  0.00000000000E+00  0.00000000000E+00  0.45593999997E+02  0.45594000000E+02  0.51100000000E-03 0.  1.
         11   -1    0    0    0    0 -0.00000000000E+00 -0.00000000000E+00 -0.45593999997E+02  0.45594000000E+02  0.51100000000E-03 0. -1.
    9900012    2    1    2    0    0  0.35589067480E+02 -0.16727586575E+02  0.18363798944E+02  0.47787274334E+02  0.20000014999E+02 0.  0.
         12    1    1    2    0    0 -0.35589067480E+02  0.16727586575E+02 -0.18363798944E+02  0.43400725666E+02  0.00000000000E+00 0. -1.
         11    1    3    3    0    0  0.23883505645E+01 -0.66934346729E+01  0.23820397814E+01  0.74953585585E+01  0.51100000000E-03 0. -1.
        -11    1    3    3    0    0  0.25921306268E+02 -0.12235780472E+02  0.92056730010E+01  0.30106026939E+02  0.51100000000E-03 0.  1.
         12    1    3    3    0    0  0.72794106471E+01  0.22016285698E+01  0.67760861611E+01  0.10185888837E+02  0.00000000000E+00 0. -1.
</event>
<event>
 7    1  0.1418970E-010  0.4778727E+02  0.7816164E-02  0.1312668E+00
        -11   -1    0    0    0    0  0.00000000000E+00  0.00000000000E+00  0.45593999997E+02  0.45594000000E+02  0.51100000000E-03 0. -1.
         11   -1    0    0    0    0 -0.00000000000E+00 -0.00000000000E+00 -0.45593999997E+02  0.45594000000E+02  0.51100000000E-03 0.  1.
    9900012    2    1    2    0    0 -0.22401266899E+02 -0.67297824527E+00 -0.37166565809E+02  0.47787271061E+02  0.20000000077E+02 0.  0.
         12    1    1    2    0    0  0.22401266899E+02  0.67297824527E+00  0.37166565809E+02  0.43400728939E+02  0.00000000000E+00 0. -1.
         11    1    3    3    0    0 -0.13975948230E+02  0.74700211522E+01 -0.25960394895E+02  0.30414970792E+02  0.51100000000E-03 0. -1.
        -11    1    3    3    0    0 -0.64052716269E+01 -0.33836652893E+01 -0.94601298538E+01  0.11915148027E+02  0.51100000000E-03 0.  1.
        -12    1    3    3    0    0 -0.20200470415E+01 -0.47593341081E+01 -0.17460410604E+01  0.54571522415E+01  0.00000000000E+00 0.  1.
</event>
<event>
 7    1  0.1418970E-010  0.4778727E+02  0.7816164E-02  0.1312668E+00
        -11   -1    0    0    0    0  0.00000000000E+00  0.00000000000E+00  0.45593999997E+02  0.45594000000E+02  0.51100000000E-03 0. -1.
         11   -1    0    0    0    0 -0.00000000000E+00 -0.00000000000E+00 -0.45593999997E+02  0.45594000000E+02  0.51100000000E-03 0.  1.
    9900012    2    1    2    0    0  0.36736930410E+02 -0.88784521042E+01 -0.21335284345E+02  0.47787270446E+02  0.19999997274E+02 0.  0.
         12    1    1    2    0    0 -0.36736930410E+02  0.88784521042E+01  0.21335284345E+02  0.43400729554E+02  0.00000000000E+00 0. -1.
         11    1    3    3    0    0  0.24226085020E+00  0.19731122568E+01 -0.20799691504E+01  0.28771746949E+01  0.51100000000E-03 0. -1.
        -11    1    3    3    0    0  0.16981038042E+02 -0.26688673368E+01 -0.16033457640E+02  0.23506387855E+02  0.51100000000E-03 0.  1.
         12    1    3    3    0    0  0.19513631518E+02 -0.81826970243E+01 -0.32218575542E+01  0.21403707896E+02  0.00000000000E+00 0. -1.
</event>
<event>
 7    1  0.1418970E-010  0.4778727E+02  0.7816164E-02  0.1312668E+00
        -11   -1    0    0    0    0  0.00000000000E+00  0.00000000000E+00  0.45593999997E+02  0.45594000000E+02  0.51100000000E-03 0. -1.
         11   -1    0    0    0    0 -0.00000000000E+00 -0.00000000000E+00 -0.45593999997E+02  0.45594000000E+02  0.51100000000E-03 0.  1.
    9900012    2    1    2    0    0  0.20952742111E+02 -0.29093294649E+02 -0.24457842466E+02  0.47787271278E+02  0.20000001066E+02 0.  0.
         12    1    1    2    0    0 -0.20952742111E+02  0.29093294649E+02  0.24457842466E+02  0.43400728722E+02  0.00000000000E+00 0. -1.
         11    1    3    3    0    0  0.93957072945E+01 -0.17338270120E+02 -0.33216925447E+01  0.19998214119E+02  0.51100000000E-03 0. -1.
        -11    1    3    3    0    0  0.86688908053E+01 -0.11187998002E+02 -0.13314076882E+02  0.19431562227E+02  0.51100000000E-03 0.  1.
         12    1    3    3    0    0  0.28881440110E+01 -0.56702652622E+00 -0.78220730393E+01  0.83574949322E+01  0.00000000000E+00 0. -1.
</event>
<event>
 7    1  0.1418970E-010  0.4778725E+02  0.7816164E-02  0.1312668E+00
        -11   -1    0    0    0    0  0.00000000000E+00  0.00000000000E+00  0.45593999997E+02  0.45594000000E+02  0.51100000000E-03 0. -1.
         11   -1    0    0    0    0 -0.00000000000E+00 -0.00000000000E+00 -0.45593999997E+02  0.45594000000E+02  0.51100000000E-03 0.  1.
    9900012    2    1    2    0    0  0.34433099121E+02 -0.26418266860E+02  0.24828902491E+00  0.47787253619E+02  0.19999920549E+02 0.  0.
         12    1    1    2    0    0 -0.34433099121E+02  0.26418266860E+02 -0.24828902491E+00  0.43400746381E+02  0.00000000000E+00 0. -1.
         11    1    3    3    0    0  0.47071644204E+01  0.65578601556E+00  0.10883466497E+01  0.48756487640E+01  0.51100000000E-03 0. -1.
        -11    1    3    3    0    0  0.12306601221E+02 -0.33647182231E+01  0.33587670889E+01  0.13192993556E+02  0.51100000000E-03 0.  1.
         12    1    3    3    0    0  0.17419333480E+02 -0.23709334653E+02 -0.41988247136E+01  0.29718611299E+02  0.00000000000E+00 0. -1.
</event>
<event>
 7    1  0.1418970E-010  0.4778728E+02  0.7816164E-02  0.1312668E+00
        -11   -1    0    0    0    0  0.00000000000E+00  0.00000000000E+00  0.45593999997E+02  0.45594000000E+02  0.51100000000E-03 0. -1.
         11   -1    0    0    0    0 -0.00000000000E+00 -0.00000000000E+00 -0.45593999997E+02  0.45594000000E+02  0.51100000000E-03 0.  1.
    9900012    2    1    2    0    0  0.40579370479E+02 -0.58658832440E+01  0.14231267870E+02  0.47787275583E+02  0.20000020693E+02 0.  0.
         12    1    1    2    0    0 -0.40579370479E+02  0.58658832440E+01 -0.14231267870E+02  0.43400724417E+02  0.00000000000E+00 0. -1.
         11    1    3    3    0    0  0.10361316575E+02 -0.25258268166E+01 -0.12128490828E+01  0.10733484310E+02  0.51100000000E-03 0. -1.
        -11    1    3    3    0    0  0.52111887831E+01 -0.44952923721E+01 -0.12084239699E+01  0.69874480889E+01  0.51100000000E-03 0.  1.
        -12    1    3    3    0    0  0.25006865121E+02  0.11552359447E+01  0.16652540923E+02  0.30066343184E+02  0.00000000000E+00 0.  1.
</event>
<event>
 7    1  0.1418970E-010  0.4778727E+02  0.7816164E-02  0.1312668E+00
        -11   -1    0    0    0    0  0.00000000000E+00  0.00000000000E+00  0.45593999997E+02  0.45594000000E+02  0.51100000000E-03 0.  1.
         11   -1    0    0    0    0 -0.00000000000E+00 -0.00000000000E+00 -0.45593999997E+02  0.45594000000E+02  0.51100000000E-03 0. -1.
    9900012    2    1    2    0    0 -0.23592296814E+02 -0.12019614436E+02  0.34388309371E+02  0.47787269343E+02  0.19999992245E+02 0.  0.
         12    1    1    2    0    0  0.23592296814E+02  0.12019614436E+02 -0.34388309371E+02  0.43400730657E+02  0.00000000000E+00 0. -1.
         11    1    3    3    0    0 -0.93954244444E+01 -0.79637069293E+00  0.42396544279E+01  0.10338417514E+02  0.51100000000E-03 0. -1.
        -11    1    3    3    0    0 -0.12641642783E+02 -0.41338693166E+01  0.25695392506E+02  0.28933599916E+02  0.51100000000E-03 0.  1.
        -12    1    3    3    0    0 -0.15552295864E+01 -0.70893744262E+01  0.44532624370E+01  0.85152519137E+01  0.00000000000E+00 0.  1.
</event>
<event>
 7    1  0.1418970E-010  0.4778728E+02  0.7816164E-02  0.1312668E+00
        -11   -1    0    0    0    0  0.00000000000E+00  0.00000000000E+00  0.45593999997E+02  0.45594000000E+02  0.51100000000E-03 0.  1.
         11   -1    0    0    0    0 -0.00000000000E+00 -0.00000000000E+00 -0.45593999997E+02  0.45594000000E+02  0.51100000000E-03 0. -1.
    9900012    2    1    2    0    0  0.31010665577E+00  0.28611740810E+02  0.32632722268E+02  0.47787280640E+02  0.20000043750E+02 0.  0.
         12    1    1    2    0    0 -0.31010665577E+00 -0.28611740810E+02 -0.32632722268E+02  0.43400719360E+02  0.00000000000E+00 0. -1.
         11    1    3    3    0    0  0.33572296355E+01  0.11973899812E+02  0.10685117301E+02  0.16395639650E+02  0.51100000000E-03 0. -1.
        -11    1    3    3    0    0 -0.60253059132E+00  0.17469250320E+02  0.22748173826E+02  0.28688275698E+02  0.51100000000E-03 0.  1.
        -12    1    3    3    0    0 -0.24445923884E+01 -0.83140932122E+00 -0.80056885887E+00  0.27033652921E+01  0.00000000000E+00 0.  1.
</event>
<event>
 7    1  0.1418970E-010  0.4778727E+02  0.7816164E-02  0.1312668E+00
        -11   -1    0    0    0    0  0.00000000000E+00  0.00000000000E+00  0.45593999997E+02  0.45594000000E+02  0.51100000000E-03 0. -1.
         11   -1    0    0    0    0 -0.00000000000E+00 -0.00000000000E+00 -0.45593999997E+02  0.45594000000E+02  0.51100000000E-03 0.  1.
    9900012    2    1    2    0    0  0.27899856806E+02  0.33228959904E+02 -0.10282080464E+01  0.47787274224E+02  0.20000014497E+02 0.  0.
         12    1    1    2    0    0 -0.27899856806E+02 -0.33228959904E+02  0.10282080464E+01  0.43400725776E+02  0.00000000000E+00 0. -1.
         11    1    3    3    0    0  0.20046166296E+02  0.14179794621E+02 -0.50149160699E+01  0.25061219885E+02  0.51100000000E-03 0. -1.
        -11    1    3    3    0    0  0.16284772103E+01  0.45691615289E+01 -0.27604414499E+01  0.55811479430E+01  0.51100000000E-03 0.  1.
        -12    1    3    3    0    0  0.62252133004E+01  0.14480003753E+02  0.67471494734E+01  0.17144906397E+02  0.00000000000E+00 0.  1.
</event>
<event>
 7    1  0.1418970E-010  0.4778727E+02  0.7816164E-02  0.1312668E+00
        -11   -1    0    0    0    0  0.00000000000E+00  0.00000000000E+00  0.45593999997E+02  0.45594000000E+02  0.51100000000E-03 0. -1.
         11   -1    0    0    0    0 -0.00000000000E+00 -0.00000000000E+00 -0.45593999997E+02  0.45594000000E+02  0.51100000000E-03 0.  1.
    9900012    2    1    2    0    0  0.43546351558E+01 -0.42909020669E+02 -0.48452523900E+01  0.47787269904E+02  0.19999994801E+02 0.  0.
         12    1    1    2    0    0 -0.43546351558E+01  0.42909020669E+02  0.48452523900E+01  0.43400730096E+02  0.00000000000E+00 0. -1.
         11    1    3    3    0    0  0.25097789587E+01 -0.14856004636E+02  0.42511004258E+01  0.15654766663E+02  0.51100000000E-03 0.  1.
        -11    1    3    3    0    0  0.16558033960E+01 -0.26392046978E+02 -0.11797250018E+02  0.28956120887E+02  0.51100000000E-03 0. -1.
         12    1    3    3    0    0  0.18905280115E+00 -0.16609690555E+01  0.27008972025E+01  0.31763823547E+01  0.00000000000E+00 0. -1.
</event>
<event>
 7    1  0.1418970E-010  0.4778727E+02  0.7816164E-02  0.1312668E+00
        -11   -1    0    0    0    0  0.00000000000E+00  0.00000000000E+00  0.45593999997E+02  0.45594000000E+02  0.51100000000E-03 0.  1.
         11   -1    0    0    0    0 -0.00000000000E+00 -0.00000000000E+00 -0.45593999997E+02  0.45594000000E+02  0.51100000000E-03 0. -1.
    9900012    2    1    2    0    0  0.28440989891E+02  0.73926295463E+01  0.31938732760E+02  0.47787268118E+02  0.19999986657E+02 0.  0.
         12    1    1    2    0    0 -0.28440989891E+02 -0.73926295463E+01 -0.31938732760E+02  0.43400731882E+02  0.00000000000E+00 0. -1.
         11    1    3    3    0    0  0.73608789988E+01 -0.31168979376E+01  0.16195867011E+02  0.18061110179E+02  0.51100000000E-03 0. -1.
        -11    1    3    3    0    0  0.87323631086E+01  0.17258125304E+01  0.16912306718E+01  0.90605107912E+01  0.51100000000E-03 0.  1.
        -12    1    3    3    0    0  0.12347747783E+02  0.87837149535E+01  0.14051635077E+02  0.20665647148E+02  0.00000000000E+00 0.  1.
</event>
<event>
 7    1  0.1418970E-010  0.4778727E+02  0.7816164E-02  0.1312668E+00
        -11   -1    0    0    0    0  0.00000000000E+00  0.00000000000E+00  0.45593999997E+02  0.45594000000E+02  0.51100000000E-03 0.  1.
         11   -1    0    0    0    0 -0.00000000000E+00 -0.00000000000E+00 -0.45593999997E+02  0.45594000000E+02  0.51100000000E-03 0. -1.
    9900012    2    1    2    0    0  0.37937653296E+02 -0.15340633990E+02  0.14457615201E+02  0.47787271595E+02  0.20000002510E+02 0.  0.
         12    1    1    2    0    0 -0.37937653296E+02  0.15340633990E+02 -0.14457615201E+02  0.43400728405E+02  0.00000000000E+00 0. -1.
         11    1    3    3    0    0  0.12385811082E+02 -0.12392902519E+02  0.56054939435E+01  0.18396029778E+02  0.51100000000E-03 0. -1.
        -11    1    3    3    0    0  0.19864415003E+02 -0.40902485694E+01  0.11158926398E+02  0.23148363990E+02  0.51100000000E-03 0.  1.
         12    1    3    3    0    0  0.56874272108E+01  0.11425170987E+01 -0.23068051413E+01  0.62428778267E+01  0.00000000000E+00 0. -1.
</event>
<event>
 7    1  0.1418970E-010  0.4778727E+02  0.7816164E-02  0.1312668E+00
        -11   -1    0    0    0    0  0.00000000000E+00  0.00000000000E+00  0.45593999997E+02  0.45594000000E+02  0.51100000000E-03 0.  1.
         11   -1    0    0    0    0 -0.00000000000E+00 -0.00000000000E+00 -0.45593999997E+02  0.45594000000E+02  0.51100000000E-03 0. -1.
    9900012    2    1    2    0    0 -0.39855933202E+02 -0.15802756741E+02  0.67380033142E+01  0.47787271657E+02  0.20000002794E+02 0.  0.
         12    1    1    2    0    0  0.39855933202E+02  0.15802756741E+02 -0.67380033142E+01  0.43400728343E+02  0.00000000000E+00 0. -1.
         11    1    3    3    0    0 -0.24759844860E+02 -0.30443564824E+01  0.11397617504E+01  0.24972326303E+02  0.51100000000E-03 0. -1.
        -11    1    3    3    0    0 -0.93573422794E+01 -0.40654851005E+01  0.69014769556E+01  0.12317402651E+02  0.51100000000E-03 0.  1.
         12    1    3    3    0    0 -0.57387460627E+01 -0.86929151581E+01 -0.13032353918E+01  0.10497542703E+02  0.00000000000E+00 0. -1.
</event>
<event>
 7    1  0.1418970E-010  0.4778726E+02  0.7816164E-02  0.1312668E+00
        -11   -1    0    0    0    0  0.00000000000E+00  0.00000000000E+00  0.45593999997E+02  0.45594000000E+02  0.51100000000E-03 0.  1.
         11   -1    0    0    0    0 -0.00000000000E+00 -0.00000000000E+00 -0.45593999997E+02  0.45594000000E+02  0.51100000000E-03 0. -1.
    9900012    2    1    2    0    0  0.37957046918E+02 -0.18250798516E+02  0.10478306571E+02  0.47787263073E+02  0.19999963656E+02 0.  0.
         12    1    1    2    0    0 -0.37957046918E+02  0.18250798516E+02 -0.10478306571E+02  0.43400736927E+02  0.00000000000E+00 0. -1.
         11    1    3    3    0    0  0.16499606222E+02 -0.65053953185E+01 -0.73974423807E+00  0.17751180116E+02  0.51100000000E-03 0. -1.
        -11    1    3    3    0    0  0.11450997101E+02  0.92206579549E+00  0.27746716799E+01  0.11818390040E+02  0.51100000000E-03 0.  1.
        -12    1    3    3    0    0  0.10006443595E+02 -0.12667468993E+02  0.84433791295E+01  0.18217692918E+02  0.00000000000E+00 0.  1.
</event>
<event>
 7    1  0.1418970E-010  0.4778727E+02  0.7816164E-02  0.1312668E+00
        -11   -1    0    0    0    0  0.00000000000E+00  0.00000000000E+00  0.45593999997E+02  0.45594000000E+02  0.51100000000E-03 0.  1.
         11   -1    0    0    0    0 -0.00000000000E+00 -0.00000000000E+00 -0.45593999997E+02  0.45594000000E+02  0.51100000000E-03 0. -1.
    9900012    2    1    2    0    0  0.30841420633E+02 -0.14524151309E+01  0.30501158340E+02  0.47787269632E+02  0.19999993561E+02 0.  0.
         12    1    1    2    0    0 -0.30841420633E+02  0.14524151309E+01 -0.30501158340E+02  0.43400730368E+02  0.00000000000E+00 0. -1.
         11    1    3    3    0    0  0.57548877417E+01  0.73376093140E+01  0.79238070358E+01  0.12237073243E+02  0.51100000000E-03 0. -1.
        -11    1    3    3    0    0  0.87341547905E+01 -0.39222170925E+01  0.12462616179E+02  0.15715789802E+02  0.51100000000E-03 0.  1.
        -12    1    3    3    0    0  0.16352378101E+02 -0.48678073524E+01  0.10114735125E+02  0.19834406586E+02  0.00000000000E+00 0.  1.
</event>
<event>
 7    1 -0.1418970E-010  0.4778727E+02  0.7816164E-02  0.1312668E+00
        -11   -1    0    0    0    0  0.00000000000E+00  0.00000000000E+00  0.45593999997E+02  0.45594000000E+02  0.51100000000E-03 0.  1.
         11   -1    0    0    0    0 -0.00000000000E+00 -0.00000000000E+00 -0.45593999997E+02  0.45594000000E+02  0.51100000000E-03 0. -1.
    9900012    2    1    2    0    0  0.20357042850E+02  0.60757981444E+01  0.37845728194E+02  0.47787266605E+02  0.19999979759E+02 0.  0.
         12    1    1    2    0    0 -0.20357042850E+02 -0.60757981444E+01 -0.37845728194E+02  0.43400733395E+02  0.00000000000E+00 0. -1.
         11    1    3    3    0    0  0.55760881248E+00 -0.29136516387E+01  0.64782676189E+01  0.71251838616E+01  0.51100000000E-03 0. -1.
        -11    1    3    3    0    0  0.86670156949E+01  0.52396526898E+01  0.40163173687E+01  0.10895041387E+02  0.51100000000E-03 0.  1.
        -12    1    3    3    0    0  0.11132418343E+02  0.37497970933E+01  0.27351143206E+02  0.29767041356E+02  0.00000000000E+00 0.  1.
</event>
<event>
 7    1  0.1418970E-010  0.4778727E+02  0.7816164E-02  0.1312668E+00
        -11   -1    0    0    0    0  0.00000000000E+00  0.00000000000E+00  0.45593999997E+02  0.45594000000E+02  0.51100000000E-03 0.  1.
         11   -1    0    0    0    0 -0.00000000000E+00 -0.00000000000E+00 -0.45593999997E+02  0.45594000000E+02  0.51100000000E-03 0. -1.
    9900012    2    1    2    0    0  0.37478648014E+01  0.21596124284E+02  0.37459102286E+02  0.47787269375E+02  0.19999992390E+02 0.  0.
         12    1    1    2    0    0 -0.37478648014E+01 -0.21596124284E+02 -0.37459102286E+02  0.43400730625E+02  0.00000000000E+00 0. -1.
         11    1    3    3    0    0  0.18597234293E+01  0.16322817814E+02  0.35535878356E+02  0.39149605406E+02  0.51100000000E-03 0.  1.
        -11    1    3    3    0    0  0.77406545669E+00 -0.66811724440E+00  0.23649873265E+01  0.25765720054E+01  0.51100000000E-03 0. -1.
         12    1    3    3    0    0  0.11140759154E+01  0.59414237143E+01 -0.44176339651E+00  0.60610919641E+01  0.00000000000E+00 0. -1.
</event>
<event>
 7    1  0.1418970E-010  0.4778727E+02  0.7816164E-02  0.1312668E+00
        -11   -1    0    0    0    0  0.00000000000E+00  0.00000000000E+00  0.45593999997E+02  0.45594000000E+02  0.51100000000E-03 0.  1.
         11   -1    0    0    0    0 -0.00000000000E+00 -0.00000000000E+00 -0.45593999997E+02  0.45594000000E+02  0.51100000000E-03 0. -1.
    9900012    2    1    2    0    0 -0.21153963248E+02  0.33054165526E+02  0.18535246975E+02  0.47787269590E+02  0.19999993368E+02 0.  0.
         12    1    1    2    0    0  0.21153963248E+02 -0.33054165526E+02 -0.18535246975E+02  0.43400730410E+02  0.00000000000E+00 0. -1.
         11    1    3    3    0    0 -0.78390132356E+01  0.71299109943E+01  0.83290632229E+01  0.13478095330E+02  0.51100000000E-03 0. -1.
        -11    1    3    3    0    0 -0.12061431758E+02  0.17270701767E+02  0.13438523172E+02  0.24986980227E+02  0.51100000000E-03 0.  1.
         12    1    3    3    0    0 -0.12535182551E+01  0.86535527646E+01 -0.32323394197E+01  0.93221940331E+01  0.00000000000E+00 0. -1.
</event>
<event>
 7    1  0.1418970E-010  0.4778728E+02  0.7816164E-02  0.1312668E+00
        -11   -1    0    0    0    0  0.00000000000E+00  0.00000000000E+00  0.45593999997E+02  0.45594000000E+02  0.51100000000E-03 0.  1.
         11   -1    0    0    0    0 -0.00000000000E+00 -0.00000000000E+00 -0.45593999997E+02  0.45594000000E+02  0.51100000000E-03 0. -1.
    9900012    2    1    2    0    0 -0.25350607076E+02  0.23128039133E+02  0.26571852899E+02  0.47787276045E+02  0.20000022802E+02 0.  0.
         12    1    1    2    0    0  0.25350607076E+02 -0.23128039133E+02 -0.26571852899E+02  0.43400723955E+02  0.00000000000E+00 0. -1.
         11    1    3    3    0    0 -0.55012892798E+01  0.17461993220E+01  0.95357117560E+00  0.58500165863E+01  0.51100000000E-03 0. -1.
        -11    1    3    3    0    0 -0.84423161363E+01  0.19592510701E+02  0.19334185336E+02  0.28791490066E+02  0.51100000000E-03 0.  1.
        -12    1    3    3    0    0 -0.11407001660E+02  0.17893291101E+01  0.62840963872E+01  0.13145769394E+02  0.00000000000E+00 0.  1.
</event>
<event>
 7    1  0.1418970E-010  0.4778728E+02  0.7816164E-02  0.1312668E+00
        -11   -1    0    0    0    0  0.00000000000E+00  0.00000000000E+00  0.45593999997E+02  0.45594000000E+02  0.51100000000E-03 0. -1.
         11   -1    0    0    0    0 -0.00000000000E+00 -0.00000000000E+00 -0.45593999997E+02  0.45594000000E+02  0.51100000000E-03 0.  1.
    9900012    2    1    2    0    0  0.25724066761E+02 -0.27088379779E+02 -0.22093308446E+02  0.47787283325E+02  0.20000055992E+02 0.  0.
         12    1    1    2    0    0 -0.25724066761E+02  0.27088379779E+02  0.22093308446E+02  0.43400716675E+02  0.00000000000E+00 0. -1.
         11    1    3    3    0    0  0.13479550796E+02 -0.72183036869E+01 -0.61243500153E+01  0.16471486307E+02  0.51100000000E-03 0. -1.
        -11    1    3    3    0    0  0.12287983629E+02 -0.21791018214E+02 -0.14833234567E+02  0.29083807599E+02  0.51100000000E-03 0.  1.
         12    1    3    3    0    0 -0.43467664233E-01  0.19209421217E+01 -0.11357238635E+01  0.22319894191E+01  0.00000000000E+00 0. -1.
</event>
<event>
 7    1  0.1418970E-010  0.4778725E+02  0.7816164E-02  0.1312668E+00
        -11   -1    0    0    0    0  0.00000000000E+00  0.00000000000E+00  0.45593999997E+02  0.45594000000E+02  0.51100000000E-03 0. -1.
         11   -1    0    0    0    0 -0.00000000000E+00 -0.00000000000E+00 -0.45593999997E+02  0.45594000000E+02  0.51100000000E-03 0.  1.
    9900012    2    1    2    0    0  0.25880565539E+02  0.32492055422E+02 -0.12573281603E+02  0.47787254056E+02  0.19999922543E+02 0.  0.
         12    1    1    2    0    0 -0.25880565539E+02 -0.32492055422E+02  0.12573281603E+02  0.43400745944E+02  0.00000000000E+00 0. -1.
         11    1    3    3    0    0  0.54999967716E+01  0.26665485811E+00 -0.15506182210E+01  0.57206194096E+01  0.51100000000E-03 0. -1.
        -11    1    3    3    0    0  0.14136468998E+02  0.22436437197E+02 -0.14128642759E+02  0.30047496007E+02  0.51100000000E-03 0.  1.
        -12    1    3    3    0    0  0.62440997697E+01  0.97889633678E+01  0.31059793769E+01  0.12019138640E+02  0.00000000000E+00 0.  1.
</event>
<event>
 7    1  0.1418970E-010  0.4778727E+02  0.7816164E-02  0.1312668E+00
        -11   -1    0    0    0    0  0.00000000000E+00  0.00000000000E+00  0.45593999997E+02  0.45594000000E+02  0.51100000000E-03 0. -1.
         11   -1    0    0    0    0 -0.00000000000E+00 -0.00000000000E+00 -0.45593999997E+02  0.45594000000E+02  0.51100000000E-03 0.  1.
    9900012    2    1    2    0    0  0.40231076129E+01  0.93066985041E+01 -0.42199801555E+02  0.47787270937E+02  0.19999999510E+02 0.  0.
         12    1    1    2    0    0 -0.40231076129E+01 -0.93066985041E+01  0.42199801555E+02  0.43400729063E+02  0.00000000000E+00 0. -1.
         11    1    3    3    0    0  0.22042114537E+01  0.29687525892E+01 -0.66158800735E+00  0.37562932555E+01  0.51100000000E-03 0. -1.
        -11    1    3    3    0    0  0.59043124895E+01  0.21824530899E+01 -0.33593676590E+02  0.34178342771E+02  0.51100000000E-03 0.  1.
         12    1    3    3    0    0 -0.40854163303E+01  0.41554928250E+01 -0.79445369574E+01  0.98526349104E+01  0.00000000000E+00 0. -1.
</event>
<event>
 7    1  0.1555704E-010  0.4778728E+02  0.7816164E-02  0.1312668E+00
        -11   -1    0    0    0    0  0.00000000000E+00  0.00000000000E+00  0.45593999997E+02  0.45594000000E+02  0.51100000000E-03 0.  1.
         11   -1    0    0    0    0 -0.00000000000E+00 -0.00000000000E+00 -0.45593999997E+02  0.45594000000E+02  0.51100000000E-03 0. -1.
    9900012    2    1    2    0    0 -0.39443947664E+02  0.80891851820E+01  0.16197615170E+02  0.47787278101E+02  0.20000032172E+02 0.  0.
         12    1    1    2    0    0  0.39443947664E+02 -0.80891851820E+01 -0.16197615170E+02  0.43400721899E+02  0.00000000000E+00 0. -1.
         11    1    3    3    0    0 -0.15515792684E+00  0.30453121778E+01  0.22376506102E+00  0.30574615789E+01  0.51100000000E-03 0. -1.
        -11    1    3    3    0    0 -0.28798265173E+02  0.95735241103E+01  0.11272405071E+02  0.32373747964E+02  0.51100000000E-03 0.  1.
        -12    1    3    3    0    0 -0.10490524564E+02 -0.45296511061E+01  0.47014450377E+01  0.12356068558E+02  0.00000000000E+00 0.  1.
</event>
<event>
 7    1  0.1418970E-010  0.4778727E+02  0.7816164E-02  0.1312668E+00
        -11   -1    0    0    0    0  0.00000000000E+00  0.00000000000E+00  0.45593999997E+02  0.45594000000E+02  0.51100000000E-03 0.  1.
         11   -1    0    0    0    0 -0.00000000000E+00 -0.00000000000E+00 -0.45593999997E+02  0.45594000000E+02  0.51100000000E-03 0. -1.
    9900012    2    1    2    0    0  0.43026108924E+02 -0.18216171463E+01 -0.53906250963E+01  0.47787272159E+02  0.20000005084E+02 0.  0.
         12    1    1    2    0    0 -0.43026108924E+02  0.18216171463E+01  0.53906250963E+01  0.43400727841E+02  0.00000000000E+00 0. -1.
         11    1    3    3    0    0  0.33714272976E+01  0.38577087662E+01  0.16601554714E+01  0.53855877486E+01  0.51100000000E-03 0. -1.
        -11    1    3    3    0    0  0.13526177663E+02 -0.77659550102E+01 -0.28603216482E+01  0.15857142856E+02  0.51100000000E-03 0.  1.
        -12    1    3    3    0    0  0.26128503964E+02  0.20866290977E+01 -0.41904589195E+01  0.26544541554E+02  0.00000000000E+00 0.  1.
</event>
<event>
 7    1  0.1574675E-010  0.4778727E+02  0.7816164E-02  0.1312668E+00
        -11   -1    0    0    0    0  0.00000000000E+00  0.00000000000E+00  0.45593999997E+02  0.45594000000E+02  0.51100000000E-03 0.  1.
         11   -1    0    0    0    0 -0.00000000000E+00 -0.00000000000E+00 -0.45593999997E+02  0.45594000000E+02  0.51100000000E-03 0. -1.
    9900012    2    1    2    0    0  0.30389160561E+02 -0.96964113943E+01  0.29429607457E+02  0.47787271105E+02  0.20000000277E+02 0.  0.
         12    1    1    2    0    0 -0.30389160561E+02  0.96964113943E+01 -0.29429607457E+02  0.43400728895E+02  0.00000000000E+00 0. -1.
         11    1    3    3    0    0  0.44647984908E+01  0.34922875157E+00  0.39202016533E-01  0.44786072995E+01  0.51100000000E-03 0. -1.
        -11    1    3    3    0    0  0.83924611277E+01 -0.11012402968E+02  0.16423446775E+02  0.21481062058E+02  0.51100000000E-03 0.  1.
        -12    1    3    3    0    0  0.17531900943E+02  0.96676282204E+00  0.12966958665E+02  0.21827601747E+02  0.00000000000E+00 0.  1.
</event>
<event>
 7    1  0.1418970E-010  0.4778727E+02  0.7816164E-02  0.1312668E+00
        -11   -1    0    0    0    0  0.00000000000E+00  0.00000000000E+00  0.45593999997E+02  0.45594000000E+02  0.51100000000E-03 0. -1.
         11   -1    0    0    0    0 -0.00000000000E+00 -0.00000000000E+00 -0.45593999997E+02  0.45594000000E+02  0.51100000000E-03 0.  1.
    9900012    2    1    2    0    0  0.49390108301E+01  0.42981545004E+02 -0.34375311596E+01  0.47787266603E+02  0.19999979751E+02 0.  0.
         12    1    1    2    0    0 -0.49390108301E+01 -0.42981545004E+02  0.34375311596E+01  0.43400733397E+02  0.00000000000E+00 0. -1.
         11    1    3    3    0    0  0.99420909958E+01  0.20768464613E+02  0.12786518570E+01  0.23060989714E+02  0.51100000000E-03 0.  1.
        -11    1    3    3    0    0  0.16385617333E+01  0.54042746495E+01  0.10731843221E+01  0.57482861699E+01  0.51100000000E-03 0. -1.
        -12    1    3    3    0    0 -0.66416418991E+01  0.16808805741E+02 -0.57893673387E+01  0.18977990719E+02  0.00000000000E+00 0.  1.
</event>
<event>
 7    1  0.1418970E-010  0.4778728E+02  0.7816164E-02  0.1312668E+00
        -11   -1    0    0    0    0  0.00000000000E+00  0.00000000000E+00  0.45593999997E+02  0.45594000000E+02  0.51100000000E-03 0.  1.
         11   -1    0    0    0    0 -0.00000000000E+00 -0.00000000000E+00 -0.45593999997E+02  0.45594000000E+02  0.51100000000E-03 0. -1.
    9900012    2    1    2    0    0 -0.10938332465E+02  0.41704270473E+02  0.49728898929E+01  0.47787275045E+02  0.20000018238E+02 0.  0.
         12    1    1    2    0    0  0.10938332465E+02 -0.41704270473E+02 -0.49728898929E+01  0.43400724955E+02  0.00000000000E+00 0. -1.
         11    1    3    3    0    0 -0.86191615705E+01  0.15043216013E+02 -0.54928077641E+01  0.18186787281E+02  0.51100000000E-03 0. -1.
        -11    1    3    3    0    0 -0.25836821948E+01  0.80551901859E+01  0.45689466791E+00  0.84717327397E+01  0.51100000000E-03 0.  1.
        -12    1    3    3    0    0  0.26451130059E+00  0.18605864274E+02  0.10008802989E+02  0.21128755024E+02  0.00000000000E+00 0.  1.
</event>
<event>
 7    1  0.1418970E-010  0.4778727E+02  0.7816164E-02  0.1312668E+00
        -11   -1    0    0    0    0  0.00000000000E+00  0.00000000000E+00  0.45593999997E+02  0.45594000000E+02  0.51100000000E-03 0.  1.
         11   -1    0    0    0    0 -0.00000000000E+00 -0.00000000000E+00 -0.45593999997E+02  0.45594000000E+02  0.51100000000E-03 0. -1.
    9900012    2    1    2    0    0  0.17312430690E+02  0.12092260667E+02  0.37916754972E+02  0.47787270374E+02  0.19999996945E+02 0.  0.
         12    1    1    2    0    0 -0.17312430690E+02 -0.12092260667E+02 -0.37916754972E+02  0.43400729626E+02  0.00000000000E+00 0. -1.
         11    1    3    3    0    0  0.37468030449E-01  0.10529204870E+02  0.84736973522E+01  0.13515513536E+02  0.51100000000E-03 0. -1.
        -11    1    3    3    0    0  0.70558830815E+01  0.14994167549E+01  0.10347849115E+02  0.12613949351E+02  0.51100000000E-03 0.  1.
         12    1    3    3    0    0  0.10219079578E+02  0.63639042305E-01  0.19095208505E+02  0.21657807488E+02  0.00000000000E+00 0. -1.
</event>
<event>
 7    1  0.1418970E-010  0.4778727E+02  0.7816164E-02  0.1312668E+00
        -11   -1    0    0    0    0  0.00000000000E+00  0.00000000000E+00  0.45593999997E+02  0.45594000000E+02  0.51100000000E-03 0.  1.
         11   -1    0    0    0    0 -0.00000000000E+00 -0.00000000000E+00 -0.45593999997E+02  0.45594000000E+02  0.51100000000E-03 0. -1.
    9900012    2    1    2    0    0 -0.25134083352E+02 -0.18193509807E+02  0.30346287430E+02  0.47787272980E+02  0.20000008827E+02 0.  0.
         12    1    1    2    0    0  0.25134083352E+02  0.18193509807E+02 -0.30346287430E+02  0.43400727020E+02  0.00000000000E+00 0. -1.
         11    1    3    3    0    0 -0.10260985587E+02 -0.58890355795E+01  0.13525559039E+02  0.17969677595E+02  0.51100000000E-03 0. -1.
        -11    1    3    3    0    0 -0.17007353997E+02 -0.13885544720E+02  0.14761670849E+02  0.26456858632E+02  0.51100000000E-03 0.  1.
         12    1    3    3    0    0  0.21342562321E+01  0.15810704925E+01  0.20590575415E+01  0.33607367534E+01  0.00000000000E+00 0. -1.
</event>
<event>
 7    1  0.1418970E-010  0.4778728E+02  0.7816164E-02  0.1312668E+00
        -11   -1    0    0    0    0  0.00000000000E+00  0.00000000000E+00  0.45593999997E+02  0.45594000000E+02  0.51100000000E-03 0.  1.
         11   -1    0    0    0    0 -0.00000000000E+00 -0.00000000000E+00 -0.45593999997E+02  0.45594000000E+02  0.51100000000E-03 0. -1.
    9900012    2    1    2    0    0 -0.29732206664E+02  0.25174474457E+02  0.19127584905E+02  0.47787276715E+02  0.20000025855E+02 0.  0.
         12    1    1    2    0    0  0.29732206664E+02 -0.25174474457E+02 -0.19127584905E+02  0.43400723285E+02  0.00000000000E+00 0. -1.
         11    1    3    3    0    0 -0.36250007449E+01 -0.59167012727E+00 -0.11094954048E+01  0.38368847070E+01  0.51100000000E-03 0. -1.
        -11    1    3    3    0    0 -0.19097343904E+02  0.11411763093E+02  0.16061334104E+02  0.27439084069E+02  0.51100000000E-03 0.  1.
         12    1    3    3    0    0 -0.70098620152E+01  0.14354381491E+02  0.41757462063E+01  0.16511307939E+02  0.00000000000E+00 0. -1.
</event>
<event>
 7    1  0.1418970E-010  0.4778727E+02  0.7816164E-02  0.1312668E+00
        -11   -1    0    0    0    0  0.00000000000E+00  0.00000000000E+00  0.45593999997E+02  0.45594000000E+02  0.51100000000E-03 0.  1.
         11   -1    0    0    0    0 -0.00000000000E+00 -0.00000000000E+00 -0.45593999997E+02  0.45594000000E+02  0.51100000000E-03 0. -1.
    9900012    2    1    2    0    0 -0.23265970611E+02  0.12094255800E+02  0.34583912028E+02  0.47787269788E+02  0.19999994270E+02 0.  0.
         12    1    1    2    0    0  0.23265970611E+02 -0.12094255800E+02 -0.34583912028E+02  0.43400730212E+02  0.00000000000E+00 0. -1.
         11    1    3    3    0    0 -0.20125727109E+01  0.55672651907E+01  0.49316152216E+01  0.77049152867E+01  0.51100000000E-03 0. -1.
        -11    1    3    3    0    0 -0.22719540602E+02  0.68854739054E+01  0.30254988683E+02  0.38457139994E+02  0.51100000000E-03 0.  1.
         12    1    3    3    0    0  0.14661427017E+01 -0.35848329593E+00 -0.60269187671E+00  0.16252145069E+01  0.00000000000E+00 0. -1.
</event>
<event>
 7    1  0.1418970E-010  0.4778727E+02  0.7816164E-02  0.1312668E+00
        -11   -1    0    0    0    0  0.00000000000E+00  0.00000000000E+00  0.45593999997E+02  0.45594000000E+02  0.51100000000E-03 0.  1.
         11   -1    0    0    0    0 -0.00000000000E+00 -0.00000000000E+00 -0.45593999997E+02  0.45594000000E+02  0.51100000000E-03 0. -1.
    9900012    2    1    2    0    0  0.27786953691E+01 -0.11573216533E+02  0.41736832342E+02  0.47787266564E+02  0.19999979571E+02 0.  0.
         12    1    1    2    0    0 -0.27786953691E+01  0.11573216533E+02 -0.41736832342E+02  0.43400733436E+02  0.00000000000E+00 0. -1.
         11    1    3    3    0    0  0.20930883206E+00 -0.32444674140E+01 -0.15076659425E+01  0.35837739665E+01  0.51100000000E-03 0. -1.
        -11    1    3    3    0    0  0.20727003892E+01 -0.26139980999E+01  0.13103233806E+02  0.13521235498E+02  0.51100000000E-03 0.  1.
         12    1    3    3    0    0  0.49668614784E+00 -0.57147510187E+01  0.30141264479E+02  0.30682257099E+02  0.00000000000E+00 0. -1.
</event>
<event>
 7    1  0.1418970E-010  0.4778724E+02  0.7816164E-02  0.1312668E+00
        -11   -1    0    0    0    0  0.00000000000E+00  0.00000000000E+00  0.45593999997E+02  0.45594000000E+02  0.51100000000E-03 0.  1.
         11   -1    0    0    0    0 -0.00000000000E+00 -0.00000000000E+00 -0.45593999997E+02  0.45594000000E+02  0.51100000000E-03 0. -1.
    9900012    2    1    2    0    0 -0.22498573953E+02 -0.18026640769E+02  0.32441953473E+02  0.47787240185E+02  0.19999859300E+02 0.  0.
         12    1    1    2    0    0  0.22498573953E+02  0.18026640769E+02 -0.32441953473E+02  0.43400759815E+02  0.00000000000E+00 0. -1.
         11    1    3    3    0    0 -0.99269207970E+01 -0.54916447041E+01  0.74318328319E+01  0.13562229078E+02  0.51100000000E-03 0. -1.
        -11    1    3    3    0    0 -0.10158458910E+02 -0.86931692693E+01  0.26304173669E+02  0.29507203053E+02  0.51100000000E-03 0.  1.
         12    1    3    3    0    0 -0.24131942463E+01 -0.38418267952E+01 -0.12940530274E+01  0.47178080538E+01  0.00000000000E+00 0. -1.
</event>
<event>
 7    1  0.1418970E-010  0.4778727E+02  0.7816164E-02  0.1312668E+00
        -11   -1    0    0    0    0  0.00000000000E+00  0.00000000000E+00  0.45593999997E+02  0.45594000000E+02  0.51100000000E-03 0.  1.
         11   -1    0    0    0    0 -0.00000000000E+00 -0.00000000000E+00 -0.45593999997E+02  0.45594000000E+02  0.51100000000E-03 0. -1.
    9900012    2    1    2    0    0 -0.20715858520E+02  0.15080935089E+02  0.35029157971E+02  0.47787270680E+02  0.19999998339E+02 0.  0.
         12    1    1    2    0    0  0.20715858520E+02 -0.15080935089E+02 -0.35029157971E+02  0.43400729320E+02  0.00000000000E+00 0. -1.
         11    1    3    3    0    0 -0.29292393500E+01  0.57255353915E+00  0.15032220229E+02  0.15325661682E+02  0.51100000000E-03 0. -1.
        -11    1    3    3    0    0 -0.56259019309E+01  0.53596506198E+01  0.14181030590E+02  0.16170289303E+02  0.51100000000E-03 0.  1.
         12    1    3    3    0    0 -0.12160717239E+02  0.91487309298E+01  0.58159071517E+01  0.16291319694E+02  0.00000000000E+00 0. -1.
</event>
<event>
 7    1  0.1418970E-010  0.4778727E+02  0.7816164E-02  0.1312668E+00
        -11   -1    0    0    0    0  0.00000000000E+00  0.00000000000E+00  0.45593999997E+02  0.45594000000E+02  0.51100000000E-03 0.  1.
         11   -1    0    0    0    0 -0.00000000000E+00 -0.00000000000E+00 -0.45593999997E+02  0.45594000000E+02  0.51100000000E-03 0. -1.
    9900012    2    1    2    0    0  0.14445043437E+02 -0.17874371689E+01  0.40887276799E+02  0.47787267108E+02  0.19999982054E+02 0.  0.
         12    1    1    2    0    0 -0.14445043437E+02  0.17874371689E+01 -0.40887276799E+02  0.43400732892E+02  0.00000000000E+00 0. -1.
         11    1    3    3    0    0  0.11573994667E+01  0.39433433757E+00  0.16498185230E+02  0.16543433418E+02  0.51100000000E-03 0.  1.
        -11    1    3    3    0    0  0.82456864972E+01 -0.74403646954E+01  0.92913983501E+01  0.14480347239E+02  0.51100000000E-03 0. -1.
         12    1    3    3    0    0  0.50419574731E+01  0.52585931890E+01  0.15097693219E+02  0.16763486451E+02  0.00000000000E+00 0. -1.
</event>
<event>
 7    1  0.1418970E-010  0.4778728E+02  0.7816164E-02  0.1312668E+00
        -11   -1    0    0    0    0  0.00000000000E+00  0.00000000000E+00  0.45593999997E+02  0.45594000000E+02  0.51100000000E-03 0.  1.
         11   -1    0    0    0    0 -0.00000000000E+00 -0.00000000000E+00 -0.45593999997E+02  0.45594000000E+02  0.51100000000E-03 0. -1.
    9900012    2    1    2    0    0  0.21507688819E+02  0.31783215479E+02  0.20269912386E+02  0.47787276358E+02  0.20000024226E+02 0.  0.
         12    1    1    2    0    0 -0.21507688819E+02 -0.31783215479E+02 -0.20269912386E+02  0.43400723642E+02  0.00000000000E+00 0. -1.
         11    1    3    3    0    0  0.57923113925E+01 -0.39705863315E+00  0.31639912801E+01  0.66120623037E+01  0.51100000000E-03 0. -1.
        -11    1    3    3    0    0  0.14478925885E+02  0.17745717780E+02  0.11637474577E+02  0.25690087760E+02  0.51100000000E-03 0.  1.
        -12    1    3    3    0    0  0.12364515412E+01  0.14434556332E+02  0.54684465290E+01  0.15485126294E+02  0.00000000000E+00 0.  1.
</event>
<event>
 7    1  0.1418970E-010  0.4778727E+02  0.7816164E-02  0.1312668E+00
        -11   -1    0    0    0    0  0.00000000000E+00  0.00000000000E+00  0.45593999997E+02  0.45594000000E+02  0.51100000000E-03 0. -1.
         11   -1    0    0    0    0 -0.00000000000E+00 -0.00000000000E+00 -0.45593999997E+02  0.45594000000E+02  0.51100000000E-03 0.  1.
    9900012    2    1    2    0    0 -0.23593782188E+02  0.24743127965E+02 -0.26734515204E+02  0.47787271405E+02  0.20000001642E+02 0.  0.
         12    1    1    2    0    0  0.23593782188E+02 -0.24743127965E+02  0.26734515204E+02  0.43400728595E+02  0.00000000000E+00 0. -1.
         11    1    3    3    0    0 -0.10355119365E+02  0.63567785698E+01 -0.77792062230E+00  0.12175479112E+02  0.51100000000E-03 0. -1.
        -11    1    3    3    0    0 -0.72262152278E+00  0.33482655175E+01 -0.43384888497E+00  0.34527219635E+01  0.51100000000E-03 0.  1.
        -12    1    3    3    0    0 -0.12516041300E+02  0.15038083877E+02 -0.25522745697E+02  0.32159070329E+02  0.00000000000E+00 0.  1.
</event>
<event>
 7    1  0.1418970E-010  0.4778727E+02  0.7816164E-02  0.1312668E+00
        -11   -1    0    0    0    0  0.00000000000E+00  0.00000000000E+00  0.45593999997E+02  0.45594000000E+02  0.51100000000E-03 0.  1.
         11   -1    0    0    0    0 -0.00000000000E+00 -0.00000000000E+00 -0.45593999997E+02  0.45594000000E+02  0.51100000000E-03 0. -1.
    9900012    2    1    2    0    0  0.14514338882E+02 -0.19110779204E+01  0.40857133258E+02  0.47787267402E+02  0.19999983393E+02 0.  0.
         12    1    1    2    0    0 -0.14514338882E+02  0.19110779204E+01 -0.40857133258E+02  0.43400732598E+02  0.00000000000E+00 0. -1.
         11    1    3    3    0    0  0.12195875539E+02  0.18984519746E+01  0.15745670794E+02  0.20006740092E+02  0.51100000000E-03 0. -1.
        -11    1    3    3    0    0  0.24436006325E+01  0.34902331389E+01  0.63335752081E+01  0.76332880591E+01  0.51100000000E-03 0.  1.
        -12    1    3    3    0    0 -0.12513728943E+00 -0.72997630338E+01  0.18777887255E+02  0.20147239251E+02  0.00000000000E+00 0.  1.
</event>
<event>
 7    1  0.1418970E-010  0.4778727E+02  0.7816164E-02  0.1312668E+00
        -11   -1    0    0    0    0  0.00000000000E+00  0.00000000000E+00  0.45593999997E+02  0.45594000000E+02  0.51100000000E-03 0.  1.
         11   -1    0    0    0    0 -0.00000000000E+00 -0.00000000000E+00 -0.45593999997E+02  0.45594000000E+02  0.51100000000E-03 0. -1.
    9900012    2    1    2    0    0 -0.27227736709E+02  0.23387999943E+02  0.24398264821E+02  0.47787268280E+02  0.19999987394E+02 0.  0.
         12    1    1    2    0    0  0.27227736709E+02 -0.23387999943E+02 -0.24398264821E+02  0.43400731720E+02  0.00000000000E+00 0. -1.
         11    1    3    3    0    0 -0.62773877336E+01  0.11693388611E+02  0.87611193784E+01  0.15902771676E+02  0.51100000000E-03 0. -1.
        -11    1    3    3    0    0 -0.22643850601E+02  0.85766042708E+01  0.14078344793E+02  0.28008961124E+02  0.51100000000E-03 0.  1.
         12    1    3    3    0    0  0.16935016259E+01  0.31180070612E+01  0.15588006497E+01  0.38755354800E+01  0.00000000000E+00 0. -1.
</event>
<event>
 7    1  0.1418970E-010  0.4778727E+02  0.7816164E-02  0.1312668E+00
        -11   -1    0    0    0    0  0.00000000000E+00  0.00000000000E+00  0.45593999997E+02  0.45594000000E+02  0.51100000000E-03 0.  1.
         11   -1    0    0    0    0 -0.00000000000E+00 -0.00000000000E+00 -0.45593999997E+02  0.45594000000E+02  0.51100000000E-03 0. -1.
    9900012    2    1    2    0    0 -0.69872395893E+01  0.27299100867E+01  0.42747505189E+02  0.47787272748E+02  0.20000007766E+02 0.  0.
         12    1    1    2    0    0  0.69872395893E+01 -0.27299100867E+01 -0.42747505189E+02  0.43400727252E+02  0.00000000000E+00 0. -1.
         11    1    3    3    0    0  0.20426379595E+01  0.22014687038E+00 -0.15779874903E+00  0.20605181835E+01  0.51100000000E-03 0. -1.
        -11    1    3    3    0    0  0.88153367707E-01 -0.21814756865E+01  0.24984316860E+02  0.25079527436E+02  0.51100000000E-03 0.  1.
        -12    1    3    3    0    0 -0.91180309165E+01  0.46912389028E+01  0.17920987078E+02  0.20647227128E+02  0.00000000000E+00 0.  1.
</event>
<event>
 7    1  0.1418970E-010  0.4778728E+02  0.7816164E-02  0.1312668E+00
        -11   -1    0    0    0    0  0.00000000000E+00  0.00000000000E+00  0.45593999997E+02  0.45594000000E+02  0.51100000000E-03 0.  1.
         11   -1    0    0    0    0 -0.00000000000E+00 -0.00000000000E+00 -0.45593999997E+02  0.45594000000E+02  0.51100000000E-03 0. -1.
    9900012    2    1    2    0    0  0.85672154765E+00 -0.22746077890E+02  0.36952737325E+02  0.47787276193E+02  0.20000023472E+02 0.  0.
         12    1    1    2    0    0 -0.85672154765E+00  0.22746077890E+02 -0.36952737325E+02  0.43400723807E+02  0.00000000000E+00 0. -1.
         11    1    3    3    0    0  0.22958519983E+00 -0.13083379853E+02  0.11676845644E+02  0.17537852268E+02  0.51100000000E-03 0. -1.
        -11    1    3    3    0    0 -0.24939502517E+01 -0.72770179970E+01  0.25170313462E+02  0.26319564184E+02  0.51100000000E-03 0.  1.
         12    1    3    3    0    0  0.31210865995E+01 -0.23856800408E+01  0.10557821885E+00  0.39298597404E+01  0.00000000000E+00 0. -1.
</event>
<event>
 7    1  0.1432026E-010  0.4778727E+02  0.7816164E-02  0.1312668E+00
        -11   -1    0    0    0    0  0.00000000000E+00  0.00000000000E+00  0.45593999997E+02  0.45594000000E+02  0.51100000000E-03 0. -1.
         11   -1    0    0    0    0 -0.00000000000E+00 -0.00000000000E+00 -0.45593999997E+02  0.45594000000E+02  0.51100000000E-03 0.  1.
    9900012    2    1    2    0    0  0.24670720727E+02  0.78192800482E+01 -0.34840171110E+02  0.47787272764E+02  0.20000007840E+02 0.  0.
         12    1    1    2    0    0 -0.24670720727E+02 -0.78192800482E+01  0.34840171110E+02  0.43400727236E+02  0.00000000000E+00 0. -1.
         11    1    3    3    0    0  0.53180952022E+01 -0.14931853657E+01 -0.31502752208E+01  0.63589286318E+01  0.51100000000E-03 0. -1.
        -11    1    3    3    0    0  0.42968921676E+01  0.98116743447E+01 -0.18637397671E+02  0.21496158447E+02  0.51100000000E-03 0.  1.
        -12    1    3    3    0    0  0.15055733357E+02 -0.49920893074E+00 -0.13052498218E+02  0.19932185686E+02  0.00000000000E+00 0.  1.
</event>
<event>
 7    1  0.1418970E-010  0.4778727E+02  0.7816164E-02  0.1312668E+00
        -11   -1    0    0    0    0  0.00000000000E+00  0.00000000000E+00  0.45593999997E+02  0.45594000000E+02  0.51100000000E-03 0. -1.
         11   -1    0    0    0    0 -0.00000000000E+00 -0.00000000000E+00 -0.45593999997E+02  0.45594000000E+02  0.51100000000E-03 0.  1.
    9900012    2    1    2    0    0  0.31491197206E+02 -0.29361909839E+02 -0.54594869025E+01  0.47787271341E+02  0.20000001353E+02 0.  0.
         12    1    1    2    0    0 -0.31491197206E+02  0.29361909839E+02  0.54594869025E+01  0.43400728659E+02  0.00000000000E+00 0. -1.
         11    1    3    3    0    0  0.28999867014E+01 -0.92147853069E+01  0.34397788963E+01  0.10254475620E+02  0.51100000000E-03 0. -1.
        -11    1    3    3    0    0  0.21831118198E+02 -0.95329793071E+01 -0.68139400069E+01  0.24777110302E+02  0.51100000000E-03 0.  1.
        -12    1    3    3    0    0  0.67600923071E+01 -0.10614145225E+02 -0.20853257918E+01  0.12755685420E+02  0.00000000000E+00 0.  1.
</event>
<event>
 7    1  0.1418970E-010  0.4778727E+02  0.7816164E-02  0.1312668E+00
        -11   -1    0    0    0    0  0.00000000000E+00  0.00000000000E+00  0.45593999997E+02  0.45594000000E+02  0.51100000000E-03 0.  1.
         11   -1    0    0    0    0 -0.00000000000E+00 -0.00000000000E+00 -0.45593999997E+02  0.45594000000E+02  0.51100000000E-03 0. -1.
    9900012    2    1    2    0    0  0.20446873928E+02  0.43496213415E+01  0.38034581371E+02  0.47787271442E+02  0.20000001814E+02 0.  0.
         12    1    1    2    0    0 -0.20446873928E+02 -0.43496213415E+01 -0.38034581371E+02  0.43400728558E+02  0.00000000000E+00 0. -1.
         11    1    3    3    0    0 -0.31489087340E+01  0.16981924164E+01  0.59429617995E+01  0.69367340233E+01  0.51100000000E-03 0. -1.
        -11    1    3    3    0    0  0.87746892479E+01 -0.13531913481E+01  0.17725238316E+02  0.19824489195E+02  0.51100000000E-03 0.  1.
        -12    1    3    3    0    0  0.14821093414E+02  0.40046202732E+01  0.14366381256E+02  0.21026048224E+02  0.00000000000E+00 0.  1.
</event>
<event>
 7    1  0.1418970E-010  0.4778727E+02  0.7816164E-02  0.1312668E+00
        -11   -1    0    0    0    0  0.00000000000E+00  0.00000000000E+00  0.45593999997E+02  0.45594000000E+02  0.51100000000E-03 0.  1.
         11   -1    0    0    0    0 -0.00000000000E+00 -0.00000000000E+00 -0.45593999997E+02  0.45594000000E+02  0.51100000000E-03 0. -1.
    9900012    2    1    2    0    0 -0.21348772670E+02  0.35454475337E+02  0.13070314467E+02  0.47787273782E+02  0.20000012483E+02 0.  0.
         12    1    1    2    0    0  0.21348772670E+02 -0.35454475337E+02 -0.13070314467E+02  0.43400726218E+02  0.00000000000E+00 0. -1.
         11    1    3    3    0    0 -0.27868383569E+01  0.14940875840E+02  0.79396204943E+01  0.17147414171E+02  0.51100000000E-03 0. -1.
        -11    1    3    3    0    0 -0.10886278028E+01  0.71500684159E+01  0.47236242119E+01  0.86383571819E+01  0.51100000000E-03 0.  1.
        -12    1    3    3    0    0 -0.17473306510E+02  0.13363531081E+02  0.40706976089E+00  0.22001502430E+02  0.00000000000E+00 0.  1.
</event>
<event>
 7    1  0.1418970E-010  0.4778727E+02  0.7816164E-02  0.1312668E+00
        -11   -1    0    0    0    0  0.00000000000E+00  0.00000000000E+00  0.45593999997E+02  0.45594000000E+02  0.51100000000E-03 0.  1.
         11   -1    0    0    0    0 -0.00000000000E+00 -0.00000000000E+00 -0.45593999997E+02  0.45594000000E+02  0.51100000000E-03 0. -1.
    9900012    2    1    2    0    0  0.96853266847E+01  0.10044575650E+02  0.41096520433E+02  0.47787273685E+02  0.20000012040E+02 0.  0.
         12    1    1    2    0    0 -0.96853266847E+01 -0.10044575650E+02 -0.41096520433E+02  0.43400726315E+02  0.00000000000E+00 0. -1.
         11    1    3    3    0    0  0.76058941486E+00 -0.41644062851E+01  0.20783230118E+02  0.21209984214E+02  0.51100000000E-03 0.  1.
        -11    1    3    3    0    0  0.53582468122E+01  0.52762970220E+01  0.89184775242E+01  0.11665734472E+02  0.51100000000E-03 0. -1.
        -12    1    3    3    0    0  0.35664904576E+01  0.89326849134E+01  0.11394812790E+02  0.14911554998E+02  0.00000000000E+00 0.  1.
</event>
<event>
 7    1  0.1418970E-010  0.4778725E+02  0.7816164E-02  0.1312668E+00
        -11   -1    0    0    0    0  0.00000000000E+00  0.00000000000E+00  0.45593999997E+02  0.45594000000E+02  0.51100000000E-03 0.  1.
         11   -1    0    0    0    0 -0.00000000000E+00 -0.00000000000E+00 -0.45593999997E+02  0.45594000000E+02  0.51100000000E-03 0. -1.
    9900012    2    1    2    0    0  0.46327118663E+01  0.38085178015E+02  0.20289965788E+02  0.47787245221E+02  0.19999882262E+02 0.  0.
         12    1    1    2    0    0 -0.46327118663E+01 -0.38085178015E+02 -0.20289965788E+02  0.43400754779E+02  0.00000000000E+00 0. -1.
         11    1    3    3    0    0  0.12190852093E+01  0.51654666483E+01  0.79317720671E+01  0.95436482976E+01  0.51100000000E-03 0. -1.
        -11    1    3    3    0    0  0.25959005815E+01 -0.46708259368E+00  0.18891647940E+01  0.32443504525E+01  0.51100000000E-03 0.  1.
        -12    1    3    3    0    0  0.81772607545E+00  0.33386793960E+02  0.10469028927E+02  0.34999246471E+02  0.00000000000E+00 0.  1.
</event>
<event>
 7    1  0.1418970E-010  0.4778727E+02  0.7816164E-02  0.1312668E+00
        -11   -1    0    0    0    0  0.00000000000E+00  0.00000000000E+00  0.45593999997E+02  0.45594000000E+02  0.51100000000E-03 0. -1.
         11   -1    0    0    0    0 -0.00000000000E+00 -0.00000000000E+00 -0.45593999997E+02  0.45594000000E+02  0.51100000000E-03 0.  1.
    9900012    2    1    2    0    0  0.20227708695E+01  0.34868939101E+02 -0.25762156193E+02  0.47787271806E+02  0.20000003472E+02 0.  0.
         12    1    1    2    0    0 -0.20227708695E+01 -0.34868939101E+02  0.25762156193E+02  0.43400728194E+02  0.00000000000E+00 0. -1.
         11    1    3    3    0    0  0.25058016092E+01  0.25210731889E+01 -0.58362154099E-01  0.35550327890E+01  0.51100000000E-03 0. -1.
        -11    1    3    3    0    0  0.15815295748E+01  0.33563918489E+02 -0.24014155395E+02  0.41300333167E+02  0.51100000000E-03 0.  1.
         12    1    3    3    0    0 -0.20645603145E+01 -0.12160525767E+01 -0.16896386448E+01  0.29319058496E+01  0.00000000000E+00 0. -1.
</event>
<event>
 7    1  0.1418970E-010  0.4778727E+02  0.7816164E-02  0.1312668E+00
        -11   -1    0    0    0    0  0.00000000000E+00  0.00000000000E+00  0.45593999997E+02  0.45594000000E+02  0.51100000000E-03 0. -1.
         11   -1    0    0    0    0 -0.00000000000E+00 -0.00000000000E+00 -0.45593999997E+02  0.45594000000E+02  0.51100000000E-03 0.  1.
    9900012    2    1    2    0    0  0.16760781188E+02  0.36931352910E+02 -0.15452329239E+02  0.47787273132E+02  0.20000009517E+02 0.  0.
         12    1    1    2    0    0 -0.16760781188E+02 -0.36931352910E+02  0.15452329239E+02  0.43400726868E+02  0.00000000000E+00 0. -1.
         11    1    3    3    0    0  0.44381922840E+01  0.21340040908E+02 -0.16469236162E+02  0.27319052632E+02  0.51100000000E-03 0. -1.
        -11    1    3    3    0    0  0.60358335633E+01  0.10866569885E+02 -0.57835654066E+00  0.12443798633E+02  0.51100000000E-03 0.  1.
        -12    1    3    3    0    0  0.62867553403E+01  0.47247421167E+01  0.15952634630E+01  0.80244218667E+01  0.00000000000E+00 0.  1.
</event>
<event>
 7    1  0.1418970E-010  0.4778727E+02  0.7816164E-02  0.1312668E+00
        -11   -1    0    0    0    0  0.00000000000E+00  0.00000000000E+00  0.45593999997E+02  0.45594000000E+02  0.51100000000E-03 0.  1.
         11   -1    0    0    0    0 -0.00000000000E+00 -0.00000000000E+00 -0.45593999997E+02  0.45594000000E+02  0.51100000000E-03 0. -1.
    9900012    2    1    2    0    0  0.37950594799E+02  0.70038878530E+01  0.19857522678E+02  0.47787270771E+02  0.19999998754E+02 0.  0.
         12    1    1    2    0    0 -0.37950594799E+02 -0.70038878530E+01 -0.19857522678E+02  0.43400729229E+02  0.00000000000E+00 0. -1.
         11    1    3    3    0    0 -0.20379672851E+01 -0.63123512291E+00  0.11959393778E+01  0.24458208626E+01  0.51100000000E-03 0. -1.
        -11    1    3    3    0    0  0.17181769220E+02  0.68011602649E+01  0.76132089678E+01  0.19985743057E+02  0.51100000000E-03 0.  1.
        -12    1    3    3    0    0  0.22806792864E+02  0.83396271102E+00  0.11048374333E+02  0.25355706852E+02  0.00000000000E+00 0.  1.
</event>
<event>
 7    1  0.1418970E-010  0.4778727E+02  0.7816164E-02  0.1312668E+00
        -11   -1    0    0    0    0  0.00000000000E+00  0.00000000000E+00  0.45593999997E+02  0.45594000000E+02  0.51100000000E-03 0. -1.
         11   -1    0    0    0    0 -0.00000000000E+00 -0.00000000000E+00 -0.45593999997E+02  0.45594000000E+02  0.51100000000E-03 0.  1.
    9900012    2    1    2    0    0  0.67818671414E+00  0.11200581979E+02 -0.41925056376E+02  0.47787270444E+02  0.19999997261E+02 0.  0.
         12    1    1    2    0    0 -0.67818671414E+00 -0.11200581979E+02  0.41925056376E+02  0.43400729556E+02  0.00000000000E+00 0. -1.
         11    1    3    3    0    0 -0.50000485373E+01  0.31685989323E+01 -0.17622730180E+02  0.18590350288E+02  0.51100000000E-03 0. -1.
        -11    1    3    3    0    0  0.62842030741E+01  0.67506108126E+01 -0.25639765988E+02  0.27248111032E+02  0.51100000000E-03 0.  1.
         12    1    3    3    0    0 -0.60596782267E+00  0.12813722343E+01  0.13374397920E+01  0.19488091241E+01  0.00000000000E+00 0. -1.
</event>
<event>
 7    1  0.1418970E-010  0.4778727E+02  0.7816164E-02  0.1312668E+00
        -11   -1    0    0    0    0  0.00000000000E+00  0.00000000000E+00  0.45593999997E+02  0.45594000000E+02  0.51100000000E-03 0. -1.
         11   -1    0    0    0    0 -0.00000000000E+00 -0.00000000000E+00 -0.45593999997E+02  0.45594000000E+02  0.51100000000E-03 0.  1.
    9900012    2    1    2    0    0 -0.31344223101E+02 -0.13702938988E+02 -0.26709406550E+02  0.47787271240E+02  0.20000000890E+02 0.  0.
         12    1    1    2    0    0  0.31344223101E+02  0.13702938988E+02  0.26709406550E+02  0.43400728760E+02  0.00000000000E+00 0. -1.
         11    1    3    3    0    0 -0.15856884396E+02 -0.90832895716E+01 -0.74378585879E+01  0.19729892874E+02  0.51100000000E-03 0. -1.
        -11    1    3    3    0    0 -0.49883432661E+01 -0.45750481779E+01 -0.15479169567E+02  0.16894357790E+02  0.51100000000E-03 0.  1.
         12    1    3    3    0    0 -0.10498995438E+02 -0.44601238952E-01 -0.37923783944E+01  0.11163020576E+02  0.00000000000E+00 0. -1.
</event>
<event>
 7    1  0.1418970E-010  0.4778727E+02  0.7816164E-02  0.1312668E+00
        -11   -1    0    0    0    0  0.00000000000E+00  0.00000000000E+00  0.45593999997E+02  0.45594000000E+02  0.51100000000E-03 0.  1.
         11   -1    0    0    0    0 -0.00000000000E+00 -0.00000000000E+00 -0.45593999997E+02  0.45594000000E+02  0.51100000000E-03 0. -1.
    9900012    2    1    2    0    0 -0.29561543089E+02  0.35591440624E+01  0.31576429179E+02  0.47787271712E+02  0.20000003043E+02 0.  0.
         12    1    1    2    0    0  0.29561543089E+02 -0.35591440624E+01 -0.31576429179E+02  0.43400728288E+02  0.00000000000E+00 0. -1.
         11    1    3    3    0    0 -0.18222691747E+01 -0.24814956926E+00  0.30613595734E+00  0.18643933703E+01  0.51100000000E-03 0. -1.
        -11    1    3    3    0    0 -0.72657918622E+01  0.10251641464E+01  0.22157465248E+02  0.23340864581E+02  0.51100000000E-03 0.  1.
        -12    1    3    3    0    0 -0.20473482052E+02  0.27821294852E+01  0.91128279732E+01  0.22582013761E+02  0.00000000000E+00 0.  1.
</event>
<event>
 7    1  0.1418970E-010  0.4778727E+02  0.7816164E-02  0.1312668E+00
        -11   -1    0    0    0    0  0.00000000000E+00  0.00000000000E+00  0.45593999997E+02  0.45594000000E+02  0.51100000000E-03 0. -1.
         11   -1    0    0    0    0 -0.00000000000E+00 -0.00000000000E+00 -0.45593999997E+02  0.45594000000E+02  0.51100000000E-03 0.  1.
    9900012    2    1    2    0    0 -0.43156291363E+02 -0.16067385701E+01  0.43100097824E+01  0.47787271005E+02  0.19999999818E+02 0.  0.
         12    1    1    2    0    0  0.43156291363E+02  0.16067385701E+01 -0.43100097824E+01  0.43400728995E+02  0.00000000000E+00 0. -1.
         11    1    3    3    0    0 -0.65261042335E+01  0.61693975795E+01  0.22544322230E+00  0.89834474378E+01  0.51100000000E-03 0. -1.
        -11    1    3    3    0    0 -0.86846189467E+01 -0.59422917803E+01  0.20792317128E+01  0.10726445946E+02  0.51100000000E-03 0.  1.
        -12    1    3    3    0    0 -0.27945568183E+02 -0.18338443693E+01  0.20053348473E+01  0.28077377621E+02  0.00000000000E+00 0.  1.
</event>
<event>
 7    1  0.1418970E-010  0.4778727E+02  0.7816164E-02  0.1312668E+00
        -11   -1    0    0    0    0  0.00000000000E+00  0.00000000000E+00  0.45593999997E+02  0.45594000000E+02  0.51100000000E-03 0.  1.
         11   -1    0    0    0    0 -0.00000000000E+00 -0.00000000000E+00 -0.45593999997E+02  0.45594000000E+02  0.51100000000E-03 0. -1.
    9900012    2    1    2    0    0 -0.37765315245E+02 -0.15487186209E+02  0.14749617461E+02  0.47787272039E+02  0.20000004536E+02 0.  0.
         12    1    1    2    0    0  0.37765315245E+02  0.15487186209E+02 -0.14749617461E+02  0.43400727961E+02  0.00000000000E+00 0. -1.
         11    1    3    3    0    0 -0.96432076334E+01 -0.10196203618E+02  0.11368910314E+02  0.18061177804E+02  0.51100000000E-03 0. -1.
        -11    1    3    3    0    0 -0.11621682396E+02 -0.30579595783E+01 -0.20939640083E+01  0.12198332019E+02  0.51100000000E-03 0.  1.
        -12    1    3    3    0    0 -0.16500425216E+02 -0.22330230132E+01  0.54746711556E+01  0.17527762217E+02  0.00000000000E+00 0.  1.
</event>
<event>
 7    1  0.1418970E-010  0.4778727E+02  0.7816164E-02  0.1312668E+00
        -11   -1    0    0    0    0  0.00000000000E+00  0.00000000000E+00  0.45593999997E+02  0.45594000000E+02  0.51100000000E-03 0. -1.
         11   -1    0    0    0    0 -0.00000000000E+00 -0.00000000000E+00 -0.45593999997E+02  0.45594000000E+02  0.51100000000E-03 0.  1.
    9900012    2    1    2    0    0  0.77256536063E+01  0.12414696720E+02 -0.40863341118E+02  0.47787273444E+02  0.20000010940E+02 0.  0.
         12    1    1    2    0    0 -0.77256536063E+01 -0.12414696720E+02  0.40863341118E+02  0.43400726556E+02  0.00000000000E+00 0. -1.
         11    1    3    3    0    0 -0.14108757187E+01 -0.28971358130E+01 -0.22335192377E+01  0.39207875049E+01  0.51100000000E-03 0.  1.
        -11    1    3    3    0    0  0.47321548652E+01  0.71371111044E+01 -0.75071546969E+01  0.11388108556E+02  0.51100000000E-03 0. -1.
        -12    1    3    3    0    0  0.44043744598E+01  0.81747214286E+01 -0.31122667183E+02  0.32478377383E+02  0.00000000000E+00 0.  1.
</event>
<event>
 7    1  0.1475429E-010  0.4778726E+02  0.7816164E-02  0.1312668E+00
        -11   -1    0    0    0    0  0.00000000000E+00  0.00000000000E+00  0.45593999997E+02  0.45594000000E+02  0.51100000000E-03 0. -1.
         11   -1    0    0    0    0 -0.00000000000E+00 -0.00000000000E+00 -0.45593999997E+02  0.45594000000E+02  0.51100000000E-03 0.  1.
    9900012    2    1    2    0    0  0.36877136882E+02 -0.22858456259E+02  0.10916268103E+01  0.47787263875E+02  0.19999967310E+02 0.  0.
         12    1    1    2    0    0 -0.36877136882E+02  0.22858456259E+02 -0.10916268103E+01  0.43400736125E+02  0.00000000000E+00 0. -1.
         11    1    3    3    0    0 -0.36363010461E-01 -0.43627918262E+01  0.62365340875E+00  0.44072915291E+01  0.51100000000E-03 0. -1.
        -11    1    3    3    0    0  0.14016206381E+02 -0.58920553221E+00 -0.21595217530E+01  0.14193827494E+02  0.51100000000E-03 0.  1.
        -12    1    3    3    0    0  0.22897293511E+02 -0.17906458901E+02  0.26274951545E+01  0.29186144852E+02  0.00000000000E+00 0.  1.
</event>
<event>
 7    1  0.1418970E-010  0.4778727E+02  0.7816164E-02  0.1312668E+00
        -11   -1    0    0    0    0  0.00000000000E+00  0.00000000000E+00  0.45593999997E+02  0.45594000000E+02  0.51100000000E-03 0. -1.
         11   -1    0    0    0    0 -0.00000000000E+00 -0.00000000000E+00 -0.45593999997E+02  0.45594000000E+02  0.51100000000E-03 0.  1.
    9900012    2    1    2    0    0 -0.27856990668E+02 -0.39575575281E+01 -0.33044649217E+02  0.47787273825E+02  0.20000012676E+02 0.  0.
         12    1    1    2    0    0  0.27856990668E+02  0.39575575281E+01  0.33044649217E+02  0.43400726175E+02  0.00000000000E+00 0. -1.
         11    1    3    3    0    0 -0.21277914699E+01  0.31319264673E+00 -0.11336389160E+02  0.11538600679E+02  0.51100000000E-03 0. -1.
        -11    1    3    3    0    0 -0.81592055561E+01 -0.75587524965E+01 -0.75018760471E+01  0.13415868183E+02  0.51100000000E-03 0.  1.
         12    1    3    3    0    0 -0.17569993642E+02  0.32880023217E+01 -0.14206384010E+02  0.22832804963E+02  0.00000000000E+00 0. -1.
</event>
<event>
 7    1  0.1418970E-010  0.4778727E+02  0.7816164E-02  0.1312668E+00
        -11   -1    0    0    0    0  0.00000000000E+00  0.00000000000E+00  0.45593999997E+02  0.45594000000E+02  0.51100000000E-03 0.  1.
         11   -1    0    0    0    0 -0.00000000000E+00 -0.00000000000E+00 -0.45593999997E+02  0.45594000000E+02  0.51100000000E-03 0. -1.
    9900012    2    1    2    0    0  0.34748688321E+02  0.17226665984E+02  0.19478041061E+02  0.47787269079E+02  0.19999991038E+02 0.  0.
         12    1    1    2    0    0 -0.34748688321E+02 -0.17226665984E+02 -0.19478041061E+02  0.43400730921E+02  0.00000000000E+00 0. -1.
         11    1    3    3    0    0  0.12080955303E+02  0.12122607422E+02  0.45991396334E+01  0.17721714854E+02  0.51100000000E-03 0. -1.
        -11    1    3    3    0    0  0.19125088136E+02  0.86031775900E+01  0.10587502965E+02  0.23492102505E+02  0.51100000000E-03 0.  1.
        -12    1    3    3    0    0  0.35426448824E+01 -0.34991190285E+01  0.42913984626E+01  0.65734517191E+01  0.00000000000E+00 0.  1.
</event>
<event>
 7    1  0.1418970E-010  0.4778728E+02  0.7816164E-02  0.1312668E+00
        -11   -1    0    0    0    0  0.00000000000E+00  0.00000000000E+00  0.45593999997E+02  0.45594000000E+02  0.51100000000E-03 0.  1.
         11   -1    0    0    0    0 -0.00000000000E+00 -0.00000000000E+00 -0.45593999997E+02  0.45594000000E+02  0.51100000000E-03 0. -1.
    9900012    2    1    2    0    0  0.21731291709E+02  0.13557902533E+02  0.35036504961E+02  0.47787280647E+02  0.20000043784E+02 0.  0.
         12    1    1    2    0    0 -0.21731291709E+02 -0.13557902533E+02 -0.35036504961E+02  0.43400719353E+02  0.00000000000E+00 0. -1.
         11    1    3    3    0    0  0.66357398222E+01  0.15882747819E+00  0.53159417952E+01  0.85039700486E+01  0.51100000000E-03 0. -1.
        -11    1    3    3    0    0  0.10614887393E+02  0.16747522646E+02  0.20662196258E+02  0.28637068698E+02  0.51100000000E-03 0.  1.
         12    1    3    3    0    0  0.44806644934E+01 -0.33484475913E+01  0.90583669082E+01  0.10646241901E+02  0.00000000000E+00 0. -1.
</event>
<event>
 7    1  0.1418970E-010  0.4778727E+02  0.7816164E-02  0.1312668E+00
        -11   -1    0    0    0    0  0.00000000000E+00  0.00000000000E+00  0.45593999997E+02  0.45594000000E+02  0.51100000000E-03 0. -1.
         11   -1    0    0    0    0 -0.00000000000E+00 -0.00000000000E+00 -0.45593999997E+02  0.45594000000E+02  0.51100000000E-03 0.  1.
    9900012    2    1    2    0    0  0.35535753207E+02  0.24497024672E+02 -0.45529504372E+01  0.47787270381E+02  0.19999996974E+02 0.  0.
         12    1    1    2    0    0 -0.35535753207E+02 -0.24497024672E+02  0.45529504372E+01  0.43400729619E+02  0.00000000000E+00 0. -1.
         11    1    3    3    0    0  0.34600987616E+02  0.20777461586E+02  0.45306560816E+00  0.40362563381E+02  0.51100000000E-03 0. -1.
        -11    1    3    3    0    0 -0.12676174406E+00 -0.62150405733E+00 -0.18444674586E+01  0.19504861702E+01  0.51100000000E-03 0.  1.
        -12    1    3    3    0    0  0.10615273355E+01  0.43410671430E+01 -0.31615485867E+01  0.54742208295E+01  0.00000000000E+00 0.  1.
</event>
<event>
 7    1  0.1418970E-010  0.4778727E+02  0.7816164E-02  0.1312668E+00
        -11   -1    0    0    0    0  0.00000000000E+00  0.00000000000E+00  0.45593999997E+02  0.45594000000E+02  0.51100000000E-03 0.  1.
         11   -1    0    0    0    0 -0.00000000000E+00 -0.00000000000E+00 -0.45593999997E+02  0.45594000000E+02  0.51100000000E-03 0. -1.
    9900012    2    1    2    0    0  0.93758017939E+01  0.14003164484E+02  0.39995363484E+02  0.47787269879E+02  0.19999994685E+02 0.  0.
         12    1    1    2    0    0 -0.93758017939E+01 -0.14003164484E+02 -0.39995363484E+02  0.43400730121E+02  0.00000000000E+00 0. -1.
         11    1    3    3    0    0  0.42354038336E+01  0.12769851400E+02  0.92529880979E+01  0.16328672310E+02  0.51100000000E-03 0. -1.
        -11    1    3    3    0    0  0.10779719922E+01  0.22210086327E+01  0.12757962518E+02  0.12994633925E+02  0.51100000000E-03 0.  1.
         12    1    3    3    0    0  0.40624259682E+01 -0.98769554832E+00  0.17984412868E+02  0.18463963644E+02  0.00000000000E+00 0. -1.
</event>
<event>
 7    1  0.1418970E-010  0.4778727E+02  0.7816164E-02  0.1312668E+00
        -11   -1    0    0    0    0  0.00000000000E+00  0.00000000000E+00  0.45593999997E+02  0.45594000000E+02  0.51100000000E-03 0. -1.
         11   -1    0    0    0    0 -0.00000000000E+00 -0.00000000000E+00 -0.45593999997E+02  0.45594000000E+02  0.51100000000E-03 0.  1.
    9900012    2    1    2    0    0 -0.21984581239E+02 -0.36912899856E+02 -0.61432268304E+01  0.47787271620E+02  0.20000002624E+02 0.  0.
         12    1    1    2    0    0  0.21984581239E+02  0.36912899856E+02  0.61432268304E+01  0.43400728380E+02  0.00000000000E+00 0. -1.
         11    1    3    3    0    0 -0.38153231673E+01 -0.46615668322E+00  0.29722539755E+00  0.38551700510E+01  0.51100000000E-03 0. -1.
        -11    1    3    3    0    0 -0.19733079702E+02 -0.34941084260E+02 -0.35047845591E+01  0.40280979616E+02  0.51100000000E-03 0.  1.
         12    1    3    3    0    0  0.15638216299E+01 -0.15056589125E+01 -0.29356676689E+01  0.36511219526E+01  0.00000000000E+00 0. -1.
</event>
<event>
 7    1  0.1418970E-010  0.4778727E+02  0.7816164E-02  0.1312668E+00
        -11   -1    0    0    0    0  0.00000000000E+00  0.00000000000E+00  0.45593999997E+02  0.45594000000E+02  0.51100000000E-03 0. -1.
         11   -1    0    0    0    0 -0.00000000000E+00 -0.00000000000E+00 -0.45593999997E+02  0.45594000000E+02  0.51100000000E-03 0.  1.
    9900012    2    1    2    0    0  0.14982769533E+02  0.20290380333E+02 -0.35319123504E+02  0.47787269568E+02  0.19999993270E+02 0.  0.
         12    1    1    2    0    0 -0.14982769533E+02 -0.20290380333E+02  0.35319123504E+02  0.43400730432E+02  0.00000000000E+00 0. -1.
         11    1    3    3    0    0  0.24917589725E+01  0.42688879711E+01 -0.14261529855E+01  0.51445291219E+01  0.51100000000E-03 0. -1.
        -11    1    3    3    0    0  0.71147108582E+01  0.18584280032E+02 -0.25321084996E+02  0.32204843122E+02  0.51100000000E-03 0.  1.
         12    1    3    3    0    0  0.53762997026E+01 -0.25627876706E+01 -0.85718855224E+01  0.10437897324E+02  0.00000000000E+00 0. -1.
</event>
<event>
 7    1  0.1418970E-010  0.4778727E+02  0.7816164E-02  0.1312668E+00
        -11   -1    0    0    0    0  0.00000000000E+00  0.00000000000E+00  0.45593999997E+02  0.45594000000E+02  0.51100000000E-03 0.  1.
         11   -1    0    0    0    0 -0.00000000000E+00 -0.00000000000E+00 -0.45593999997E+02  0.45594000000E+02  0.51100000000E-03 0. -1.
    9900012    2    1    2    0    0  0.35149197697E+02 -0.37550201040E+01  0.25180494353E+02  0.47787267627E+02  0.19999984418E+02 0.  0.
         12    1    1    2    0    0 -0.35149197697E+02  0.37550201040E+01 -0.25180494353E+02  0.43400732373E+02  0.00000000000E+00 0. -1.
         11    1    3    3    0    0  0.18591082893E+02  0.48243523792E+01  0.68354167062E+01  0.20386899244E+02  0.51100000000E-03 0. -1.
        -11    1    3    3    0    0  0.60399192636E+01 -0.55401066197E+00  0.10190576495E+02  0.11858979808E+02  0.51100000000E-03 0.  1.
        -12    1    3    3    0    0  0.10518195540E+02 -0.80253618212E+01  0.81545011511E+01  0.15541388574E+02  0.00000000000E+00 0.  1.
</event>
<event>
 7    1  0.1418970E-010  0.4778727E+02  0.7816164E-02  0.1312668E+00
        -11   -1    0    0    0    0  0.00000000000E+00  0.00000000000E+00  0.45593999997E+02  0.45594000000E+02  0.51100000000E-03 0.  1.
         11   -1    0    0    0    0 -0.00000000000E+00 -0.00000000000E+00 -0.45593999997E+02  0.45594000000E+02  0.51100000000E-03 0. -1.
    9900012    2    1    2    0    0  0.18652552380E+01  0.53250386750E+01  0.43032406295E+02  0.47787271831E+02  0.20000003588E+02 0.  0.
         12    1    1    2    0    0 -0.18652552380E+01 -0.53250386750E+01 -0.43032406295E+02  0.43400728169E+02  0.00000000000E+00 0. -1.
         11    1    3    3    0    0  0.26525839566E+01 -0.21924967789E+01  0.49294524130E+01  0.60118836587E+01  0.51100000000E-03 0.  1.
        -11    1    3    3    0    0  0.27061101122E+00  0.10841889577E+02  0.36224548851E+02  0.37813195311E+02  0.51100000000E-03 0. -1.
         12    1    3    3    0    0 -0.10579397298E+01 -0.33243541235E+01  0.18784050316E+01  0.39621928617E+01  0.00000000000E+00 0. -1.
</event>
<event>
 7    1  0.1418970E-010  0.4778727E+02  0.7816164E-02  0.1312668E+00
        -11   -1    0    0    0    0  0.00000000000E+00  0.00000000000E+00  0.45593999997E+02  0.45594000000E+02  0.51100000000E-03 0.  1.
         11   -1    0    0    0    0 -0.00000000000E+00 -0.00000000000E+00 -0.45593999997E+02  0.45594000000E+02  0.51100000000E-03 0. -1.
    9900012    2    1    2    0    0  0.32156190965E+02  0.28994625051E+02 -0.29856837259E+01  0.47787271820E+02  0.20000003536E+02 0.  0.
         12    1    1    2    0    0 -0.32156190965E+02 -0.28994625051E+02  0.29856837259E+01  0.43400728180E+02  0.00000000000E+00 0. -1.
         11    1    3    3    0    0  0.63918161275E+01  0.48100466483E+01 -0.46981484946E+01  0.92770933867E+01  0.51100000000E-03 0. -1.
        -11    1    3    3    0    0  0.20196088202E+02  0.15461760061E+02  0.76735480029E+01  0.26567486559E+02  0.51100000000E-03 0.  1.
         12    1    3    3    0    0  0.55682866357E+01  0.87228183420E+01 -0.59610832342E+01  0.11942691875E+02  0.00000000000E+00 0. -1.
</event>
<event>
 7    1  0.1418970E-010  0.4778727E+02  0.7816164E-02  0.1312668E+00
        -11   -1    0    0    0    0  0.00000000000E+00  0.00000000000E+00  0.45593999997E+02  0.45594000000E+02  0.51100000000E-03 0.  1.
         11   -1    0    0    0    0 -0.00000000000E+00 -0.00000000000E+00 -0.45593999997E+02  0.45594000000E+02  0.51100000000E-03 0. -1.
    9900012    2    1    2    0    0 -0.43525247802E+01  0.34822668962E+01  0.43041289086E+02  0.47787271655E+02  0.20000002786E+02 0.  0.
         12    1    1    2    0    0  0.43525247802E+01 -0.34822668962E+01 -0.43041289086E+02  0.43400728345E+02  0.00000000000E+00 0. -1.
         11    1    3    3    0    0  0.62506698992E+01  0.66608048106E-01  0.72693907133E+01  0.95874580795E+01  0.51100000000E-03 0. -1.
        -11    1    3    3    0    0 -0.35525162346E+01  0.31036500727E+01  0.24121669934E+02  0.24578608098E+02  0.51100000000E-03 0.  1.
        -12    1    3    3    0    0 -0.70506784448E+01  0.31200877538E+00  0.11650228438E+02  0.13621205478E+02  0.00000000000E+00 0.  1.
</event>
<event>
 7    1  0.1418970E-010  0.4778727E+02  0.7816164E-02  0.1312668E+00
        -11   -1    0    0    0    0  0.00000000000E+00  0.00000000000E+00  0.45593999997E+02  0.45594000000E+02  0.51100000000E-03 0. -1.
         11   -1    0    0    0    0 -0.00000000000E+00 -0.00000000000E+00 -0.45593999997E+02  0.45594000000E+02  0.51100000000E-03 0.  1.
    9900012    2    1    2    0    0 -0.29637957721E+02 -0.28711722700E+02  0.13448113369E+02  0.47787270612E+02  0.19999998026E+02 0.  0.
         12    1    1    2    0    0  0.29637957721E+02  0.28711722700E+02 -0.13448113369E+02  0.43400729388E+02  0.00000000000E+00 0. -1.
         11    1    3    3    0    0 -0.79142102960E+01 -0.49033343262E+00  0.82195825976E+01  0.11420888312E+02  0.51100000000E-03 0. -1.
        -11    1    3    3    0    0 -0.38217758300E+01 -0.35316774114E+01 -0.84127463305E+00  0.52712862853E+01  0.51100000000E-03 0.  1.
        -12    1    3    3    0    0 -0.17901971595E+02 -0.24689711856E+02  0.60698054046E+01  0.31095096015E+02  0.00000000000E+00 0.  1.
</event>
<event>
 7    1  0.1418970E-010  0.4778730E+02  0.7816164E-02  0.1312668E+00
        -11   -1    0    0    0    0  0.00000000000E+00  0.00000000000E+00  0.45593999997E+02  0.45594000000E+02  0.51100000000E-03 0.  1.
         11   -1    0    0    0    0 -0.00000000000E+00 -0.00000000000E+00 -0.45593999997E+02  0.45594000000E+02  0.51100000000E-03 0. -1.
    9900012    2    1    2    0    0 -0.22007935902E+02 -0.35047166108E+02  0.13075456204E+02  0.47787301275E+02  0.20000137832E+02 0.  0.
         12    1    1    2    0    0  0.22007935902E+02  0.35047166108E+02 -0.13075456204E+02  0.43400698725E+02  0.00000000000E+00 0. -1.
         11    1    3    3    0    0 -0.66343123392E+00 -0.60705274096E+01 -0.28716942608E+00  0.61134205297E+01  0.51100000000E-03 0. -1.
        -11    1    3    3    0    0 -0.12226812705E+02 -0.17072922508E+02 -0.84631683305E+00  0.21016562144E+02  0.51100000000E-03 0.  1.
        -12    1    3    3    0    0 -0.91176919631E+01 -0.11903716191E+02  0.14208942463E+02  0.20657318601E+02  0.00000000000E+00 0.  1.
</event>
<event>
 7    1  0.1418970E-010  0.4778727E+02  0.7816164E-02  0.1312668E+00
        -11   -1    0    0    0    0  0.00000000000E+00  0.00000000000E+00  0.45593999997E+02  0.45594000000E+02  0.51100000000E-03 0.  1.
         11   -1    0    0    0    0 -0.00000000000E+00 -0.00000000000E+00 -0.45593999997E+02  0.45594000000E+02  0.51100000000E-03 0. -1.
    9900012    2    1    2    0    0  0.93095684270E+01 -0.73663127663E+01  0.41745566766E+02  0.47787274515E+02  0.20000015823E+02 0.  0.
         12    1    1    2    0    0 -0.93095684270E+01  0.73663127663E+01 -0.41745566766E+02  0.43400725485E+02  0.00000000000E+00 0. -1.
         11    1    3    3    0    0  0.58953650796E+01 -0.46517093108E-01  0.71256154637E+01  0.92483452174E+01  0.51100000000E-03 0. -1.
        -11    1    3    3    0    0 -0.38583725682E+01 -0.25005564232E+01  0.25525821376E+02  0.25936603063E+02  0.51100000000E-03 0.  1.
        -12    1    3    3    0    0  0.72725759156E+01 -0.48192392500E+01  0.90941299262E+01  0.12602326234E+02  0.00000000000E+00 0.  1.
</event>
<event>
 7    1  0.1418970E-010  0.4778727E+02  0.7816164E-02  0.1312668E+00
        -11   -1    0    0    0    0  0.00000000000E+00  0.00000000000E+00  0.45593999997E+02  0.45594000000E+02  0.51100000000E-03 0.  1.
         11   -1    0    0    0    0 -0.00000000000E+00 -0.00000000000E+00 -0.45593999997E+02  0.45594000000E+02  0.51100000000E-03 0. -1.
    9900012    2    1    2    0    0  0.40117998535E+02  0.10697570483E+02 -0.12638482961E+02  0.47787273367E+02  0.20000010592E+02 0.  0.
         12    1    1    2    0    0 -0.40117998535E+02 -0.10697570483E+02  0.12638482961E+02  0.43400726633E+02  0.00000000000E+00 0. -1.
         11    1    3    3    0    0  0.15612491189E+02  0.11114458013E+02 -0.49196538847E+01  0.19785955945E+02  0.51100000000E-03 0.  1.
        -11    1    3    3    0    0  0.18231813663E+02  0.18677770249E+01 -0.73877555497E+00  0.18342121198E+02  0.51100000000E-03 0. -1.
        -12    1    3    3    0    0  0.62736936831E+01 -0.22846645542E+01 -0.69800535211E+01  0.96591962250E+01  0.00000000000E+00 0.  1.
</event>
<event>
 7    1  0.1418970E-010  0.4778727E+02  0.7816164E-02  0.1312668E+00
        -11   -1    0    0    0    0  0.00000000000E+00  0.00000000000E+00  0.45593999997E+02  0.45594000000E+02  0.51100000000E-03 0. -1.
         11   -1    0    0    0    0 -0.00000000000E+00 -0.00000000000E+00 -0.45593999997E+02  0.45594000000E+02  0.51100000000E-03 0.  1.
    9900012    2    1    2    0    0 -0.20003708955E+02 -0.24597816826E+02 -0.29638193249E+02  0.47787268858E+02  0.19999990031E+02 0.  0.
         12    1    1    2    0    0  0.20003708955E+02  0.24597816826E+02  0.29638193249E+02  0.43400731142E+02  0.00000000000E+00 0. -1.
         11    1    3    3    0    0 -0.43356328556E+01 -0.18542905425E+01  0.40061138176E+00  0.47325041379E+01  0.51100000000E-03 0. -1.
        -11    1    3    3    0    0  0.12473350575E+01 -0.61571120758E+01 -0.10977431404E+02  0.12647919764E+02  0.51100000000E-03 0.  1.
         12    1    3    3    0    0 -0.16915411157E+02 -0.16586414208E+02 -0.19061373227E+02  0.30406844956E+02  0.00000000000E+00 0. -1.
</event>
<event>
 7    1  0.1418970E-010  0.4778724E+02  0.7816164E-02  0.1312668E+00
        -11   -1    0    0    0    0  0.00000000000E+00  0.00000000000E+00  0.45593999997E+02  0.45594000000E+02  0.51100000000E-03 0.  1.
         11   -1    0    0    0    0 -0.00000000000E+00 -0.00000000000E+00 -0.45593999997E+02  0.45594000000E+02  0.51100000000E-03 0. -1.
    9900012    2    1    2    0    0 -0.10283258831E+02 -0.49664231885E+01  0.41871412918E+02  0.47787239739E+02  0.19999857264E+02 0.  0.
         12    1    1    2    0    0  0.10283258831E+02  0.49664231885E+01 -0.41871412918E+02  0.43400760261E+02  0.00000000000E+00 0. -1.
         11    1    3    3    0    0 -0.12627814178E+02  0.17234103904E+01  0.13948420448E+02  0.18894186078E+02  0.51100000000E-03 0. -1.
        -11    1    3    3    0    0  0.11691091500E+01 -0.23824781511E+01  0.14671662555E+02  0.14909751867E+02  0.51100000000E-03 0.  1.
         12    1    3    3    0    0  0.11754461965E+01 -0.43073554277E+01  0.13251329916E+02  0.13983301794E+02  0.00000000000E+00 0. -1.
</event>
<event>
 7    1  0.1418970E-010  0.4778727E+02  0.7816164E-02  0.1312668E+00
        -11   -1    0    0    0    0  0.00000000000E+00  0.00000000000E+00  0.45593999997E+02  0.45594000000E+02  0.51100000000E-03 0. -1.
         11   -1    0    0    0    0 -0.00000000000E+00 -0.00000000000E+00 -0.45593999997E+02  0.45594000000E+02  0.51100000000E-03 0.  1.
    9900012    2    1    2    0    0  0.40701024120E+02 -0.12901172348E+02 -0.77852286769E+01  0.47787269615E+02  0.19999993482E+02 0.  0.
         12    1    1    2    0    0 -0.40701024120E+02  0.12901172348E+02  0.77852286769E+01  0.43400730385E+02  0.00000000000E+00 0. -1.
         11    1    3    3    0    0  0.88854770139E+01 -0.42226430307E+01 -0.24517030921E+01  0.10138701309E+02  0.51100000000E-03 0. -1.
        -11    1    3    3    0    0  0.33441997954E+02 -0.61055514211E+01 -0.60313307037E+01  0.34525670676E+02  0.51100000000E-03 0.  1.
         12    1    3    3    0    0 -0.16264508479E+01 -0.25729778965E+01  0.69780511890E+00  0.31228976289E+01  0.00000000000E+00 0. -1.
</event>
<event>
 7    1  0.1418970E-010  0.4778727E+02  0.7816164E-02  0.1312668E+00
        -11   -1    0    0    0    0  0.00000000000E+00  0.00000000000E+00  0.45593999997E+02  0.45594000000E+02  0.51100000000E-03 0.  1.
         11   -1    0    0    0    0 -0.00000000000E+00 -0.00000000000E+00 -0.45593999997E+02  0.45594000000E+02  0.51100000000E-03 0. -1.
    9900012    2    1    2    0    0 -0.17341679119E+02  0.19132690510E+02  0.34883086055E+02  0.47787269896E+02  0.19999994764E+02 0.  0.
         12    1    1    2    0    0  0.17341679119E+02 -0.19132690510E+02 -0.34883086055E+02  0.43400730104E+02  0.00000000000E+00 0. -1.
         11    1    3    3    0    0 -0.44471992307E+01  0.40390740100E+01  0.17568241947E+02  0.18567035984E+02  0.51100000000E-03 0. -1.
        -11    1    3    3    0    0 -0.14130172729E+02  0.81594738023E+01  0.13688087294E+02  0.21297946570E+02  0.51100000000E-03 0.  1.
         12    1    3    3    0    0  0.12356928404E+01  0.69341426974E+01  0.36267568149E+01  0.79222873426E+01  0.00000000000E+00 0. -1.
</event>
<event>
 7    1  0.1418970E-010  0.4778727E+02  0.7816164E-02  0.1312668E+00
        -11   -1    0    0    0    0  0.00000000000E+00  0.00000000000E+00  0.45593999997E+02  0.45594000000E+02  0.51100000000E-03 0.  1.
         11   -1    0    0    0    0 -0.00000000000E+00 -0.00000000000E+00 -0.45593999997E+02  0.45594000000E+02  0.51100000000E-03 0. -1.
    9900012    2    1    2    0    0  0.24037409504E+01  0.41816692367E+02  0.11367034288E+02  0.47787271900E+02  0.20000003901E+02 0.  0.
         12    1    1    2    0    0 -0.24037409504E+01 -0.41816692367E+02 -0.11367034288E+02  0.43400728100E+02  0.00000000000E+00 0. -1.
         11    1    3    3    0    0  0.19229527279E+01  0.88989550732E+01  0.87639482448E+01  0.12637085807E+02  0.51100000000E-03 0. -1.
        -11    1    3    3    0    0 -0.54684736843E+01  0.10367247346E+02  0.46470196152E+00  0.11730301366E+02  0.51100000000E-03 0.  1.
        -12    1    3    3    0    0  0.59492619068E+01  0.22550489949E+02  0.21383840817E+01  0.23419884727E+02  0.00000000000E+00 0.  1.
</event>
<event>
 7    1  0.1418970E-010  0.4778727E+02  0.7816164E-02  0.1312668E+00
        -11   -1    0    0    0    0  0.00000000000E+00  0.00000000000E+00  0.45593999997E+02  0.45594000000E+02  0.51100000000E-03 0.  1.
         11   -1    0    0    0    0 -0.00000000000E+00 -0.00000000000E+00 -0.45593999997E+02  0.45594000000E+02  0.51100000000E-03 0. -1.
    9900012    2    1    2    0    0 -0.12393119313E+02 -0.23780985382E+02  0.34124749784E+02  0.47787271667E+02  0.20000002836E+02 0.  0.
         12    1    1    2    0    0  0.12393119313E+02  0.23780985382E+02 -0.34124749784E+02  0.43400728333E+02  0.00000000000E+00 0. -1.
         11    1    3    3    0    0 -0.37969849398E+01 -0.21156285977E+01  0.15722818627E+02  0.16312571987E+02  0.51100000000E-03 0. -1.
        -11    1    3    3    0    0 -0.93396976163E+01 -0.11864602267E+02  0.14390539760E+02  0.20858724154E+02  0.51100000000E-03 0.  1.
         12    1    3    3    0    0  0.74356324263E+00 -0.98007545175E+01  0.40113913975E+01  0.10615975525E+02  0.00000000000E+00 0. -1.
</event>
<event>
 7    1  0.1418970E-010  0.4778725E+02  0.7816164E-02  0.1312668E+00
        -11   -1    0    0    0    0  0.00000000000E+00  0.00000000000E+00  0.45593999997E+02  0.45594000000E+02  0.51100000000E-03 0. -1.
         11   -1    0    0    0    0 -0.00000000000E+00 -0.00000000000E+00 -0.45593999997E+02  0.45594000000E+02  0.51100000000E-03 0.  1.
    9900012    2    1    2    0    0 -0.15238956196E+02  0.39536682796E+02  0.93941444437E+01  0.47787250901E+02  0.19999908160E+02 0.  0.
         12    1    1    2    0    0  0.15238956196E+02 -0.39536682796E+02 -0.93941444437E+01  0.43400749099E+02  0.00000000000E+00 0. -1.
         11    1    3    3    0    0  0.19424659870E+01  0.62934169674E+01  0.57858639171E+01  0.87667834902E+01  0.51100000000E-03 0. -1.
        -11    1    3    3    0    0 -0.76043133430E+01  0.53653859455E+01 -0.12850115065E+00  0.93074948600E+01  0.51100000000E-03 0.  1.
         12    1    3    3    0    0 -0.95771088403E+01  0.27877879883E+02  0.37367816772E+01  0.29712972551E+02  0.00000000000E+00 0. -1.
</event>
<event>
 7    1  0.1418970E-010  0.4778727E+02  0.7816164E-02  0.1312668E+00
        -11   -1    0    0    0    0  0.00000000000E+00  0.00000000000E+00  0.45593999997E+02  0.45594000000E+02  0.51100000000E-03 0.  1.
         11   -1    0    0    0    0 -0.00000000000E+00 -0.00000000000E+00 -0.45593999997E+02  0.45594000000E+02  0.51100000000E-03 0. -1.
    9900012    2    1    2    0    0  0.33055664447E+02 -0.91631955639E+01  0.26589140049E+02  0.47787268744E+02  0.19999989512E+02 0.  0.
         12    1    1    2    0    0 -0.33055664447E+02  0.91631955639E+01 -0.26589140049E+02  0.43400731256E+02  0.00000000000E+00 0. -1.
         11    1    3    3    0    0  0.15640298629E+02 -0.40961015441E+01  0.11517295493E+02  0.19850568878E+02  0.51100000000E-03 0. -1.
        -11    1    3    3    0    0  0.16744809309E+02  0.14929858974E+01  0.95406096057E+01  0.19329792487E+02  0.51100000000E-03 0.  1.
         12    1    3    3    0    0  0.67055650952E+00 -0.65600799172E+01  0.55312349505E+01  0.86069073789E+01  0.00000000000E+00 0. -1.
</event>
<event>
 7    1  0.1418970E-010  0.4778727E+02  0.7816164E-02  0.1312668E+00
        -11   -1    0    0    0    0  0.00000000000E+00  0.00000000000E+00  0.45593999997E+02  0.45594000000E+02  0.51100000000E-03 0.  1.
         11   -1    0    0    0    0 -0.00000000000E+00 -0.00000000000E+00 -0.45593999997E+02  0.45594000000E+02  0.51100000000E-03 0. -1.
    9900012    2    1    2    0    0 -0.20317178891E+02  0.18107932947E+02  0.33807371804E+02  0.47787269799E+02  0.19999994320E+02 0.  0.
         12    1    1    2    0    0  0.20317178891E+02 -0.18107932947E+02 -0.33807371804E+02  0.43400730201E+02  0.00000000000E+00 0. -1.
         11    1    3    3    0    0 -0.34741951839E+01 -0.33104173342E+01  0.72400560634E+00  0.48531514999E+01  0.51100000000E-03 0. -1.
        -11    1    3    3    0    0 -0.55599347510E+01  0.63562444358E+01  0.85930245290E+01  0.12048020110E+02  0.51100000000E-03 0.  1.
         12    1    3    3    0    0 -0.11283048956E+02  0.15062105846E+02  0.24490341669E+02  0.30886098188E+02  0.00000000000E+00 0. -1.
</event>
<event>
 7    1  0.1418970E-010  0.4778727E+02  0.7816164E-02  0.1312668E+00
        -11   -1    0    0    0    0  0.00000000000E+00  0.00000000000E+00  0.45593999997E+02  0.45594000000E+02  0.51100000000E-03 0. -1.
         11   -1    0    0    0    0 -0.00000000000E+00 -0.00000000000E+00 -0.45593999997E+02  0.45594000000E+02  0.51100000000E-03 0.  1.
    9900012    2    1    2    0    0 -0.12161995470E+02  0.59189115716E+01 -0.41239250266E+02  0.47787269470E+02  0.19999992820E+02 0.  0.
         12    1    1    2    0    0  0.12161995470E+02 -0.59189115716E+01  0.41239250266E+02  0.43400730530E+02  0.00000000000E+00 0. -1.
         11    1    3    3    0    0 -0.72579393833E+01  0.94024140748E+01 -0.10397827428E+02  0.15786002978E+02  0.51100000000E-03 0. -1.
        -11    1    3    3    0    0 -0.41088590081E+01  0.56810424502E+00 -0.19377037608E+02  0.19816030165E+02  0.51100000000E-03 0.  1.
        -12    1    3    3    0    0 -0.79519707912E+00 -0.40516067482E+01 -0.11464385230E+02  0.12185236327E+02  0.00000000000E+00 0.  1.
</event>
<event>
 7    1  0.1418970E-010  0.4778727E+02  0.7816164E-02  0.1312668E+00
        -11   -1    0    0    0    0  0.00000000000E+00  0.00000000000E+00  0.45593999997E+02  0.45594000000E+02  0.51100000000E-03 0.  1.
         11   -1    0    0    0    0 -0.00000000000E+00 -0.00000000000E+00 -0.45593999997E+02  0.45594000000E+02  0.51100000000E-03 0. -1.
    9900012    2    1    2    0    0  0.23988470858E+02  0.35929289600E+02  0.41548258223E+01  0.47787272323E+02  0.20000005830E+02 0.  0.
         12    1    1    2    0    0 -0.23988470858E+02 -0.35929289600E+02 -0.41548258223E+01  0.43400727677E+02  0.00000000000E+00 0. -1.
         11    1    3    3    0    0  0.41843948576E+01  0.45324512715E+01 -0.58905670257E+01  0.85294228995E+01  0.51100000000E-03 0. -1.
        -11    1    3    3    0    0  0.11262919238E+02  0.19464872315E+02  0.21404511046E+01  0.22590177848E+02  0.51100000000E-03 0.  1.
        -12    1    3    3    0    0  0.85411567620E+01  0.11931966013E+02  0.79049417434E+01  0.16667671575E+02  0.00000000000E+00 0.  1.
</event>
<event>
 7    1  0.1418970E-010  0.4778727E+02  0.7816164E-02  0.1312668E+00
        -11   -1    0    0    0    0  0.00000000000E+00  0.00000000000E+00  0.45593999997E+02  0.45594000000E+02  0.51100000000E-03 0.  1.
         11   -1    0    0    0    0 -0.00000000000E+00 -0.00000000000E+00 -0.45593999997E+02  0.45594000000E+02  0.51100000000E-03 0. -1.
    9900012    2    1    2    0    0 -0.49012644675E+00  0.15803553700E+02  0.40418196080E+02  0.47787272957E+02  0.20000008721E+02 0.  0.
         12    1    1    2    0    0  0.49012644675E+00 -0.15803553700E+02 -0.40418196080E+02  0.43400727043E+02  0.00000000000E+00 0. -1.
         11    1    3    3    0    0 -0.29209838890E+01  0.18707514786E+02  0.30384338314E+02  0.35800995397E+02  0.51100000000E-03 0.  1.
        -11    1    3    3    0    0  0.11668035967E+01 -0.33364058019E+00  0.87733055527E+01  0.88568412683E+01  0.51100000000E-03 0. -1.
        -12    1    3    3    0    0  0.12640538455E+01 -0.25703205052E+01  0.12605522127E+01  0.31294362918E+01  0.00000000000E+00 0.  1.
</event>
<event>
 7    1  0.1418970E-010  0.4778727E+02  0.7816164E-02  0.1312668E+00
        -11   -1    0    0    0    0  0.00000000000E+00  0.00000000000E+00  0.45593999997E+02  0.45594000000E+02  0.51100000000E-03 0.  1.
         11   -1    0    0    0    0 -0.00000000000E+00 -0.00000000000E+00 -0.45593999997E+02  0.45594000000E+02  0.51100000000E-03 0. -1.
    9900012    2    1    2    0    0  0.10776540514E+02 -0.53409957518E+01  0.41700877424E+02  0.47787271446E+02  0.20000001831E+02 0.  0.
         12    1    1    2    0    0 -0.10776540514E+02  0.53409957518E+01 -0.41700877424E+02  0.43400728554E+02  0.00000000000E+00 0. -1.
         11    1    3    3    0    0 -0.19288829334E+01  0.77608711800E+00  0.16686534031E+01  0.26659529302E+01  0.51100000000E-03 0. -1.
        -11    1    3    3    0    0  0.11487576138E+02 -0.10923859181E+02  0.30017409099E+02  0.33946133126E+02  0.51100000000E-03 0.  1.
        -12    1    3    3    0    0  0.12178473101E+01  0.48067763112E+01  0.10014814922E+02  0.11175185390E+02  0.00000000000E+00 0.  1.
</event>
<event>
 7    1  0.1418970E-010  0.4778727E+02  0.7816164E-02  0.1312668E+00
        -11   -1    0    0    0    0  0.00000000000E+00  0.00000000000E+00  0.45593999997E+02  0.45594000000E+02  0.51100000000E-03 0.  1.
         11   -1    0    0    0    0 -0.00000000000E+00 -0.00000000000E+00 -0.45593999997E+02  0.45594000000E+02  0.51100000000E-03 0. -1.
    9900012    2    1    2    0    0 -0.31213609864E+01 -0.18912444972E+01  0.43247007583E+02  0.47787269994E+02  0.19999995211E+02 0.  0.
         12    1    1    2    0    0  0.31213609864E+01  0.18912444972E+01 -0.43247007583E+02  0.43400730006E+02  0.00000000000E+00 0. -1.
         11    1    3    3    0    0 -0.12695617302E+01  0.30806306757E+01  0.10524983555E+02  0.11039807582E+02  0.51100000000E-03 0. -1.
        -11    1    3    3    0    0  0.43518890011E+01 -0.83428393999E+01  0.15475276900E+02  0.18111490897E+02  0.51100000000E-03 0.  1.
         12    1    3    3    0    0 -0.62036882573E+01  0.33709642269E+01  0.17246747128E+02  0.18635971515E+02  0.00000000000E+00 0. -1.
</event>
<event>
 7    1  0.1418970E-010  0.4778727E+02  0.7816164E-02  0.1312668E+00
        -11   -1    0    0    0    0  0.00000000000E+00  0.00000000000E+00  0.45593999997E+02  0.45594000000E+02  0.51100000000E-03 0. -1.
         11   -1    0    0    0    0 -0.00000000000E+00 -0.00000000000E+00 -0.45593999997E+02  0.45594000000E+02  0.51100000000E-03 0.  1.
    9900012    2    1    2    0    0  0.59369967478E+01  0.40983640237E+02  0.12989094139E+02  0.47787271158E+02  0.20000000518E+02 0.  0.
         12    1    1    2    0    0 -0.59369967478E+01 -0.40983640237E+02 -0.12989094139E+02  0.43400728842E+02  0.00000000000E+00 0. -1.
         11    1    3    3    0    0 -0.16753807289E+01  0.11704299595E+02  0.11837072020E+02  0.16730624730E+02  0.51100000000E-03 0. -1.
        -11    1    3    3    0    0  0.46801641241E+01  0.74844677583E+01 -0.13256268256E+01  0.89262803337E+01  0.51100000000E-03 0.  1.
         12    1    3    3    0    0  0.29322133525E+01  0.21794872884E+02  0.24776489443E+01  0.22130366094E+02  0.00000000000E+00 0. -1.
</event>
<event>
 7    1  0.1418970E-010  0.4778728E+02  0.7816164E-02  0.1312668E+00
        -11   -1    0    0    0    0  0.00000000000E+00  0.00000000000E+00  0.45593999997E+02  0.45594000000E+02  0.51100000000E-03 0.  1.
         11   -1    0    0    0    0 -0.00000000000E+00 -0.00000000000E+00 -0.45593999997E+02  0.45594000000E+02  0.51100000000E-03 0. -1.
    9900012    2    1    2    0    0 -0.96476444280E+01  0.26913894258E+01  0.42229158674E+02  0.47787280394E+02  0.20000042628E+02 0.  0.
         12    1    1    2    0    0  0.96476444280E+01 -0.26913894258E+01 -0.42229158674E+02  0.43400719606E+02  0.00000000000E+00 0. -1.
         11    1    3    3    0    0 -0.28628980559E+01  0.47449565219E+01  0.11496525544E+02  0.12762480069E+02  0.51100000000E-03 0. -1.
        -11    1    3    3    0    0  0.20379388320E+01 -0.54090564062E+01  0.19572134871E+02  0.20407830594E+02  0.51100000000E-03 0.  1.
         12    1    3    3    0    0 -0.88226852040E+01  0.33554893101E+01  0.11160498259E+02  0.14616969731E+02  0.00000000000E+00 0. -1.
</event>
<event>
 7    1  0.1418970E-010  0.4778727E+02  0.7816164E-02  0.1312668E+00
        -11   -1    0    0    0    0  0.00000000000E+00  0.00000000000E+00  0.45593999997E+02  0.45594000000E+02  0.51100000000E-03 0.  1.
         11   -1    0    0    0    0 -0.00000000000E+00 -0.00000000000E+00 -0.45593999997E+02  0.45594000000E+02  0.51100000000E-03 0. -1.
    9900012    2    1    2    0    0  0.16060675687E+02 -0.36341001008E+01  0.40155584736E+02  0.47787274516E+02  0.20000015828E+02 0.  0.
         12    1    1    2    0    0 -0.16060675687E+02  0.36341001008E+01 -0.40155584736E+02  0.43400725484E+02  0.00000000000E+00 0. -1.
         11    1    3    3    0    0  0.54154696042E+01  0.28347946971E+00  0.93077621377E+01  0.10772284248E+02  0.51100000000E-03 0. -1.
        -11    1    3    3    0    0 -0.32828487369E+01 -0.51988036990E+01  0.65845040421E+01  0.90089038996E+01  0.51100000000E-03 0.  1.
        -12    1    3    3    0    0  0.13928054820E+02  0.12812241285E+01  0.24263318556E+02  0.28006086369E+02  0.00000000000E+00 0.  1.
</event>
<event>
 7    1  0.1418970E-010  0.4778726E+02  0.7816164E-02  0.1312668E+00
        -11   -1    0    0    0    0  0.00000000000E+00  0.00000000000E+00  0.45593999997E+02  0.45594000000E+02  0.51100000000E-03 0. -1.
         11   -1    0    0    0    0 -0.00000000000E+00 -0.00000000000E+00 -0.45593999997E+02  0.45594000000E+02  0.51100000000E-03 0.  1.
    9900012    2    1    2    0    0 -0.28625432167E+02 -0.10486627539E+02 -0.30890760670E+02  0.47787264768E+02  0.19999971381E+02 0.  0.
         12    1    1    2    0    0  0.28625432167E+02  0.10486627539E+02  0.30890760670E+02  0.43400735232E+02  0.00000000000E+00 0. -1.
         11    1    3    3    0    0 -0.25088971810E-01 -0.53014548479E+01 -0.30932145851E+01  0.61379173742E+01  0.51100000000E-03 0. -1.
        -11    1    3    3    0    0 -0.13277899484E+01 -0.87547763630E+00 -0.67394932375E+01  0.69246123789E+01  0.51100000000E-03 0.  1.
        -12    1    3    3    0    0 -0.27272553247E+02 -0.43096950552E+01 -0.21058052848E+02  0.34724735014E+02  0.00000000000E+00 0.  1.
</event>
<event>
 7    1  0.1418970E-010  0.4778727E+02  0.7816164E-02  0.1312668E+00
        -11   -1    0    0    0    0  0.00000000000E+00  0.00000000000E+00  0.45593999997E+02  0.45594000000E+02  0.51100000000E-03 0.  1.
         11   -1    0    0    0    0 -0.00000000000E+00 -0.00000000000E+00 -0.45593999997E+02  0.45594000000E+02  0.51100000000E-03 0. -1.
    9900012    2    1    2    0    0 -0.63047304399E-01  0.15730412474E+02  0.40449641128E+02  0.47787270525E+02  0.19999997634E+02 0.  0.
         12    1    1    2    0    0  0.63047304399E-01 -0.15730412474E+02 -0.40449641128E+02  0.43400729475E+02  0.00000000000E+00 0. -1.
         11    1    3    3    0    0 -0.58002702693E+01  0.26843065143E+01  0.98172843832E+01  0.11714423143E+02  0.51100000000E-03 0. -1.
        -11    1    3    3    0    0  0.42093891327E+01  0.38734387803E+01  0.21502146717E+01  0.61111298670E+01  0.51100000000E-03 0.  1.
        -12    1    3    3    0    0  0.15278338321E+01  0.91726671797E+01  0.28482142073E+02  0.29961717515E+02  0.00000000000E+00 0.  1.
</event>
<event>
 7    1  0.1418970E-010  0.4778726E+02  0.7816164E-02  0.1312668E+00
        -11   -1    0    0    0    0  0.00000000000E+00  0.00000000000E+00  0.45593999997E+02  0.45594000000E+02  0.51100000000E-03 0.  1.
         11   -1    0    0    0    0 -0.00000000000E+00 -0.00000000000E+00 -0.45593999997E+02  0.45594000000E+02  0.51100000000E-03 0. -1.
    9900012    2    1    2    0    0 -0.40366648950E+02 -0.15809863589E+02  0.20508163995E+01  0.47787262886E+02  0.19999962801E+02 0.  0.
         12    1    1    2    0    0  0.40366648950E+02  0.15809863589E+02 -0.20508163995E+01  0.43400737114E+02  0.00000000000E+00 0. -1.
         11    1    3    3    0    0 -0.55572449721E+01 -0.53845687160E+01 -0.36081257216E+01  0.85378641018E+01  0.51100000000E-03 0. -1.
        -11    1    3    3    0    0  0.87227999484E-01 -0.78677919453E+00  0.28267842368E+01  0.29355305496E+01  0.51100000000E-03 0.  1.
        -12    1    3    3    0    0 -0.34896631978E+02 -0.96385156784E+01  0.28321578843E+01  0.36313868234E+02  0.00000000000E+00 0.  1.
</event>
<event>
 7    1  0.1418970E-010  0.4778729E+02  0.7816164E-02  0.1312668E+00
        -11   -1    0    0    0    0  0.00000000000E+00  0.00000000000E+00  0.45593999997E+02  0.45594000000E+02  0.51100000000E-03 0.  1.
         11   -1    0    0    0    0 -0.00000000000E+00 -0.00000000000E+00 -0.45593999997E+02  0.45594000000E+02  0.51100000000E-03 0. -1.
    9900012    2    1    2    0    0  0.37659864276E+02  0.94931119929E+01  0.19371026799E+02  0.47787294570E+02  0.20000107260E+02 0.  0.
         12    1    1    2    0    0 -0.37659864276E+02 -0.94931119929E+01 -0.19371026799E+02  0.43400705430E+02  0.00000000000E+00 0. -1.
         11    1    3    3    0    0  0.96084313810E+01  0.29397328205E+01  0.11811161735E+02  0.15507015330E+02  0.51100000000E-03 0. -1.
        -11    1    3    3    0    0  0.23516898764E+02  0.93092887284E+01  0.88908156939E+01  0.26809587615E+02  0.51100000000E-03 0.  1.
         12    1    3    3    0    0  0.45345341312E+01 -0.27559095560E+01 -0.13309506304E+01  0.54706916243E+01  0.00000000000E+00 0. -1.
</event>
<event>
 7    1  0.1418970E-010  0.4778727E+02  0.7816164E-02  0.1312668E+00
        -11   -1    0    0    0    0  0.00000000000E+00  0.00000000000E+00  0.45593999997E+02  0.45594000000E+02  0.51100000000E-03 0.  1.
         11   -1    0    0    0    0 -0.00000000000E+00 -0.00000000000E+00 -0.45593999997E+02  0.45594000000E+02  0.51100000000E-03 0. -1.
    9900012    2    1    2    0    0  0.20619300078E+02 -0.41711510599E+01  0.37961419261E+02  0.47787269716E+02  0.19999993943E+02 0.  0.
         12    1    1    2    0    0 -0.20619300078E+02  0.41711510599E+01 -0.37961419261E+02  0.43400730284E+02  0.00000000000E+00 0. -1.
         11    1    3    3    0    0  0.13002434860E+02 -0.74414370606E+01  0.20107195411E+02  0.25074640683E+02  0.51100000000E-03 0. -1.
        -11    1    3    3    0    0  0.75910026935E+01  0.27462578094E+01  0.19436194598E+02  0.21045923941E+02  0.51100000000E-03 0.  1.
         12    1    3    3    0    0  0.25862524475E-01  0.52402819130E+00 -0.15819707478E+01  0.16667050916E+01  0.00000000000E+00 0. -1.
</event>
<event>
 7    1  0.1418970E-010  0.4778727E+02  0.7816164E-02  0.1312668E+00
        -11   -1    0    0    0    0  0.00000000000E+00  0.00000000000E+00  0.45593999997E+02  0.45594000000E+02  0.51100000000E-03 0.  1.
         11   -1    0    0    0    0 -0.00000000000E+00 -0.00000000000E+00 -0.45593999997E+02  0.45594000000E+02  0.51100000000E-03 0. -1.
    9900012    2    1    2    0    0  0.21784553367E+02 -0.37369042905E+02 -0.35512218287E+01  0.47787270634E+02  0.19999998129E+02 0.  0.
         12    1    1    2    0    0 -0.21784553367E+02  0.37369042905E+02  0.35512218287E+01  0.43400729366E+02  0.00000000000E+00 0. -1.
         11    1    3    3    0    0 -0.11814544542E+01 -0.21586913086E+01 -0.29529665678E+01  0.38439295786E+01  0.51100000000E-03 0. -1.
        -11    1    3    3    0    0  0.14149384884E+02 -0.12681704442E+02 -0.42678030916E+01  0.19474210218E+02  0.51100000000E-03 0.  1.
        -12    1    3    3    0    0  0.88166229371E+01 -0.22528647155E+02  0.36695478308E+01  0.24469130837E+02  0.00000000000E+00 0.  1.
</event>
<event>
 7    1  0.1418970E-010  0.4778727E+02  0.7816164E-02  0.1312668E+00
        -11   -1    0    0    0    0  0.00000000000E+00  0.00000000000E+00  0.45593999997E+02  0.45594000000E+02  0.51100000000E-03 0.  1.
         11   -1    0    0    0    0 -0.00000000000E+00 -0.00000000000E+00 -0.45593999997E+02  0.45594000000E+02  0.51100000000E-03 0. -1.
    9900012    2    1    2    0    0  0.19530417591E+02  0.37747058946E+02  0.87946272091E+01  0.47787272609E+02  0.20000007132E+02 0.  0.
         12    1    1    2    0    0 -0.19530417591E+02 -0.37747058946E+02 -0.87946272091E+01  0.43400727391E+02  0.00000000000E+00 0. -1.
         11    1    3    3    0    0  0.55397415491E+00 -0.94104830216E+00 -0.63583155507E+00  0.12636222928E+01  0.51100000000E-03 0. -1.
        -11    1    3    3    0    0  0.70633284582E+01  0.23221484539E+02  0.11561576989E+02  0.26884903121E+02  0.51100000000E-03 0.  1.
        -12    1    3    3    0    0  0.11913114978E+02  0.15466622710E+02 -0.21311182245E+01  0.19638747195E+02  0.00000000000E+00 0.  1.
</event>
<event>
 7    1  0.1418970E-010  0.4778727E+02  0.7816164E-02  0.1312668E+00
        -11   -1    0    0    0    0  0.00000000000E+00  0.00000000000E+00  0.45593999997E+02  0.45594000000E+02  0.51100000000E-03 0.  1.
         11   -1    0    0    0    0 -0.00000000000E+00 -0.00000000000E+00 -0.45593999997E+02  0.45594000000E+02  0.51100000000E-03 0. -1.
    9900012    2    1    2    0    0 -0.20518245092E+02  0.35886392824E+02 -0.13220883325E+02  0.47787270427E+02  0.19999997186E+02 0.  0.
         12    1    1    2    0    0  0.20518245092E+02 -0.35886392824E+02  0.13220883325E+02  0.43400729573E+02  0.00000000000E+00 0. -1.
         11    1    3    3    0    0 -0.83159921447E+01  0.12144428994E+02 -0.11556313628E+02  0.18713398031E+02  0.51100000000E-03 0. -1.
        -11    1    3    3    0    0  0.14019603028E+01  0.83653525239E+01 -0.88787462796E+00  0.85283607543E+01  0.51100000000E-03 0.  1.
         12    1    3    3    0    0 -0.13604213250E+02  0.15376611306E+02 -0.77669506946E+00  0.20545511642E+02  0.00000000000E+00 0. -1.
</event>
<event>
 7    1  0.1418970E-010  0.4778727E+02  0.7816164E-02  0.1312668E+00
        -11   -1    0    0    0    0  0.00000000000E+00  0.00000000000E+00  0.45593999997E+02  0.45594000000E+02  0.51100000000E-03 0. -1.
         11   -1    0    0    0    0 -0.00000000000E+00 -0.00000000000E+00 -0.45593999997E+02  0.45594000000E+02  0.51100000000E-03 0.  1.
    9900012    2    1    2    0    0  0.25278497687E+02  0.12796862104E+02 -0.32876458151E+02  0.47787266993E+02  0.19999981526E+02 0.  0.
         12    1    1    2    0    0 -0.25278497687E+02 -0.12796862104E+02  0.32876458151E+02  0.43400733007E+02  0.00000000000E+00 0. -1.
         11    1    3    3    0    0  0.74068113735E+01 -0.79137480623E+00 -0.13881288569E+02  0.15753644068E+02  0.51100000000E-03 0. -1.
        -11    1    3    3    0    0  0.10173313121E+01  0.78430272296E+01 -0.70190149245E+01  0.10574242757E+02  0.51100000000E-03 0.  1.
        -12    1    3    3    0    0  0.16854355002E+02  0.57452096806E+01 -0.11976154657E+02  0.21459380167E+02  0.00000000000E+00 0.  1.
</event>
<event>
 7    1  0.1418970E-010  0.4778727E+02  0.7816164E-02  0.1312668E+00
        -11   -1    0    0    0    0  0.00000000000E+00  0.00000000000E+00  0.45593999997E+02  0.45594000000E+02  0.51100000000E-03 0.  1.
         11   -1    0    0    0    0 -0.00000000000E+00 -0.00000000000E+00 -0.45593999997E+02  0.45594000000E+02  0.51100000000E-03 0. -1.
    9900012    2    1    2    0    0  0.32335045350E+02 -0.11981071871E+02  0.26353789964E+02  0.47787268596E+02  0.19999988836E+02 0.  0.
         12    1    1    2    0    0 -0.32335045350E+02  0.11981071871E+02 -0.26353789964E+02  0.43400731404E+02  0.00000000000E+00 0. -1.
         11    1    3    3    0    0  0.68036816786E+01 -0.10585489441E+02  0.85857148434E+01  0.15233422817E+02  0.51100000000E-03 0. -1.
        -11    1    3    3    0    0  0.20835601975E+02 -0.32774894982E+01  0.17635657403E+02  0.27493283896E+02  0.51100000000E-03 0.  1.
        -12    1    3    3    0    0  0.46957616964E+01  0.18819070681E+01  0.13241771709E+00  0.50605618832E+01  0.00000000000E+00 0.  1.
</event>
<event>
 7    1  0.1418970E-010  0.4778724E+02  0.7816164E-02  0.1312668E+00
        -11   -1    0    0    0    0  0.00000000000E+00  0.00000000000E+00  0.45593999997E+02  0.45594000000E+02  0.51100000000E-03 0.  1.
         11   -1    0    0    0    0 -0.00000000000E+00 -0.00000000000E+00 -0.45593999997E+02  0.45594000000E+02  0.51100000000E-03 0. -1.
    9900012    2    1    2    0    0  0.21004704244E+02  0.64062251123E+01  0.37435126246E+02  0.47787239666E+02  0.19999856931E+02 0.  0.
         12    1    1    2    0    0 -0.21004704244E+02 -0.64062251123E+01 -0.37435126246E+02  0.43400760334E+02  0.00000000000E+00 0. -1.
         11    1    3    3    0    0 -0.11745625347E+00  0.55646261617E+00 -0.16027936116E+01  0.17007040417E+01  0.51100000000E-03 0. -1.
        -11    1    3    3    0    0  0.77513166160E+01 -0.27961054477E+01  0.17071789376E+02  0.18956452931E+02  0.51100000000E-03 0.  1.
        -12    1    3    3    0    0  0.13370843882E+02  0.86458679439E+01  0.21966130481E+02  0.27130082693E+02  0.00000000000E+00 0.  1.
</event>
<event>
 7    1  0.1418970E-010  0.4778727E+02  0.7816164E-02  0.1312668E+00
        -11   -1    0    0    0    0  0.00000000000E+00  0.00000000000E+00  0.45593999997E+02  0.45594000000E+02  0.51100000000E-03 0. -1.
         11   -1    0    0    0    0 -0.00000000000E+00 -0.00000000000E+00 -0.45593999997E+02  0.45594000000E+02  0.51100000000E-03 0.  1.
    9900012    2    1    2    0    0 -0.31746070613E+02  0.26186385467E+02 -0.13787079588E+02  0.47787270205E+02  0.19999996171E+02 0.  0.
         12    1    1    2    0    0  0.31746070613E+02 -0.26186385467E+02  0.13787079588E+02  0.43400729795E+02  0.00000000000E+00 0. -1.
         11    1    3    3    0    0 -0.23322425425E+02  0.10851146757E+02 -0.17801095108E+01  0.25784718416E+02  0.51100000000E-03 0. -1.
        -11    1    3    3    0    0 -0.77843648791E+01  0.90655712602E+01 -0.93086913958E+01  0.15147034515E+02  0.51100000000E-03 0.  1.
        -12    1    3    3    0    0 -0.63928030924E+00  0.62696674498E+01 -0.26982786816E+01  0.68555172736E+01  0.00000000000E+00 0.  1.
</event>
<event>
 7    1  0.1418970E-010  0.4778727E+02  0.7816164E-02  0.1312668E+00
        -11   -1    0    0    0    0  0.00000000000E+00  0.00000000000E+00  0.45593999997E+02  0.45594000000E+02  0.51100000000E-03 0.  1.
         11   -1    0    0    0    0 -0.00000000000E+00 -0.00000000000E+00 -0.45593999997E+02  0.45594000000E+02  0.51100000000E-03 0. -1.
    9900012    2    1    2    0    0 -0.94913929780E+01  0.87134396413E+01  0.41444093210E+02  0.47787269211E+02  0.19999991640E+02 0.  0.
         12    1    1    2    0    0  0.94913929780E+01 -0.87134396413E+01 -0.41444093210E+02  0.43400730789E+02  0.00000000000E+00 0. -1.
         11    1    3    3    0    0  0.10566381975E+00 -0.14034482748E+01 -0.34248733593E+00  0.14484922296E+01  0.51100000000E-03 0. -1.
        -11    1    3    3    0    0 -0.10406341997E+02  0.22115616337E+01  0.32057806639E+02  0.33777002907E+02  0.51100000000E-03 0.  1.
         12    1    3    3    0    0  0.80928519907E+00  0.79053262824E+01  0.97287739065E+01  0.12561774074E+02  0.00000000000E+00 0. -1.
</event>
<event>
 7    1  0.1418970E-010  0.4778729E+02  0.7816164E-02  0.1312668E+00
        -11   -1    0    0    0    0  0.00000000000E+00  0.00000000000E+00  0.45593999997E+02  0.45594000000E+02  0.51100000000E-03 0.  1.
         11   -1    0    0    0    0 -0.00000000000E+00 -0.00000000000E+00 -0.45593999997E+02  0.45594000000E+02  0.51100000000E-03 0. -1.
    9900012    2    1    2    0    0 -0.65226583932E+01 -0.14652628721E+02  0.40328363559E+02  0.47787291384E+02  0.20000092738E+02 0.  0.
         12    1    1    2    0    0  0.65226583932E+01  0.14652628721E+02 -0.40328363559E+02  0.43400708616E+02  0.00000000000E+00 0. -1.
         11    1    3    3    0    0 -0.40611675204E+01  0.72082954642E+00  0.47870442466E+01  0.63188978267E+01  0.51100000000E-03 0. -1.
        -11    1    3    3    0    0  0.71630683264E+00 -0.13485973240E+02  0.13414699796E+02  0.19035197414E+02  0.51100000000E-03 0.  1.
        -12    1    3    3    0    0 -0.31777977055E+01 -0.18874850275E+01  0.22126619517E+02  0.22433196144E+02  0.00000000000E+00 0.  1.
</event>
<event>
 7    1  0.1418970E-010  0.4778727E+02  0.7816164E-02  0.1312668E+00
        -11   -1    0    0    0    0  0.00000000000E+00  0.00000000000E+00  0.45593999997E+02  0.45594000000E+02  0.51100000000E-03 0.  1.
         11   -1    0    0    0    0 -0.00000000000E+00 -0.00000000000E+00 -0.45593999997E+02  0.45594000000E+02  0.51100000000E-03 0. -1.
    9900012    2    1    2    0    0 -0.31806828307E+02 -0.29475882988E+02 -0.17666475162E+01  0.47787273643E+02  0.20000011848E+02 0.  0.
         12    1    1    2    0    0  0.31806828307E+02  0.29475882988E+02  0.17666475162E+01  0.43400726357E+02  0.00000000000E+00 0. -1.
         11    1    3    3    0    0 -0.13192354463E+02 -0.63673309460E+01  0.39361420154E+01  0.15168201406E+02  0.51100000000E-03 0. -1.
        -11    1    3    3    0    0  0.14512978538E+01 -0.60255569927E+00 -0.15053768008E+01  0.21761200346E+01  0.51100000000E-03 0.  1.
        -12    1    3    3    0    0 -0.20065771698E+02 -0.22505996342E+02 -0.41974127307E+01  0.30442952203E+02  0.00000000000E+00 0.  1.
</event>
<event>
 7    1  0.1418970E-010  0.4778727E+02  0.7816164E-02  0.1312668E+00
        -11   -1    0    0    0    0  0.00000000000E+00  0.00000000000E+00  0.45593999997E+02  0.45594000000E+02  0.51100000000E-03 0. -1.
         11   -1    0    0    0    0 -0.00000000000E+00 -0.00000000000E+00 -0.45593999997E+02  0.45594000000E+02  0.51100000000E-03 0.  1.
    9900012    2    1    2    0    0 -0.39793289784E+02 -0.95496273729E+01 -0.14454128479E+02  0.47787272761E+02  0.20000007827E+02 0.  0.
         12    1    1    2    0    0  0.39793289784E+02  0.95496273729E+01  0.14454128479E+02  0.43400727239E+02  0.00000000000E+00 0. -1.
         11    1    3    3    0    0 -0.21652700371E+02  0.24606405250E+01 -0.72246214987E+01  0.22958426366E+02  0.51100000000E-03 0.  1.
        -11    1    3    3    0    0 -0.20571896202E+01 -0.24579432674E+01  0.21928780750E+01  0.38835845236E+01  0.51100000000E-03 0. -1.
        -12    1    3    3    0    0 -0.16083399792E+02 -0.95523246305E+01 -0.94223850551E+01  0.20945261871E+02  0.00000000000E+00 0.  1.
</event>
<event>
 7    1  0.1418970E-010  0.4778730E+02  0.7816164E-02  0.1312668E+00
        -11   -1    0    0    0    0  0.00000000000E+00  0.00000000000E+00  0.45593999997E+02  0.45594000000E+02  0.51100000000E-03 0.  1.
         11   -1    0    0    0    0 -0.00000000000E+00 -0.00000000000E+00 -0.45593999997E+02  0.45594000000E+02  0.51100000000E-03 0. -1.
    9900012    2    1    2    0    0 -0.12965744616E+02 -0.23248767462E+02  0.34278350325E+02  0.47787296976E+02  0.20000118233E+02 0.  0.
         12    1    1    2    0    0  0.12965744616E+02  0.23248767462E+02 -0.34278350325E+02  0.43400703024E+02  0.00000000000E+00 0. -1.
         11    1    3    3    0    0 -0.56355924906E+01 -0.61534367563E+01  0.11690272623E+02  0.14362700334E+02  0.51100000000E-03 0. -1.
        -11    1    3    3    0    0 -0.73304761432E+01 -0.18608907246E+02  0.24077551453E+02  0.31301050998E+02  0.51100000000E-03 0.  1.
         12    1    3    3    0    0  0.32401798449E-03  0.15135765401E+01 -0.14894737504E+01  0.21235456437E+01  0.00000000000E+00 0. -1.
</event>
<event>
 7    1  0.1418970E-010  0.4778727E+02  0.7816164E-02  0.1312668E+00
        -11   -1    0    0    0    0  0.00000000000E+00  0.00000000000E+00  0.45593999997E+02  0.45594000000E+02  0.51100000000E-03 0.  1.
         11   -1    0    0    0    0 -0.00000000000E+00 -0.00000000000E+00 -0.45593999997E+02  0.45594000000E+02  0.51100000000E-03 0. -1.
    9900012    2    1    2    0    0  0.15806176051E+02 -0.26139830104E+02  0.30830133017E+02  0.47787273957E+02  0.20000013278E+02 0.  0.
         12    1    1    2    0    0 -0.15806176051E+02  0.26139830104E+02 -0.30830133017E+02  0.43400726043E+02  0.00000000000E+00 0. -1.
         11    1    3    3    0    0  0.66009233365E+00  0.22760913136E+01  0.18176908107E+01  0.29866894216E+01  0.51100000000E-03 0. -1.
        -11    1    3    3    0    0  0.13539797490E+02 -0.19193920125E+02  0.14735423118E+02  0.27728421891E+02  0.51100000000E-03 0.  1.
         12    1    3    3    0    0  0.16062862275E+01 -0.92220012923E+01  0.14277019089E+02  0.17072162644E+02  0.00000000000E+00 0. -1.
</event>
<event>
 7    1  0.1418970E-010  0.4778727E+02  0.7816164E-02  0.1312668E+00
        -11   -1    0    0    0    0  0.00000000000E+00  0.00000000000E+00  0.45593999997E+02  0.45594000000E+02  0.51100000000E-03 0. -1.
         11   -1    0    0    0    0 -0.00000000000E+00 -0.00000000000E+00 -0.45593999997E+02  0.45594000000E+02  0.51100000000E-03 0.  1.
    9900012    2    1    2    0    0 -0.17354111110E+02 -0.36634073740E+02 -0.15504927963E+02  0.47787270486E+02  0.19999997454E+02 0.  0.
         12    1    1    2    0    0  0.17354111110E+02  0.36634073740E+02  0.15504927963E+02  0.43400729514E+02  0.00000000000E+00 0. -1.
         11    1    3    3    0    0 -0.62603054223E+01 -0.51020132602E+01  0.60829215226E+00  0.80988877564E+01  0.51100000000E-03 0.  1.
        -11    1    3    3    0    0  0.18488983996E+01 -0.26140478479E+00  0.57560448867E+00  0.19539904150E+01  0.51100000000E-03 0. -1.
        -12    1    3    3    0    0 -0.12942704087E+02 -0.31270655695E+02 -0.16688824604E+02  0.37734392315E+02  0.00000000000E+00 0.  1.
</event>
<event>
 7    1  0.1418970E-010  0.4778726E+02  0.7816164E-02  0.1312668E+00
        -11   -1    0    0    0    0  0.00000000000E+00  0.00000000000E+00  0.45593999997E+02  0.45594000000E+02  0.51100000000E-03 0. -1.
         11   -1    0    0    0    0 -0.00000000000E+00 -0.00000000000E+00 -0.45593999997E+02  0.45594000000E+02  0.51100000000E-03 0.  1.
    9900012    2    1    2    0    0 -0.10148209800E+02  0.42193973082E+02  0.55357474180E+00  0.47787263006E+02  0.19999963351E+02 0.  0.
         12    1    1    2    0    0  0.10148209800E+02 -0.42193973082E+02 -0.55357474180E+00  0.43400736994E+02  0.00000000000E+00 0. -1.
         11    1    3    3    0    0 -0.16947299017E+01  0.15228079533E+02 -0.52178396204E+01  0.16186178248E+02  0.51100000000E-03 0. -1.
        -11    1    3    3    0    0 -0.11389696570E+02  0.24192449185E+02  0.35009638485E+01  0.26967694259E+02  0.51100000000E-03 0.  1.
         12    1    3    3    0    0  0.29362166718E+01  0.27734443641E+01  0.22704505138E+01  0.46333904994E+01  0.00000000000E+00 0. -1.
</event>
<event>
 7    1  0.1418970E-010  0.4778727E+02  0.7816164E-02  0.1312668E+00
        -11   -1    0    0    0    0  0.00000000000E+00  0.00000000000E+00  0.45593999997E+02  0.45594000000E+02  0.51100000000E-03 0.  1.
         11   -1    0    0    0    0 -0.00000000000E+00 -0.00000000000E+00 -0.45593999997E+02  0.45594000000E+02  0.51100000000E-03 0. -1.
    9900012    2    1    2    0    0  0.11466305488E+02  0.22345102683E+02  0.35395528647E+02  0.47787271623E+02  0.20000002637E+02 0.  0.
         12    1    1    2    0    0 -0.11466305488E+02 -0.22345102683E+02 -0.35395528647E+02  0.43400728377E+02  0.00000000000E+00 0. -1.
         11    1    3    3    0    0  0.71956635573E+01  0.73050322412E+01  0.20749588110E+01  0.10461669293E+02  0.51100000000E-03 0. -1.
        -11    1    3    3    0    0 -0.15408160546E+01  0.42898028012E+01  0.79143194267E+01  0.91330703729E+01  0.51100000000E-03 0.  1.
         12    1    3    3    0    0  0.58114579856E+01  0.10750267640E+02  0.25406250409E+02  0.28192531957E+02  0.00000000000E+00 0. -1.
</event>
<event>
 7    1  0.1627439E-010  0.4778729E+02  0.7816164E-02  0.1312668E+00
        -11   -1    0    0    0    0  0.00000000000E+00  0.00000000000E+00  0.45593999997E+02  0.45594000000E+02  0.51100000000E-03 0.  1.
         11   -1    0    0    0    0 -0.00000000000E+00 -0.00000000000E+00 -0.45593999997E+02  0.45594000000E+02  0.51100000000E-03 0. -1.
    9900012    2    1    2    0    0 -0.32570051088E+02 -0.26734780752E+01  0.28559862811E+02  0.47787291749E+02  0.20000094401E+02 0.  0.
         12    1    1    2    0    0  0.32570051088E+02  0.26734780752E+01 -0.28559862811E+02  0.43400708251E+02  0.00000000000E+00 0. -1.
         11    1    3    3    0    0 -0.83805422222E+01  0.22763403440E+01 -0.17756256866E-01  0.86842114694E+01  0.51100000000E-03 0. -1.
        -11    1    3    3    0    0 -0.34691970970E+01 -0.18848858478E+01  0.11238091023E+02  0.11911457226E+02  0.51100000000E-03 0.  1.
        -12    1    3    3    0    0 -0.20720311769E+02 -0.30649325714E+01  0.17339528045E+02  0.27191623054E+02  0.00000000000E+00 0.  1.
</event>
<event>
 7    1  0.1418970E-010  0.4778727E+02  0.7816164E-02  0.1312668E+00
        -11   -1    0    0    0    0  0.00000000000E+00  0.00000000000E+00  0.45593999997E+02  0.45594000000E+02  0.51100000000E-03 0.  1.
         11   -1    0    0    0    0 -0.00000000000E+00 -0.00000000000E+00 -0.45593999997E+02  0.45594000000E+02  0.51100000000E-03 0. -1.
    9900012    2    1    2    0    0 -0.41324611503E+02 -0.59918771401E+01 -0.11832036717E+02  0.47787271891E+02  0.20000003859E+02 0.  0.
         12    1    1    2    0    0  0.41324611503E+02  0.59918771401E+01  0.11832036717E+02  0.43400728109E+02  0.00000000000E+00 0. -1.
         11    1    3    3    0    0 -0.29611358330E+01  0.18286549889E+01  0.17366123564E+01  0.38894893274E+01  0.51100000000E-03 0. -1.
        -11    1    3    3    0    0 -0.63165728399E+01  0.34587015326E+01  0.28677090651E+00  0.72072148953E+01  0.51100000000E-03 0.  1.
        -12    1    3    3    0    0 -0.32046902830E+02 -0.11279233662E+02 -0.13855419980E+02  0.36690567668E+02  0.00000000000E+00 0.  1.
</event>
<event>
 7    1  0.1418970E-010  0.4778727E+02  0.7816164E-02  0.1312668E+00
        -11   -1    0    0    0    0  0.00000000000E+00  0.00000000000E+00  0.45593999997E+02  0.45594000000E+02  0.51100000000E-03 0.  1.
         11   -1    0    0    0    0 -0.00000000000E+00 -0.00000000000E+00 -0.45593999997E+02  0.45594000000E+02  0.51100000000E-03 0. -1.
    9900012    2    1    2    0    0  0.11068487111E+02 -0.18998579565E+02  0.37418788767E+02  0.47787272066E+02  0.20000004658E+02 0.  0.
         12    1    1    2    0    0 -0.11068487111E+02  0.18998579565E+02 -0.37418788767E+02  0.43400727934E+02  0.00000000000E+00 0. -1.
         11    1    3    3    0    0 -0.56880891729E+00  0.19259292372E+01  0.65501444801E+01  0.68510685285E+01  0.51100000000E-03 0. -1.
        -11    1    3    3    0    0  0.45279258535E+01 -0.86300562478E+01  0.39794772866E+01  0.10526928475E+02  0.51100000000E-03 0.  1.
         12    1    3    3    0    0  0.71093701747E+01 -0.12294452554E+02  0.26889167000E+02  0.30409275063E+02  0.00000000000E+00 0. -1.
</event>
<event>
 7    1  0.1418970E-010  0.4778727E+02  0.7816164E-02  0.1312668E+00
        -11   -1    0    0    0    0  0.00000000000E+00  0.00000000000E+00  0.45593999997E+02  0.45594000000E+02  0.51100000000E-03 0.  1.
         11   -1    0    0    0    0 -0.00000000000E+00 -0.00000000000E+00 -0.45593999997E+02  0.45594000000E+02  0.51100000000E-03 0. -1.
    9900012    2    1    2    0    0 -0.36230637931E+02 -0.19405730591E+02  0.13942085527E+02  0.47787271279E+02  0.20000001069E+02 0.  0.
         12    1    1    2    0    0  0.36230637931E+02  0.19405730591E+02 -0.13942085527E+02  0.43400728721E+02  0.00000000000E+00 0. -1.
         11    1    3    3    0    0 -0.12309047091E+01 -0.66080346588E+01  0.22463282326E+01  0.70871178376E+01  0.51100000000E-03 0. -1.
        -11    1    3    3    0    0 -0.13613430269E+02 -0.33570298167E+01  0.10077138472E+02  0.17266842587E+02  0.51100000000E-03 0.  1.
         12    1    3    3    0    0 -0.21386302953E+02 -0.94406661153E+01  0.16186188222E+01  0.23433310854E+02  0.00000000000E+00 0. -1.
</event>
<event>
 7    1  0.1418970E-010  0.4778727E+02  0.7816164E-02  0.1312668E+00
        -11   -1    0    0    0    0  0.00000000000E+00  0.00000000000E+00  0.45593999997E+02  0.45594000000E+02  0.51100000000E-03 0.  1.
         11   -1    0    0    0    0 -0.00000000000E+00 -0.00000000000E+00 -0.45593999997E+02  0.45594000000E+02  0.51100000000E-03 0. -1.
    9900012    2    1    2    0    0  0.21321371658E+02 -0.35614441033E+02  0.12674155436E+02  0.47787268261E+02  0.19999987307E+02 0.  0.
         12    1    1    2    0    0 -0.21321371658E+02  0.35614441033E+02 -0.12674155436E+02  0.43400731739E+02  0.00000000000E+00 0. -1.
         11    1    3    3    0    0  0.15537970007E+02 -0.13301508249E+02 -0.79790788262E+00  0.20469374463E+02  0.51100000000E-03 0. -1.
        -11    1    3    3    0    0 -0.74977453866E+00 -0.73298574493E+01  0.33662814602E+01  0.81006680722E+01  0.51100000000E-03 0.  1.
        -12    1    3    3    0    0  0.65331761896E+01 -0.14983075335E+02  0.10105781859E+02  0.19217225725E+02  0.00000000000E+00 0.  1.
</event>
<event>
 7    1  0.1418970E-010  0.4778727E+02  0.7816164E-02  0.1312668E+00
        -11   -1    0    0    0    0  0.00000000000E+00  0.00000000000E+00  0.45593999997E+02  0.45594000000E+02  0.51100000000E-03 0.  1.
         11   -1    0    0    0    0 -0.00000000000E+00 -0.00000000000E+00 -0.45593999997E+02  0.45594000000E+02  0.51100000000E-03 0. -1.
    9900012    2    1    2    0    0  0.34126469361E+02  0.11680824051E+02  0.24136401161E+02  0.47787269332E+02  0.19999992191E+02 0.  0.
         12    1    1    2    0    0 -0.34126469361E+02 -0.11680824051E+02 -0.24136401161E+02  0.43400730668E+02  0.00000000000E+00 0. -1.
         11    1    3    3    0    0  0.39693394257E+01  0.74690634708E+01  0.17812497323E+01  0.86438079269E+01  0.51100000000E-03 0. -1.
        -11    1    3    3    0    0  0.11567036030E+02 -0.28825320019E+00  0.30463181608E+01  0.11964926537E+02  0.51100000000E-03 0.  1.
        -12    1    3    3    0    0  0.18590093904E+02  0.45000137807E+01  0.19308833268E+02  0.27178534868E+02  0.00000000000E+00 0.  1.
</event>
<event>
 7    1  0.1418970E-010  0.4778727E+02  0.7816164E-02  0.1312668E+00
        -11   -1    0    0    0    0  0.00000000000E+00  0.00000000000E+00  0.45593999997E+02  0.45594000000E+02  0.51100000000E-03 0.  1.
         11   -1    0    0    0    0 -0.00000000000E+00 -0.00000000000E+00 -0.45593999997E+02  0.45594000000E+02  0.51100000000E-03 0. -1.
    9900012    2    1    2    0    0 -0.23255216792E+02 -0.27818067809E+02  0.23853156938E+02  0.47787273041E+02  0.20000009104E+02 0.  0.
         12    1    1    2    0    0  0.23255216792E+02  0.27818067809E+02 -0.23853156938E+02  0.43400726959E+02  0.00000000000E+00 0. -1.
         11    1    3    3    0    0 -0.91721235385E+01 -0.82847201564E+01  0.21873129740E+01  0.12551843553E+02  0.51100000000E-03 0. -1.
        -11    1    3    3    0    0 -0.11331011722E+02 -0.45798434496E+01  0.68709972172E+01  0.14020606110E+02  0.51100000000E-03 0.  1.
         12    1    3    3    0    0 -0.27520815310E+01 -0.14953504203E+02  0.14794846747E+02  0.21214823378E+02  0.00000000000E+00 0. -1.
</event>
<event>
 7    1  0.1418970E-010  0.4778727E+02  0.7816164E-02  0.1312668E+00
        -11   -1    0    0    0    0  0.00000000000E+00  0.00000000000E+00  0.45593999997E+02  0.45594000000E+02  0.51100000000E-03 0.  1.
         11   -1    0    0    0    0 -0.00000000000E+00 -0.00000000000E+00 -0.45593999997E+02  0.45594000000E+02  0.51100000000E-03 0. -1.
    9900012    2    1    2    0    0 -0.40475168861E+02 -0.13598489326E+02 -0.77759376258E+01  0.47787269451E+02  0.19999992734E+02 0.  0.
         12    1    1    2    0    0  0.40475168861E+02  0.13598489326E+02  0.77759376258E+01  0.43400730549E+02  0.00000000000E+00 0. -1.
         11    1    3    3    0    0 -0.27129363715E+01 -0.47181817569E+01  0.24024325595E+01  0.59491970307E+01  0.51100000000E-03 0. -1.
        -11    1    3    3    0    0 -0.19968320003E+02 -0.10354168101E+01 -0.23413105892E+00  0.19996517430E+02  0.51100000000E-03 0.  1.
        -12    1    3    3    0    0 -0.17793912486E+02 -0.78448907592E+01 -0.99442391264E+01  0.21841554990E+02  0.00000000000E+00 0.  1.
</event>
<event>
 7    1  0.1418970E-010  0.4778727E+02  0.7816164E-02  0.1312668E+00
        -11   -1    0    0    0    0  0.00000000000E+00  0.00000000000E+00  0.45593999997E+02  0.45594000000E+02  0.51100000000E-03 0.  1.
         11   -1    0    0    0    0 -0.00000000000E+00 -0.00000000000E+00 -0.45593999997E+02  0.45594000000E+02  0.51100000000E-03 0. -1.
    9900012    2    1    2    0    0 -0.19343008018E+02 -0.24855255585E+02  0.29861137807E+02  0.47787271429E+02  0.20000001753E+02 0.  0.
         12    1    1    2    0    0  0.19343008018E+02  0.24855255585E+02 -0.29861137807E+02  0.43400728571E+02  0.00000000000E+00 0. -1.
         11    1    3    3    0    0  0.12407036790E+01 -0.55811918720E+00  0.69473313865E+01  0.70792836009E+01  0.51100000000E-03 0. -1.
        -11    1    3    3    0    0 -0.85418864699E+01 -0.15977433123E+02  0.17243594921E+02  0.25011672470E+02  0.51100000000E-03 0.  1.
        -12    1    3    3    0    0 -0.12041825227E+02 -0.83197032751E+01  0.56702114990E+01  0.15696315358E+02  0.00000000000E+00 0.  1.
</event>
<event>
 7    1  0.1418970E-010  0.4778727E+02  0.7816164E-02  0.1312668E+00
        -11   -1    0    0    0    0  0.00000000000E+00  0.00000000000E+00  0.45593999997E+02  0.45594000000E+02  0.51100000000E-03 0. -1.
         11   -1    0    0    0    0 -0.00000000000E+00 -0.00000000000E+00 -0.45593999997E+02  0.45594000000E+02  0.51100000000E-03 0.  1.
    9900012    2    1    2    0    0  0.16321921883E+02 -0.27649534966E+02 -0.29201392773E+02  0.47787271231E+02  0.20000000852E+02 0.  0.
         12    1    1    2    0    0 -0.16321921883E+02  0.27649534966E+02  0.29201392773E+02  0.43400728769E+02  0.00000000000E+00 0. -1.
         11    1    3    3    0    0  0.13996053228E+00 -0.49895728675E+01 -0.16129100749E+02  0.16883818217E+02  0.51100000000E-03 0. -1.
        -11    1    3    3    0    0  0.59470573127E+01 -0.79106465371E+01 -0.62115675958E+01  0.11684579221E+02  0.51100000000E-03 0.  1.
         12    1    3    3    0    0  0.10234904038E+02 -0.14749315561E+02 -0.68607244276E+01  0.19218873793E+02  0.00000000000E+00 0. -1.
</event>
<event>
 7    1  0.1418970E-010  0.4778727E+02  0.7816164E-02  0.1312668E+00
        -11   -1    0    0    0    0  0.00000000000E+00  0.00000000000E+00  0.45593999997E+02  0.45594000000E+02  0.51100000000E-03 0.  1.
         11   -1    0    0    0    0 -0.00000000000E+00 -0.00000000000E+00 -0.45593999997E+02  0.45594000000E+02  0.51100000000E-03 0. -1.
    9900012    2    1    2    0    0  0.20627248441E+02 -0.27187500891E+02  0.26813791243E+02  0.47787274387E+02  0.20000015240E+02 0.  0.
         12    1    1    2    0    0 -0.20627248441E+02  0.27187500891E+02 -0.26813791243E+02  0.43400725613E+02  0.00000000000E+00 0. -1.
         11    1    3    3    0    0  0.60608090064E+01 -0.12517468734E+02  0.14628762248E+02  0.20184675239E+02  0.51100000000E-03 0. -1.
        -11    1    3    3    0    0  0.23131424999E+00  0.18786004266E+01  0.36348832308E+01  0.40981730330E+01  0.51100000000E-03 0.  1.
        -12    1    3    3    0    0  0.14335125185E+02 -0.16548632583E+02  0.85501457639E+01  0.23504426115E+02  0.00000000000E+00 0.  1.
</event>
<event>
 7    1  0.1418970E-010  0.4778728E+02  0.7816164E-02  0.1312668E+00
        -11   -1    0    0    0    0  0.00000000000E+00  0.00000000000E+00  0.45593999997E+02  0.45594000000E+02  0.51100000000E-03 0.  1.
         11   -1    0    0    0    0 -0.00000000000E+00 -0.00000000000E+00 -0.45593999997E+02  0.45594000000E+02  0.51100000000E-03 0. -1.
    9900012    2    1    2    0    0 -0.27302606915E+02 -0.21861189231E+02  0.25695891711E+02  0.47787276622E+02  0.20000025429E+02 0.  0.
         12    1    1    2    0    0  0.27302606915E+02  0.21861189231E+02 -0.25695891711E+02  0.43400723378E+02  0.00000000000E+00 0. -1.
         11    1    3    3    0    0 -0.36683453528E+01 -0.56856610932E+01  0.10257508151E+02  0.12288204646E+02  0.51100000000E-03 0. -1.
        -11    1    3    3    0    0 -0.20104420904E+02 -0.60456200134E+01  0.12257309127E+02  0.24310057353E+02  0.51100000000E-03 0.  1.
         12    1    3    3    0    0 -0.35298406582E+01 -0.10129908124E+02  0.31810744337E+01  0.11189014623E+02  0.00000000000E+00 0. -1.
</event>
<event>
 7    1  0.1418970E-010  0.4778727E+02  0.7816164E-02  0.1312668E+00
        -11   -1    0    0    0    0  0.00000000000E+00  0.00000000000E+00  0.45593999997E+02  0.45594000000E+02  0.51100000000E-03 0. -1.
         11   -1    0    0    0    0 -0.00000000000E+00 -0.00000000000E+00 -0.45593999997E+02  0.45594000000E+02  0.51100000000E-03 0.  1.
    9900012    2    1    2    0    0 -0.38978335440E+02 -0.17554493240E+02 -0.74934757340E+01  0.47787273680E+02  0.20000012015E+02 0.  0.
         12    1    1    2    0    0  0.38978335440E+02  0.17554493240E+02  0.74934757340E+01  0.43400726320E+02  0.00000000000E+00 0. -1.
         11    1    3    3    0    0 -0.18019929921E+02 -0.76753042281E+01 -0.11849205977E+02  0.22891742002E+02  0.51100000000E-03 0. -1.
        -11    1    3    3    0    0 -0.13920476086E+02 -0.27114368735E+01  0.67858160764E+00  0.14198310379E+02  0.51100000000E-03 0.  1.
         12    1    3    3    0    0 -0.70379294334E+01 -0.71677521383E+01  0.36771486349E+01  0.10697221299E+02  0.00000000000E+00 0. -1.
</event>
<event>
 7    1  0.1418970E-010  0.4778729E+02  0.7816164E-02  0.1312668E+00
        -11   -1    0    0    0    0  0.00000000000E+00  0.00000000000E+00  0.45593999997E+02  0.45594000000E+02  0.51100000000E-03 0.  1.
         11   -1    0    0    0    0 -0.00000000000E+00 -0.00000000000E+00 -0.45593999997E+02  0.45594000000E+02  0.51100000000E-03 0. -1.
    9900012    2    1    2    0    0  0.88812690882E+01  0.87262968660E-01  0.42482201782E+02  0.47787285447E+02  0.20000065666E+02 0.  0.
         12    1    1    2    0    0 -0.88812690882E+01 -0.87262968660E-01 -0.42482201782E+02  0.43400714553E+02  0.00000000000E+00 0. -1.
         11    1    3    3    0    0  0.60455729049E+01  0.36746890007E+01  0.20819626012E+02  0.21988840773E+02  0.51100000000E-03 0. -1.
        -11    1    3    3    0    0  0.39764375148E+01  0.43386005364E+01  0.75559460851E+01  0.95774647703E+01  0.51100000000E-03 0.  1.
        -12    1    3    3    0    0 -0.11407413316E+01 -0.79260265684E+01  0.14106629685E+02  0.16220979903E+02  0.00000000000E+00 0.  1.
</event>
<event>
 7    1  0.1418970E-010  0.4778727E+02  0.7816164E-02  0.1312668E+00
        -11   -1    0    0    0    0  0.00000000000E+00  0.00000000000E+00  0.45593999997E+02  0.45594000000E+02  0.51100000000E-03 0.  1.
         11   -1    0    0    0    0 -0.00000000000E+00 -0.00000000000E+00 -0.45593999997E+02  0.45594000000E+02  0.51100000000E-03 0. -1.
    9900012    2    1    2    0    0 -0.72103122133E+01  0.40218213602E+02  0.14633179471E+02  0.47787271331E+02  0.20000001307E+02 0.  0.
         12    1    1    2    0    0  0.72103122133E+01 -0.40218213602E+02 -0.14633179471E+02  0.43400728669E+02  0.00000000000E+00 0. -1.
         11    1    3    3    0    0 -0.22257306282E+01  0.15205642467E+02 -0.35374442637E+01  0.15769557757E+02  0.51100000000E-03 0. -1.
        -11    1    3    3    0    0  0.88882380412E-01  0.43468994247E+01  0.62900830181E+01  0.76464749605E+01  0.51100000000E-03 0.  1.
        -12    1    3    3    0    0 -0.50734639656E+01  0.20665671710E+02  0.11880540717E+02  0.24371238614E+02  0.00000000000E+00 0.  1.
</event>
<event>
 7    1  0.1418970E-010  0.4778727E+02  0.7816164E-02  0.1312668E+00
        -11   -1    0    0    0    0  0.00000000000E+00  0.00000000000E+00  0.45593999997E+02  0.45594000000E+02  0.51100000000E-03 0.  1.
         11   -1    0    0    0    0 -0.00000000000E+00 -0.00000000000E+00 -0.45593999997E+02  0.45594000000E+02  0.51100000000E-03 0. -1.
    9900012    2    1    2    0    0  0.11451237910E+02 -0.19749983947E+02  0.36911120845E+02  0.47787267776E+02  0.19999985097E+02 0.  0.
         12    1    1    2    0    0 -0.11451237910E+02  0.19749983947E+02 -0.36911120845E+02  0.43400732224E+02  0.00000000000E+00 0. -1.
         11    1    3    3    0    0  0.16362158841E+01  0.17886884088E+01  0.79388758244E+00  0.25508560127E+01  0.51100000000E-03 0. -1.
        -11    1    3    3    0    0  0.47011731289E+01 -0.15366296544E+02  0.12689952325E+02  0.20475814723E+02  0.51100000000E-03 0.  1.
        -12    1    3    3    0    0  0.51138488971E+01 -0.61723758117E+01  0.23427280937E+02  0.24760597040E+02  0.00000000000E+00 0.  1.
</event>
<event>
 7    1  0.1418970E-010  0.4778726E+02  0.7816164E-02  0.1312668E+00
        -11   -1    0    0    0    0  0.00000000000E+00  0.00000000000E+00  0.45593999997E+02  0.45594000000E+02  0.51100000000E-03 0. -1.
         11   -1    0    0    0    0 -0.00000000000E+00 -0.00000000000E+00 -0.45593999997E+02  0.45594000000E+02  0.51100000000E-03 0.  1.
    9900012    2    1    2    0    0  0.36348179614E+02  0.59538210800E+01 -0.22956169075E+02  0.47787264461E+02  0.19999969984E+02 0.  0.
         12    1    1    2    0    0 -0.36348179614E+02 -0.59538210800E+01  0.22956169075E+02  0.43400735539E+02  0.00000000000E+00 0. -1.
         11    1    3    3    0    0  0.65667830769E+01 -0.37733783202E+01 -0.12434639679E+02  0.14559577196E+02  0.51100000000E-03 0. -1.
        -11    1    3    3    0    0  0.80874232924E+01  0.40784050565E+01 -0.38191750036E+01  0.98298474701E+01  0.51100000000E-03 0.  1.
         12    1    3    3    0    0  0.21693973244E+02  0.56487943437E+01 -0.67023543932E+01  0.23397839795E+02  0.00000000000E+00 0. -1.
</event>
<event>
 7    1  0.1418970E-010  0.4778727E+02  0.7816164E-02  0.1312668E+00
        -11   -1    0    0    0    0  0.00000000000E+00  0.00000000000E+00  0.45593999997E+02  0.45594000000E+02  0.51100000000E-03 0.  1.
         11   -1    0    0    0    0 -0.00000000000E+00 -0.00000000000E+00 -0.45593999997E+02  0.45594000000E+02  0.51100000000E-03 0. -1.
    9900012    2    1    2    0    0 -0.15230972653E+02 -0.11235432129E+01  0.40624849515E+02  0.47787271027E+02  0.19999999918E+02 0.  0.
         12    1    1    2    0    0  0.15230972653E+02  0.11235432129E+01 -0.40624849515E+02  0.43400728973E+02  0.00000000000E+00 0. -1.
         11    1    3    3    0    0 -0.51789204810E+01  0.80090266602E+01  0.15005729330E+02  0.17780259795E+02  0.51100000000E-03 0. -1.
        -11    1    3    3    0    0  0.12304237120E+01 -0.74664625134E+00  0.36692688311E+01  0.39414409994E+01  0.51100000000E-03 0.  1.
        -12    1    3    3    0    0 -0.11282475884E+02 -0.83859236217E+01  0.21949851354E+02  0.26065570232E+02  0.00000000000E+00 0.  1.
</event>
<event>
 7    1  0.1418970E-010  0.4778728E+02  0.7816164E-02  0.1312668E+00
        -11   -1    0    0    0    0  0.00000000000E+00  0.00000000000E+00  0.45593999997E+02  0.45594000000E+02  0.51100000000E-03 0.  1.
         11   -1    0    0    0    0 -0.00000000000E+00 -0.00000000000E+00 -0.45593999997E+02  0.45594000000E+02  0.51100000000E-03 0. -1.
    9900012    2    1    2    0    0  0.22046435775E+02 -0.27069938950E+01  0.37286053365E+02  0.47787275100E+02  0.20000018491E+02 0.  0.
         12    1    1    2    0    0 -0.22046435775E+02  0.27069938950E+01 -0.37286053365E+02  0.43400724900E+02  0.00000000000E+00 0. -1.
         11    1    3    3    0    0  0.14466748423E+02 -0.87467412975E+01  0.17707482587E+02  0.24481569253E+02  0.51100000000E-03 0. -1.
        -11    1    3    3    0    0  0.75886732954E+01  0.26982392149E+01  0.17761033458E+02  0.19501865731E+02  0.51100000000E-03 0.  1.
         12    1    3    3    0    0 -0.89859438327E-02  0.33415081876E+01  0.18175373199E+01  0.38038401155E+01  0.00000000000E+00 0. -1.
</event>
<event>
 7    1  0.1418970E-010  0.4778727E+02  0.7816164E-02  0.1312668E+00
        -11   -1    0    0    0    0  0.00000000000E+00  0.00000000000E+00  0.45593999997E+02  0.45594000000E+02  0.51100000000E-03 0. -1.
         11   -1    0    0    0    0 -0.00000000000E+00 -0.00000000000E+00 -0.45593999997E+02  0.45594000000E+02  0.51100000000E-03 0.  1.
    9900012    2    1    2    0    0  0.10237920134E+02 -0.40147719750E+02 -0.12921644574E+02  0.47787270647E+02  0.19999998190E+02 0.  0.
         12    1    1    2    0    0 -0.10237920134E+02  0.40147719750E+02  0.12921644574E+02  0.43400729353E+02  0.00000000000E+00 0. -1.
         11    1    3    3    0    0  0.14641847964E+01 -0.25609351232E+02 -0.57108457457E+01  0.26279202177E+02  0.51100000000E-03 0. -1.
        -11    1    3    3    0    0  0.50588763691E+01 -0.62828500876E+01  0.22897084228E+01  0.83850581550E+01  0.51100000000E-03 0.  1.
         12    1    3    3    0    0  0.37148589688E+01 -0.82555184308E+01 -0.95005072512E+01  0.13123010316E+02  0.00000000000E+00 0. -1.
</event>
<event>
 7    1  0.1418970E-010  0.4778727E+02  0.7816164E-02  0.1312668E+00
        -11   -1    0    0    0    0  0.00000000000E+00  0.00000000000E+00  0.45593999997E+02  0.45594000000E+02  0.51100000000E-03 0.  1.
         11   -1    0    0    0    0 -0.00000000000E+00 -0.00000000000E+00 -0.45593999997E+02  0.45594000000E+02  0.51100000000E-03 0. -1.
    9900012    2    1    2    0    0  0.41775904842E+02 -0.96157477120E+01  0.67774811428E+01  0.47787273277E+02  0.20000010180E+02 0.  0.
         12    1    1    2    0    0 -0.41775904842E+02  0.96157477120E+01 -0.67774811428E+01  0.43400726723E+02  0.00000000000E+00 0. -1.
         11    1    3    3    0    0  0.15794571622E+02  0.50918110593E+00  0.69354249121E+01  0.17257690376E+02  0.51100000000E-03 0. -1.
        -11    1    3    3    0    0 -0.49451101878E+00 -0.30968336230E+01  0.26593267826E-01  0.31361803359E+01  0.51100000000E-03 0.  1.
         12    1    3    3    0    0  0.26475844238E+02 -0.70280951949E+01 -0.18453703711E+00  0.27393402566E+02  0.00000000000E+00 0. -1.
</event>
<event>
 7    1  0.1418970E-010  0.4778726E+02  0.7816164E-02  0.1312668E+00
        -11   -1    0    0    0    0  0.00000000000E+00  0.00000000000E+00  0.45593999997E+02  0.45594000000E+02  0.51100000000E-03 0.  1.
         11   -1    0    0    0    0 -0.00000000000E+00 -0.00000000000E+00 -0.45593999997E+02  0.45594000000E+02  0.51100000000E-03 0. -1.
    9900012    2    1    2    0    0  0.14921448668E+02  0.88734549797E-01  0.40754956109E+02  0.47787263236E+02  0.19999964400E+02 0.  0.
         12    1    1    2    0    0 -0.14921448668E+02 -0.88734549797E-01 -0.40754956109E+02  0.43400736764E+02  0.00000000000E+00 0. -1.
         11    1    3    3    0    0  0.10906817734E+01 -0.12960241478E+00  0.30515284984E+02  0.30535045463E+02  0.51100000000E-03 0.  1.
        -11    1    3    3    0    0  0.69457841259E+01 -0.30498857466E+00  0.45947548247E+01  0.83335891016E+01  0.51100000000E-03 0. -1.
        -12    1    3    3    0    0  0.68849827692E+01  0.52332553924E+00  0.56449163004E+01  0.89186286721E+01  0.00000000000E+00 0.  1.
</event>
<event>
 7    1  0.1418970E-010  0.4778727E+02  0.7816164E-02  0.1312668E+00
        -11   -1    0    0    0    0  0.00000000000E+00  0.00000000000E+00  0.45593999997E+02  0.45594000000E+02  0.51100000000E-03 0.  1.
         11   -1    0    0    0    0 -0.00000000000E+00 -0.00000000000E+00 -0.45593999997E+02  0.45594000000E+02  0.51100000000E-03 0. -1.
    9900012    2    1    2    0    0  0.76914753524E+01 -0.19274814035E+01  0.42670240151E+02  0.47787269912E+02  0.19999994837E+02 0.  0.
         12    1    1    2    0    0 -0.76914753524E+01  0.19274814035E+01 -0.42670240151E+02  0.43400730088E+02  0.00000000000E+00 0. -1.
         11    1    3    3    0    0  0.12504952657E+01  0.91980973182E+00  0.97189642953E+01  0.98421570596E+01  0.51100000000E-03 0. -1.
        -11    1    3    3    0    0  0.49290608354E+01  0.27743747928E+01  0.31420825289E+02  0.31925868168E+02  0.51100000000E-03 0.  1.
         12    1    3    3    0    0  0.15119192513E+01 -0.56216659282E+01  0.15304505664E+01  0.60192446841E+01  0.00000000000E+00 0. -1.
</event>
<event>
 7    1  0.1418970E-010  0.4778727E+02  0.7816164E-02  0.1312668E+00
        -11   -1    0    0    0    0  0.00000000000E+00  0.00000000000E+00  0.45593999997E+02  0.45594000000E+02  0.51100000000E-03 0.  1.
         11   -1    0    0    0    0 -0.00000000000E+00 -0.00000000000E+00 -0.45593999997E+02  0.45594000000E+02  0.51100000000E-03 0. -1.
    9900012    2    1    2    0    0  0.25910925998E+02  0.24509237840E+02  0.24729418036E+02  0.47787274868E+02  0.20000017434E+02 0.  0.
         12    1    1    2    0    0 -0.25910925998E+02 -0.24509237840E+02 -0.24729418036E+02  0.43400725132E+02  0.00000000000E+00 0. -1.
         11    1    3    3    0    0  0.11948160368E+01  0.13274365962E+02  0.94108180239E+01  0.16315632785E+02  0.51100000000E-03 0. -1.
        -11    1    3    3    0    0  0.67846130646E+01  0.16074473865E+01  0.54667439214E+01  0.88600310891E+01  0.51100000000E-03 0.  1.
        -12    1    3    3    0    0  0.17931496897E+02  0.96274244922E+01  0.98518560903E+01  0.22611610994E+02  0.00000000000E+00 0.  1.
</event>
<event>
 7    1  0.1418970E-010  0.4778727E+02  0.7816164E-02  0.1312668E+00
        -11   -1    0    0    0    0  0.00000000000E+00  0.00000000000E+00  0.45593999997E+02  0.45594000000E+02  0.51100000000E-03 0.  1.
         11   -1    0    0    0    0 -0.00000000000E+00 -0.00000000000E+00 -0.45593999997E+02  0.45594000000E+02  0.51100000000E-03 0. -1.
    9900012    2    1    2    0    0  0.35597200216E+01 -0.38790991616E+02  0.19136631809E+02  0.47787270580E+02  0.19999997884E+02 0.  0.
         12    1    1    2    0    0 -0.35597200216E+01  0.38790991616E+02 -0.19136631809E+02  0.43400729420E+02  0.00000000000E+00 0. -1.
         11    1    3    3    0    0  0.31561882939E+01  0.26251795724E+00 -0.37499809895E-01  0.31673090662E+01  0.51100000000E-03 0.  1.
        -11    1    3    3    0    0 -0.20415140826E+01 -0.12263126215E+01  0.10180123033E+01  0.25899752327E+01  0.51100000000E-03 0. -1.
        -12    1    3    3    0    0  0.24450458104E+01 -0.37827196951E+02  0.18156119316E+02  0.42029986281E+02  0.00000000000E+00 0.  1.
</event>
<event>
 7    1  0.1418970E-010  0.4778728E+02  0.7816164E-02  0.1312668E+00
        -11   -1    0    0    0    0  0.00000000000E+00  0.00000000000E+00  0.45593999997E+02  0.45594000000E+02  0.51100000000E-03 0.  1.
         11   -1    0    0    0    0 -0.00000000000E+00 -0.00000000000E+00 -0.45593999997E+02  0.45594000000E+02  0.51100000000E-03 0. -1.
    9900012    2    1    2    0    0 -0.42325532027E+02  0.40687755333E+01  0.86958169135E+01  0.47787276186E+02  0.20000023444E+02 0.  0.
         12    1    1    2    0    0  0.42325532027E+02 -0.40687755333E+01 -0.86958169135E+01  0.43400723814E+02  0.00000000000E+00 0. -1.
         11    1    3    3    0    0 -0.47228553900E+01 -0.29534476540E+01  0.47470169974E+01  0.73186328446E+01  0.51100000000E-03 0. -1.
        -11    1    3    3    0    0 -0.27521704890E+02  0.49743823829E+01  0.84844043505E+01  0.29226252541E+02  0.51100000000E-03 0.  1.
        -12    1    3    3    0    0 -0.10080971747E+02  0.20478408044E+01 -0.45356044343E+01  0.11242390801E+02  0.00000000000E+00 0.  1.
</event>
<event>
 7    1  0.1418970E-010  0.4778730E+02  0.7816164E-02  0.1312668E+00
        -11   -1    0    0    0    0  0.00000000000E+00  0.00000000000E+00  0.45593999997E+02  0.45594000000E+02  0.51100000000E-03 0.  1.
         11   -1    0    0    0    0 -0.00000000000E+00 -0.00000000000E+00 -0.45593999997E+02  0.45594000000E+02  0.51100000000E-03 0. -1.
    9900012    2    1    2    0    0 -0.14731798525E+02  0.40266072837E+02  0.67259466566E+01  0.47787298762E+02  0.20000126377E+02 0.  0.
         12    1    1    2    0    0  0.14731798525E+02 -0.40266072837E+02 -0.67259466566E+01  0.43400701238E+02  0.00000000000E+00 0. -1.
         11    1    3    3    0    0  0.12623216962E+01  0.12993041561E+02 -0.18377746347E+01  0.13182943561E+02  0.51100000000E-03 0. -1.
        -11    1    3    3    0    0 -0.21586834603E+01  0.65208259013E+01  0.66968790385E+01  0.95931889294E+01  0.51100000000E-03 0.  1.
         12    1    3    3    0    0 -0.13835436761E+02  0.20752205375E+02  0.18668422528E+01  0.25011166272E+02  0.00000000000E+00 0. -1.
</event>
<event>
 7    1  0.1418970E-010  0.4778727E+02  0.7816164E-02  0.1312668E+00
        -11   -1    0    0    0    0  0.00000000000E+00  0.00000000000E+00  0.45593999997E+02  0.45594000000E+02  0.51100000000E-03 0.  1.
         11   -1    0    0    0    0 -0.00000000000E+00 -0.00000000000E+00 -0.45593999997E+02  0.45594000000E+02  0.51100000000E-03 0. -1.
    9900012    2    1    2    0    0 -0.40356159364E+02 -0.25986644090E+01  0.15755964703E+02  0.47787273289E+02  0.20000010234E+02 0.  0.
         12    1    1    2    0    0  0.40356159364E+02  0.25986644090E+01 -0.15755964703E+02  0.43400726711E+02  0.00000000000E+00 0. -1.
         11    1    3    3    0    0 -0.21783909856E+02 -0.14863428126E+01 -0.19872002350E+01  0.21924801222E+02  0.51100000000E-03 0. -1.
        -11    1    3    3    0    0 -0.58652439588E+01  0.55994371274E+00  0.69098130070E+01  0.90807565605E+01  0.51100000000E-03 0.  1.
         12    1    3    3    0    0 -0.12707005549E+02 -0.16722653091E+01  0.10833351931E+02  0.16781715507E+02  0.00000000000E+00 0. -1.
</event>
<event>
 7    1  0.1418970E-010  0.4778727E+02  0.7816164E-02  0.1312668E+00
        -11   -1    0    0    0    0  0.00000000000E+00  0.00000000000E+00  0.45593999997E+02  0.45594000000E+02  0.51100000000E-03 0.  1.
         11   -1    0    0    0    0 -0.00000000000E+00 -0.00000000000E+00 -0.45593999997E+02  0.45594000000E+02  0.51100000000E-03 0. -1.
    9900012    2    1    2    0    0 -0.25386416652E+02 -0.26281035962E+02  0.23419233551E+02  0.47787268419E+02  0.19999988029E+02 0.  0.
         12    1    1    2    0    0  0.25386416652E+02  0.26281035962E+02 -0.23419233551E+02  0.43400731581E+02  0.00000000000E+00 0. -1.
         11    1    3    3    0    0 -0.21344854416E+01 -0.49150351636E+01  0.13096153764E+02  0.14150012100E+02  0.51100000000E-03 0. -1.
        -11    1    3    3    0    0 -0.11343622357E+02 -0.92176351979E+01  0.73767582691E+01  0.16372511403E+02  0.51100000000E-03 0.  1.
         12    1    3    3    0    0 -0.11908308853E+02 -0.12148365601E+02  0.29463215177E+01  0.17264744916E+02  0.00000000000E+00 0. -1.
</event>
<event>
 7    1  0.1418970E-010  0.4778728E+02  0.7816164E-02  0.1312668E+00
        -11   -1    0    0    0    0  0.00000000000E+00  0.00000000000E+00  0.45593999997E+02  0.45594000000E+02  0.51100000000E-03 0.  1.
         11   -1    0    0    0    0 -0.00000000000E+00 -0.00000000000E+00 -0.45593999997E+02  0.45594000000E+02  0.51100000000E-03 0. -1.
    9900012    2    1    2    0    0  0.11301874253E+02  0.27558912281E+02  0.31565754935E+02  0.47787275440E+02  0.20000020039E+02 0.  0.
         12    1    1    2    0    0 -0.11301874253E+02 -0.27558912281E+02 -0.31565754935E+02  0.43400724560E+02  0.00000000000E+00 0. -1.
         11    1    3    3    0    0  0.18678002773E+01  0.16946842733E+02  0.10372206885E+02  0.19956623773E+02  0.51100000000E-03 0. -1.
        -11    1    3    3    0    0  0.72988645142E+01  0.12712504633E+02  0.19482128156E+02  0.24381027767E+02  0.51100000000E-03 0.  1.
         12    1    3    3    0    0  0.21352094614E+01 -0.21004350850E+01  0.17114198946E+01  0.34496238992E+01  0.00000000000E+00 0. -1.
</event>
<event>
 7    1  0.1418970E-010  0.4778727E+02  0.7816164E-02  0.1312668E+00
        -11   -1    0    0    0    0  0.00000000000E+00  0.00000000000E+00  0.45593999997E+02  0.45594000000E+02  0.51100000000E-03 0.  1.
         11   -1    0    0    0    0 -0.00000000000E+00 -0.00000000000E+00 -0.45593999997E+02  0.45594000000E+02  0.51100000000E-03 0. -1.
    9900012    2    1    2    0    0  0.41519966283E+01  0.40652825868E+02  0.14619589912E+02  0.47787265718E+02  0.19999975714E+02 0.  0.
         12    1    1    2    0    0 -0.41519966283E+01 -0.40652825868E+02 -0.14619589912E+02  0.43400734282E+02  0.00000000000E+00 0. -1.
         11    1    3    3    0    0 -0.14085604129E+01  0.13001362952E+02  0.93892185980E+01  0.16098972240E+02  0.51100000000E-03 0. -1.
        -11    1    3    3    0    0 -0.98252335948E+00  0.12092464311E+02 -0.35785660642E+01  0.12649078251E+02  0.51100000000E-03 0.  1.
         12    1    3    3    0    0  0.65430804007E+01  0.15558998605E+02  0.88089373780E+01  0.19039215227E+02  0.00000000000E+00 0. -1.
</event>
<event>
 7    1  0.1418970E-010  0.4778728E+02  0.7816164E-02  0.1312668E+00
        -11   -1    0    0    0    0  0.00000000000E+00  0.00000000000E+00  0.45593999997E+02  0.45594000000E+02  0.51100000000E-03 0.  1.
         11   -1    0    0    0    0 -0.00000000000E+00 -0.00000000000E+00 -0.45593999997E+02  0.45594000000E+02  0.51100000000E-03 0. -1.
    9900012    2    1    2    0    0  0.12069107246E+02  0.41628150752E+02  0.22485982606E+01  0.47787280204E+02  0.20000041760E+02 0.  0.
         12    1    1    2    0    0 -0.12069107246E+02 -0.41628150752E+02 -0.22485982606E+01  0.43400719796E+02  0.00000000000E+00 0. -1.
         11    1    3    3    0    0  0.61128215666E+01  0.47622254004E+01  0.27762847780E+00  0.77538671708E+01  0.51100000000E-03 0. -1.
        -11    1    3    3    0    0  0.81581018734E+01  0.33171077470E+02  0.53340994241E+01  0.34573510433E+02  0.51100000000E-03 0.  1.
        -12    1    3    3    0    0 -0.22018161944E+01  0.36948478809E+01 -0.33631296412E+01  0.54599025999E+01  0.00000000000E+00 0.  1.
</event>
<event>
 7    1  0.1418970E-010  0.4778729E+02  0.7816164E-02  0.1312668E+00
        -11   -1    0    0    0    0  0.00000000000E+00  0.00000000000E+00  0.45593999997E+02  0.45594000000E+02  0.51100000000E-03 0. -1.
         11   -1    0    0    0    0 -0.00000000000E+00 -0.00000000000E+00 -0.45593999997E+02  0.45594000000E+02  0.51100000000E-03 0.  1.
    9900012    2    1    2    0    0  0.19125464651E+02  0.31883572825E+02 -0.22389186885E+02  0.47787293743E+02  0.20000103492E+02 0.  0.
         12    1    1    2    0    0 -0.19125464651E+02 -0.31883572825E+02  0.22389186885E+02  0.43400706257E+02  0.00000000000E+00 0. -1.
         11    1    3    3    0    0  0.20901228047E+01  0.31548551213E+01 -0.11553682276E+02  0.12157684754E+02  0.51100000000E-03 0. -1.
        -11    1    3    3    0    0  0.77520528398E+01  0.75641933775E+01 -0.34376953632E+01  0.11363498333E+02  0.51100000000E-03 0.  1.
         12    1    3    3    0    0  0.92832890067E+01  0.21164524327E+02 -0.73978092453E+01  0.24266110656E+02  0.00000000000E+00 0. -1.
</event>
<event>
 7    1  0.1418970E-010  0.4778727E+02  0.7816164E-02  0.1312668E+00
        -11   -1    0    0    0    0  0.00000000000E+00  0.00000000000E+00  0.45593999997E+02  0.45594000000E+02  0.51100000000E-03 0.  1.
         11   -1    0    0    0    0 -0.00000000000E+00 -0.00000000000E+00 -0.45593999997E+02  0.45594000000E+02  0.51100000000E-03 0. -1.
    9900012    2    1    2    0    0  0.29934255855E+01 -0.43027118690E+02  0.48300971713E+01  0.47787269842E+02  0.19999994520E+02 0.  0.
         12    1    1    2    0    0 -0.29934255855E+01  0.43027118690E+02 -0.48300971713E+01  0.43400730158E+02  0.00000000000E+00 0. -1.
         11    1    3    3    0    0 -0.47478516824E+01 -0.26514514683E+01  0.15658154688E+01  0.56589812537E+01  0.51100000000E-03 0. -1.
        -11    1    3    3    0    0  0.37460524728E+01 -0.13911983348E+02 -0.28223200330E+01  0.14681337828E+02  0.51100000000E-03 0.  1.
        -12    1    3    3    0    0  0.39952247951E+01 -0.26463683874E+02  0.60866017356E+01  0.27446950761E+02  0.00000000000E+00 0.  1.
</event>
<event>
 7    1  0.1418970E-010  0.4778727E+02  0.7816164E-02  0.1312668E+00
        -11   -1    0    0    0    0  0.00000000000E+00  0.00000000000E+00  0.45593999997E+02  0.45594000000E+02  0.51100000000E-03 0. -1.
         11   -1    0    0    0    0 -0.00000000000E+00 -0.00000000000E+00 -0.45593999997E+02  0.45594000000E+02  0.51100000000E-03 0.  1.
    9900012    2    1    2    0    0 -0.35038476670E+02  0.18961726263E+02 -0.17215729793E+02  0.47787271175E+02  0.20000000597E+02 0.  0.
         12    1    1    2    0    0  0.35038476670E+02 -0.18961726263E+02  0.17215729793E+02  0.43400728825E+02  0.00000000000E+00 0. -1.
         11    1    3    3    0    0 -0.70805004691E+00 -0.18229261430E+01 -0.19840347056E+01  0.27858191911E+01  0.51100000000E-03 0. -1.
        -11    1    3    3    0    0 -0.27843567367E+02  0.11457563912E+02 -0.14999172704E+02  0.33638002268E+02  0.51100000000E-03 0.  1.
        -12    1    3    3    0    0 -0.64868592557E+01  0.93270884944E+01 -0.23252238257E+00  0.11363449716E+02  0.00000000000E+00 0.  1.
</event>
<event>
 7    1  0.1418970E-010  0.4778729E+02  0.7816164E-02  0.1312668E+00
        -11   -1    0    0    0    0  0.00000000000E+00  0.00000000000E+00  0.45593999997E+02  0.45594000000E+02  0.51100000000E-03 0.  1.
         11   -1    0    0    0    0 -0.00000000000E+00 -0.00000000000E+00 -0.45593999997E+02  0.45594000000E+02  0.51100000000E-03 0. -1.
    9900012    2    1    2    0    0  0.10081445828E+02 -0.42089459026E+02 -0.32346732670E+01  0.47787294680E+02  0.20000107765E+02 0.  0.
         12    1    1    2    0    0 -0.10081445828E+02  0.42089459026E+02  0.32346732670E+01  0.43400705320E+02  0.00000000000E+00 0. -1.
         11    1    3    3    0    0  0.42988758892E+01 -0.40325995997E+01 -0.50673471679E+01  0.77730432280E+01  0.51100000000E-03 0. -1.
        -11    1    3    3    0    0  0.14212164791E+01 -0.13242340482E+02 -0.44602014205E+01  0.14045384818E+02  0.51100000000E-03 0.  1.
         12    1    3    3    0    0  0.43613534598E+01 -0.24814518945E+02  0.62928753214E+01  0.25968866634E+02  0.00000000000E+00 0. -1.
</event>
<event>
 7    1  0.1418970E-010  0.4778727E+02  0.7816164E-02  0.1312668E+00
        -11   -1    0    0    0    0  0.00000000000E+00  0.00000000000E+00  0.45593999997E+02  0.45594000000E+02  0.51100000000E-03 0.  1.
         11   -1    0    0    0    0 -0.00000000000E+00 -0.00000000000E+00 -0.45593999997E+02  0.45594000000E+02  0.51100000000E-03 0. -1.
    9900012    2    1    2    0    0 -0.15588832328E+02 -0.40427363357E+02 -0.24980087731E+01  0.47787269025E+02  0.19999990791E+02 0.  0.
         12    1    1    2    0    0  0.15588832328E+02  0.40427363357E+02  0.24980087731E+01  0.43400730975E+02  0.00000000000E+00 0. -1.
         11    1    3    3    0    0 -0.35445329329E+01 -0.13914365261E+02 -0.21690711431E+01  0.14521643992E+02  0.51100000000E-03 0. -1.
        -11    1    3    3    0    0  0.23818653352E+01 -0.41235955904E+01 -0.42020324078E+01  0.63509369140E+01  0.51100000000E-03 0.  1.
         12    1    3    3    0    0 -0.14426164730E+02 -0.22389402506E+02  0.38730947778E+01  0.26914688119E+02  0.00000000000E+00 0. -1.
</event>
<event>
 7    1  0.1418970E-010  0.4778727E+02  0.7816164E-02  0.1312668E+00
        -11   -1    0    0    0    0  0.00000000000E+00  0.00000000000E+00  0.45593999997E+02  0.45594000000E+02  0.51100000000E-03 0. -1.
         11   -1    0    0    0    0 -0.00000000000E+00 -0.00000000000E+00 -0.45593999997E+02  0.45594000000E+02  0.51100000000E-03 0.  1.
    9900012    2    1    2    0    0 -0.32096337199E+02 -0.27085894184E+02 -0.10945449147E+02  0.47787269794E+02  0.19999994301E+02 0.  0.
         12    1    1    2    0    0  0.32096337199E+02  0.27085894184E+02  0.10945449147E+02  0.43400730206E+02  0.00000000000E+00 0. -1.
         11    1    3    3    0    0 -0.16029888117E+01 -0.40391138797E+01 -0.17607450583E+01  0.46887351690E+01  0.51100000000E-03 0. -1.
        -11    1    3    3    0    0 -0.16391658305E+02 -0.17904243557E+02 -0.13103472917E+02  0.27585311346E+02  0.51100000000E-03 0.  1.
         12    1    3    3    0    0 -0.14101690082E+02 -0.51425367478E+01  0.39187688282E+01  0.15513223279E+02  0.00000000000E+00 0. -1.
</event>
<event>
 7    1  0.1418970E-010  0.4778726E+02  0.7816164E-02  0.1312668E+00
        -11   -1    0    0    0    0  0.00000000000E+00  0.00000000000E+00  0.45593999997E+02  0.45594000000E+02  0.51100000000E-03 0.  1.
         11   -1    0    0    0    0 -0.00000000000E+00 -0.00000000000E+00 -0.45593999997E+02  0.45594000000E+02  0.51100000000E-03 0. -1.
    9900012    2    1    2    0    0  0.42279972894E+01 -0.53236852105E+01  0.42864977477E+02  0.47787264068E+02  0.19999968194E+02 0.  0.
         12    1    1    2    0    0 -0.42279972894E+01  0.53236852105E+01 -0.42864977477E+02  0.43400735932E+02  0.00000000000E+00 0. -1.
         11    1    3    3    0    0  0.51917829347E+01 -0.53798056513E+01  0.34135306280E+01  0.82188265888E+01  0.51100000000E-03 0. -1.
        -11    1    3    3    0    0  0.76543796147E+00  0.82847761186E+00  0.16905670994E+02  0.16943257728E+02  0.51100000000E-03 0.  1.
        -12    1    3    3    0    0 -0.17292236068E+01 -0.77235717105E+00  0.22545775855E+02  0.22625179752E+02  0.00000000000E+00 0.  1.
</event>
<event>
 7    1  0.1418970E-010  0.4778728E+02  0.7816164E-02  0.1312668E+00
        -11   -1    0    0    0    0  0.00000000000E+00  0.00000000000E+00  0.45593999997E+02  0.45594000000E+02  0.51100000000E-03 0.  1.
         11   -1    0    0    0    0 -0.00000000000E+00 -0.00000000000E+00 -0.45593999997E+02  0.45594000000E+02  0.51100000000E-03 0. -1.
    9900012    2    1    2    0    0 -0.65655212487E+01  0.28183725793E+02  0.32344925734E+02  0.47787277776E+02  0.20000030692E+02 0.  0.
         12    1    1    2    0    0  0.65655212487E+01 -0.28183725793E+02 -0.32344925734E+02  0.43400722224E+02  0.00000000000E+00 0. -1.
         11    1    3    3    0    0  0.15541218301E+01  0.77832373677E+01  0.14170735831E+02  0.16242039060E+02  0.51100000000E-03 0. -1.
        -11    1    3    3    0    0 -0.23175587493E+01  0.18805054555E+02  0.10087327400E+02  0.21465212082E+02  0.51100000000E-03 0.  1.
         12    1    3    3    0    0 -0.58020843295E+01  0.15954338700E+01  0.80868625032E+01  0.10080026634E+02  0.00000000000E+00 0. -1.
</event>
<event>
 7    1  0.1418970E-010  0.4778727E+02  0.7816164E-02  0.1312668E+00
        -11   -1    0    0    0    0  0.00000000000E+00  0.00000000000E+00  0.45593999997E+02  0.45594000000E+02  0.51100000000E-03 0.  1.
         11   -1    0    0    0    0 -0.00000000000E+00 -0.00000000000E+00 -0.45593999997E+02  0.45594000000E+02  0.51100000000E-03 0. -1.
    9900012    2    1    2    0    0 -0.54524467440E+01 -0.42109231047E+02  0.89836796293E+01  0.47787274032E+02  0.20000013620E+02 0.  0.
         12    1    1    2    0    0  0.54524467440E+01  0.42109231047E+02 -0.89836796293E+01  0.43400725968E+02  0.00000000000E+00 0. -1.
         11    1    3    3    0    0  0.26573200612E+01 -0.25703422321E+01  0.47214885939E+00  0.37270543200E+01  0.51100000000E-03 0. -1.
        -11    1    3    3    0    0 -0.61343505347E+01 -0.27810496119E+02  0.13054553583E+02  0.31328506513E+02  0.51100000000E-03 0.  1.
        -12    1    3    3    0    0 -0.19754162704E+01 -0.11728392696E+02 -0.45430228127E+01  0.12731713198E+02  0.00000000000E+00 0.  1.
</event>
<event>
 7    1  0.1418970E-010  0.4778727E+02  0.7816164E-02  0.1312668E+00
        -11   -1    0    0    0    0  0.00000000000E+00  0.00000000000E+00  0.45593999997E+02  0.45594000000E+02  0.51100000000E-03 0.  1.
         11   -1    0    0    0    0 -0.00000000000E+00 -0.00000000000E+00 -0.45593999997E+02  0.45594000000E+02  0.51100000000E-03 0. -1.
    9900012    2    1    2    0    0  0.26143843054E+02 -0.27328427526E+02  0.21290373330E+02  0.47787268702E+02  0.19999989320E+02 0.  0.
         12    1    1    2    0    0 -0.26143843054E+02  0.27328427526E+02 -0.21290373330E+02  0.43400731298E+02  0.00000000000E+00 0. -1.
         11    1    3    3    0    0  0.11192192684E+02 -0.13424708390E+02  0.19382468731E+02  0.26099196670E+02  0.51100000000E-03 0. -1.
        -11    1    3    3    0    0  0.57502954686E+01 -0.11362209140E+01  0.31351794178E+00  0.58698543170E+01  0.51100000000E-03 0.  1.
         12    1    3    3    0    0  0.92013549016E+01 -0.12767498222E+02  0.15943866563E+01  0.15818217715E+02  0.00000000000E+00 0. -1.
</event>
<event>
 7    1  0.1418970E-010  0.4778727E+02  0.7816164E-02  0.1312668E+00
        -11   -1    0    0    0    0  0.00000000000E+00  0.00000000000E+00  0.45593999997E+02  0.45594000000E+02  0.51100000000E-03 0. -1.
         11   -1    0    0    0    0 -0.00000000000E+00 -0.00000000000E+00 -0.45593999997E+02  0.45594000000E+02  0.51100000000E-03 0.  1.
    9900012    2    1    2    0    0 -0.60427687325E+01 -0.70207782602E+01 -0.42400668744E+02  0.47787273148E+02  0.20000009591E+02 0.  0.
         12    1    1    2    0    0  0.60427687325E+01  0.70207782602E+01  0.42400668744E+02  0.43400726852E+02  0.00000000000E+00 0. -1.
         11    1    3    3    0    0 -0.31882914484E+01  0.12535898198E+01 -0.12600735853E+02  0.13058148188E+02  0.51100000000E-03 0. -1.
        -11    1    3    3    0    0  0.51886897928E+01 -0.53124594581E+01 -0.63808056847E+01  0.97907818230E+01  0.51100000000E-03 0.  1.
        -12    1    3    3    0    0 -0.80431670769E+01 -0.29619086219E+01 -0.23419127206E+02  0.24938343137E+02  0.00000000000E+00 0.  1.
</event>
<event>
 7    1  0.1418970E-010  0.4778727E+02  0.7816164E-02  0.1312668E+00
        -11   -1    0    0    0    0  0.00000000000E+00  0.00000000000E+00  0.45593999997E+02  0.45594000000E+02  0.51100000000E-03 0.  1.
         11   -1    0    0    0    0 -0.00000000000E+00 -0.00000000000E+00 -0.45593999997E+02  0.45594000000E+02  0.51100000000E-03 0. -1.
    9900012    2    1    2    0    0 -0.22782571812E+02 -0.27221629796E+02  0.24971204808E+02  0.47787265252E+02  0.19999973590E+02 0.  0.
         12    1    1    2    0    0  0.22782571812E+02  0.27221629796E+02 -0.24971204808E+02  0.43400734748E+02  0.00000000000E+00 0. -1.
         11    1    3    3    0    0 -0.10525817837E+02 -0.10244061753E+02  0.70096621242E+00  0.14704590991E+02  0.51100000000E-03 0. -1.
        -11    1    3    3    0    0 -0.10782098761E+02 -0.15471874681E+02  0.16584806982E+02  0.25113509964E+02  0.51100000000E-03 0.  1.
        -12    1    3    3    0    0 -0.14746552142E+01 -0.15056933621E+01  0.76854316138E+01  0.79691642969E+01  0.00000000000E+00 0.  1.
</event>
<event>
 7    1  0.1418970E-010  0.4778727E+02  0.7816164E-02  0.1312668E+00
        -11   -1    0    0    0    0  0.00000000000E+00  0.00000000000E+00  0.45593999997E+02  0.45594000000E+02  0.51100000000E-03 0.  1.
         11   -1    0    0    0    0 -0.00000000000E+00 -0.00000000000E+00 -0.45593999997E+02  0.45594000000E+02  0.51100000000E-03 0. -1.
    9900012    2    1    2    0    0 -0.35716241109E+02  0.24590789901E+02  0.18073475225E+01  0.47787270375E+02  0.19999996949E+02 0.  0.
         12    1    1    2    0    0  0.35716241109E+02 -0.24590789901E+02 -0.18073475225E+01  0.43400729625E+02  0.00000000000E+00 0. -1.
         11    1    3    3    0    0 -0.33931783208E+01 -0.23912561388E+01 -0.16932102172E+01  0.44831602848E+01  0.51100000000E-03 0. -1.
        -11    1    3    3    0    0 -0.21805367902E+02  0.12447048197E+02  0.35863263401E+01  0.25362665772E+02  0.51100000000E-03 0.  1.
         12    1    3    3    0    0 -0.10517694886E+02  0.14534997842E+02 -0.85768600376E-01  0.17941444319E+02  0.00000000000E+00 0. -1.
</event>
<event>
 7    1  0.1418970E-010  0.4778727E+02  0.7816164E-02  0.1312668E+00
        -11   -1    0    0    0    0  0.00000000000E+00  0.00000000000E+00  0.45593999997E+02  0.45594000000E+02  0.51100000000E-03 0. -1.
         11   -1    0    0    0    0 -0.00000000000E+00 -0.00000000000E+00 -0.45593999997E+02  0.45594000000E+02  0.51100000000E-03 0.  1.
    9900012    2    1    2    0    0  0.31123489922E+02 -0.19557864519E+02 -0.23074699107E+02  0.47787269265E+02  0.19999991888E+02 0.  0.
         12    1    1    2    0    0 -0.31123489922E+02  0.19557864519E+02  0.23074699107E+02  0.43400730735E+02  0.00000000000E+00 0. -1.
         11    1    3    3    0    0  0.10845012791E+02 -0.89256060799E+01 -0.38206867570E+01  0.14556043209E+02  0.51100000000E-03 0. -1.
        -11    1    3    3    0    0  0.17555884837E+02 -0.20105718027E+01 -0.15256808969E+02  0.23345700066E+02  0.51100000000E-03 0.  1.
        -12    1    3    3    0    0  0.27225922935E+01 -0.86216866360E+01 -0.39972033813E+01  0.98855259910E+01  0.00000000000E+00 0.  1.
</event>
<event>
 7    1  0.1418970E-010  0.4778725E+02  0.7816164E-02  0.1312668E+00
        -11   -1    0    0    0    0  0.00000000000E+00  0.00000000000E+00  0.45593999997E+02  0.45594000000E+02  0.51100000000E-03 0.  1.
         11   -1    0    0    0    0 -0.00000000000E+00 -0.00000000000E+00 -0.45593999997E+02  0.45594000000E+02  0.51100000000E-03 0. -1.
    9900012    2    1    2    0    0  0.11647920887E+02 -0.39946655071E+02  0.12337559920E+02  0.47787254648E+02  0.19999925240E+02 0.  0.
         12    1    1    2    0    0 -0.11647920887E+02  0.39946655071E+02 -0.12337559920E+02  0.43400745352E+02  0.00000000000E+00 0. -1.
         11    1    3    3    0    0  0.39064513758E+01 -0.34757504770E+01 -0.23007153007E+01  0.57126609287E+01  0.51100000000E-03 0. -1.
        -11    1    3    3    0    0 -0.67808953228E+00 -0.25742002993E+02  0.84873261335E+01  0.27113561711E+02  0.51100000000E-03 0.  1.
         12    1    3    3    0    0  0.84195590436E+01 -0.10728901601E+02  0.61509490876E+01  0.14961032007E+02  0.00000000000E+00 0. -1.
</event>
<event>
 7    1  0.1418970E-010  0.4778727E+02  0.7816164E-02  0.1312668E+00
        -11   -1    0    0    0    0  0.00000000000E+00  0.00000000000E+00  0.45593999997E+02  0.45594000000E+02  0.51100000000E-03 0.  1.
         11   -1    0    0    0    0 -0.00000000000E+00 -0.00000000000E+00 -0.45593999997E+02  0.45594000000E+02  0.51100000000E-03 0. -1.
    9900012    2    1    2    0    0 -0.12230053221E+01 -0.15091604464E+02  0.40673960693E+02  0.47787270216E+02  0.19999996224E+02 0.  0.
         12    1    1    2    0    0  0.12230053221E+01  0.15091604464E+02 -0.40673960693E+02  0.43400729784E+02  0.00000000000E+00 0. -1.
         11    1    3    3    0    0 -0.57055241149E+01  0.12152401004E+01  0.17639038050E+02  0.18578629592E+02  0.51100000000E-03 0. -1.
        -11    1    3    3    0    0 -0.69491346579E+00 -0.22627220975E+00  0.12152026086E+00  0.74085847013E+00  0.51100000000E-03 0.  1.
        -12    1    3    3    0    0  0.51774322586E+01 -0.16080572355E+02  0.22913402382E+02  0.28467782154E+02  0.00000000000E+00 0.  1.
</event>
<event>
 7    1  0.1418970E-010  0.4778727E+02  0.7816164E-02  0.1312668E+00
        -11   -1    0    0    0    0  0.00000000000E+00  0.00000000000E+00  0.45593999997E+02  0.45594000000E+02  0.51100000000E-03 0.  1.
         11   -1    0    0    0    0 -0.00000000000E+00 -0.00000000000E+00 -0.45593999997E+02  0.45594000000E+02  0.51100000000E-03 0. -1.
    9900012    2    1    2    0    0  0.56743921750E+01  0.12969226376E+02  0.41027105365E+02  0.47787274960E+02  0.20000017854E+02 0.  0.
         12    1    1    2    0    0 -0.56743921750E+01 -0.12969226376E+02 -0.41027105365E+02  0.43400725040E+02  0.00000000000E+00 0. -1.
         11    1    3    3    0    0  0.10814049544E+01  0.10592804711E+02  0.40453365322E+02  0.41831228938E+02  0.51100000000E-03 0.  1.
        -11    1    3    3    0    0  0.53829617854E+00  0.25856400337E+00 -0.96061193914E+00  0.11311028593E+01  0.51100000000E-03 0. -1.
        -12    1    3    3    0    0  0.40546910420E+01  0.21178576612E+01  0.15343519817E+01  0.48249431626E+01  0.00000000000E+00 0.  1.
</event>
<event>
 7    1  0.1418970E-010  0.4778727E+02  0.7816164E-02  0.1312668E+00
        -11   -1    0    0    0    0  0.00000000000E+00  0.00000000000E+00  0.45593999997E+02  0.45594000000E+02  0.51100000000E-03 0.  1.
         11   -1    0    0    0    0 -0.00000000000E+00 -0.00000000000E+00 -0.45593999997E+02  0.45594000000E+02  0.51100000000E-03 0. -1.
    9900012    2    1    2    0    0 -0.13386382643E+02  0.10330077102E+02  0.39971459293E+02  0.47787270845E+02  0.19999999089E+02 0.  0.
         12    1    1    2    0    0  0.13386382643E+02 -0.10330077102E+02 -0.39971459293E+02  0.43400729155E+02  0.00000000000E+00 0. -1.
         11    1    3    3    0    0 -0.79938868582E+01  0.22224700190E+01  0.68996404534E+01  0.10791044376E+02  0.51100000000E-03 0. -1.
        -11    1    3    3    0    0 -0.41476769718E+01  0.11682251545E+02  0.21462591374E+02  0.24785500886E+02  0.51100000000E-03 0.  1.
        -12    1    3    3    0    0 -0.12448188131E+01 -0.35746444615E+01  0.11609227465E+02  0.12210725582E+02  0.00000000000E+00 0.  1.
</event>
<event>
 7    1  0.1418970E-010  0.4778727E+02  0.7816164E-02  0.1312668E+00
        -11   -1    0    0    0    0  0.00000000000E+00  0.00000000000E+00  0.45593999997E+02  0.45594000000E+02  0.51100000000E-03 0.  1.
         11   -1    0    0    0    0 -0.00000000000E+00 -0.00000000000E+00 -0.45593999997E+02  0.45594000000E+02  0.51100000000E-03 0. -1.
    9900012    2    1    2    0    0 -0.64068274516E+01 -0.40612063118E+02  0.13900931941E+02  0.47787273998E+02  0.20000013465E+02 0.  0.
         12    1    1    2    0    0  0.64068274516E+01  0.40612063118E+02 -0.13900931941E+02  0.43400726002E+02  0.00000000000E+00 0. -1.
         11    1    3    3    0    0 -0.70064660665E+01 -0.22905558603E+02 -0.97977166376E+00  0.23973217023E+02  0.51100000000E-03 0. -1.
        -11    1    3    3    0    0  0.18905707866E+01 -0.13835474023E+02  0.88492623505E+01  0.16531909864E+02  0.51100000000E-03 0.  1.
        -12    1    3    3    0    0 -0.12909321717E+01 -0.38710304922E+01  0.60314412540E+01  0.72821471108E+01  0.00000000000E+00 0.  1.
</event>
<event>
 7    1  0.1418970E-010  0.4778725E+02  0.7816164E-02  0.1312668E+00
        -11   -1    0    0    0    0  0.00000000000E+00  0.00000000000E+00  0.45593999997E+02  0.45594000000E+02  0.51100000000E-03 0.  1.
         11   -1    0    0    0    0 -0.00000000000E+00 -0.00000000000E+00 -0.45593999997E+02  0.45594000000E+02  0.51100000000E-03 0. -1.
    9900012    2    1    2    0    0  0.20436661946E+02  0.15386789054E+02  0.35060154343E+02  0.47787252870E+02  0.19999917134E+02 0.  0.
         12    1    1    2    0    0 -0.20436661946E+02 -0.15386789054E+02 -0.35060154343E+02  0.43400747130E+02  0.00000000000E+00 0. -1.
         11    1    3    3    0    0  0.38542211186E+01 -0.45538187666E+01  0.41785863251E+01  0.72837400919E+01  0.51100000000E-03 0. -1.
        -11    1    3    3    0    0  0.81847006598E+01  0.86356946059E+01  0.16816805700E+02  0.20600230592E+02  0.51100000000E-03 0.  1.
         12    1    3    3    0    0  0.83977401677E+01  0.11304913215E+02  0.14064762318E+02  0.19903282186E+02  0.00000000000E+00 0. -1.
</event>
<event>
 7    1  0.1418970E-010  0.4778726E+02  0.7816164E-02  0.1312668E+00
        -11   -1    0    0    0    0  0.00000000000E+00  0.00000000000E+00  0.45593999997E+02  0.45594000000E+02  0.51100000000E-03 0. -1.
         11   -1    0    0    0    0 -0.00000000000E+00 -0.00000000000E+00 -0.45593999997E+02  0.45594000000E+02  0.51100000000E-03 0.  1.
    9900012    2    1    2    0    0  0.39289605444E+02  0.71029084132E+01 -0.17014692605E+02  0.47787260740E+02  0.19999953018E+02 0.  0.
         12    1    1    2    0    0 -0.39289605444E+02 -0.71029084132E+01  0.17014692605E+02  0.43400739260E+02  0.00000000000E+00 0. -1.
         11    1    3    3    0    0  0.33032317505E+01  0.36916782016E+01 -0.26417233053E+01  0.56141366410E+01  0.51100000000E-03 0. -1.
        -11    1    3    3    0    0  0.11202646013E+02  0.86064032000E+01 -0.31430353665E+01  0.14472322734E+02  0.51100000000E-03 0.  1.
        -12    1    3    3    0    0  0.24783727680E+02 -0.51951729884E+01 -0.11229933934E+02  0.27700801365E+02  0.00000000000E+00 0.  1.
</event>
<event>
 7    1  0.1418970E-010  0.4778728E+02  0.7816164E-02  0.1312668E+00
        -11   -1    0    0    0    0  0.00000000000E+00  0.00000000000E+00  0.45593999997E+02  0.45594000000E+02  0.51100000000E-03 0.  1.
         11   -1    0    0    0    0 -0.00000000000E+00 -0.00000000000E+00 -0.45593999997E+02  0.45594000000E+02  0.51100000000E-03 0. -1.
    9900012    2    1    2    0    0 -0.42032682645E+02  0.27682424145E+01  0.10450516964E+02  0.47787275568E+02  0.20000020625E+02 0.  0.
         12    1    1    2    0    0  0.42032682645E+02 -0.27682424145E+01 -0.10450516964E+02  0.43400724432E+02  0.00000000000E+00 0. -1.
         11    1    3    3    0    0 -0.62882101985E+01 -0.54707846947E+01  0.15520050302E+01  0.84781951234E+01  0.51100000000E-03 0. -1.
        -11    1    3    3    0    0 -0.10198990079E+02  0.34145308022E+01 -0.23067486766E+01  0.10999977680E+02  0.51100000000E-03 0.  1.
         12    1    3    3    0    0 -0.25545482367E+02  0.48244963070E+01  0.11205260611E+02  0.28309102765E+02  0.00000000000E+00 0. -1.
</event>
<event>
 7    1  0.1418970E-010  0.4778727E+02  0.7816164E-02  0.1312668E+00
        -11   -1    0    0    0    0  0.00000000000E+00  0.00000000000E+00  0.45593999997E+02  0.45594000000E+02  0.51100000000E-03 0. -1.
         11   -1    0    0    0    0 -0.00000000000E+00 -0.00000000000E+00 -0.45593999997E+02  0.45594000000E+02  0.51100000000E-03 0.  1.
    9900012    2    1    2    0    0  0.93554549798E+01  0.20894743348E+02 -0.36871514712E+02  0.47787269192E+02  0.19999991555E+02 0.  0.
         12    1    1    2    0    0 -0.93554549798E+01 -0.20894743348E+02  0.36871514712E+02  0.43400730808E+02  0.00000000000E+00 0. -1.
         11    1    3    3    0    0  0.23038947378E+01 -0.20384268046E+01 -0.11604299840E+01  0.32878127698E+01  0.51100000000E-03 0. -1.
        -11    1    3    3    0    0  0.24426252602E+01  0.59882551233E+01 -0.19703831083E+02  0.20738046610E+02  0.51100000000E-03 0.  1.
        -12    1    3    3    0    0  0.46089349818E+01  0.16944915029E+02 -0.16007253645E+02  0.23761409813E+02  0.00000000000E+00 0.  1.
</event>
<event>
 7    1  0.1418970E-010  0.4778727E+02  0.7816164E-02  0.1312668E+00
        -11   -1    0    0    0    0  0.00000000000E+00  0.00000000000E+00  0.45593999997E+02  0.45594000000E+02  0.51100000000E-03 0.  1.
         11   -1    0    0    0    0 -0.00000000000E+00 -0.00000000000E+00 -0.45593999997E+02  0.45594000000E+02  0.51100000000E-03 0. -1.
    9900012    2    1    2    0    0  0.11919109157E+02 -0.16832459021E+02  0.38186731413E+02  0.47787270791E+02  0.19999998846E+02 0.  0.
         12    1    1    2    0    0 -0.11919109157E+02  0.16832459021E+02 -0.38186731413E+02  0.43400729209E+02  0.00000000000E+00 0. -1.
         11    1    3    3    0    0  0.38469226133E+00 -0.12808341933E+01  0.31237097642E+01  0.33979534015E+01  0.51100000000E-03 0. -1.
        -11    1    3    3    0    0  0.15108686078E+02 -0.16974136176E+02  0.25925334076E+02  0.34474869704E+02  0.51100000000E-03 0.  1.
         12    1    3    3    0    0 -0.35742691817E+01  0.14225113480E+01  0.91376875736E+01  0.99144476857E+01  0.00000000000E+00 0. -1.
</event>
<event>
 7    1  0.1418970E-010  0.4778728E+02  0.7816164E-02  0.1312668E+00
        -11   -1    0    0    0    0  0.00000000000E+00  0.00000000000E+00  0.45593999997E+02  0.45594000000E+02  0.51100000000E-03 0.  1.
         11   -1    0    0    0    0 -0.00000000000E+00 -0.00000000000E+00 -0.45593999997E+02  0.45594000000E+02  0.51100000000E-03 0. -1.
    9900012    2    1    2    0    0  0.20236523992E+02  0.30975411536E+02  0.22685455170E+02  0.47787275359E+02  0.20000019670E+02 0.  0.
         12    1    1    2    0    0 -0.20236523992E+02 -0.30975411536E+02 -0.22685455170E+02  0.43400724641E+02  0.00000000000E+00 0. -1.
         11    1    3    3    0    0  0.77058866846E+01  0.58396263409E+01  0.10369928784E+01  0.97240567608E+01  0.51100000000E-03 0. -1.
        -11    1    3    3    0    0  0.11315563763E+02  0.90411314979E+01  0.63158724639E+01  0.15801085003E+02  0.51100000000E-03 0.  1.
        -12    1    3    3    0    0  0.12150735447E+01  0.16094653698E+02  0.15332589828E+02  0.22262133595E+02  0.00000000000E+00 0.  1.
</event>
<event>
 7    1  0.1418970E-010  0.4778727E+02  0.7816164E-02  0.1312668E+00
        -11   -1    0    0    0    0  0.00000000000E+00  0.00000000000E+00  0.45593999997E+02  0.45594000000E+02  0.51100000000E-03 0.  1.
         11   -1    0    0    0    0 -0.00000000000E+00 -0.00000000000E+00 -0.45593999997E+02  0.45594000000E+02  0.51100000000E-03 0. -1.
    9900012    2    1    2    0    0  0.29571058213E+01 -0.20327010699E+02  0.38232073943E+02  0.47787270550E+02  0.19999997746E+02 0.  0.
         12    1    1    2    0    0 -0.29571058213E+01  0.20327010699E+02 -0.38232073943E+02  0.43400729450E+02  0.00000000000E+00 0. -1.
         11    1    3    3    0    0  0.73891275562E+01 -0.12510518962E+02  0.35100609475E+02  0.37989012576E+02  0.51100000000E-03 0.  1.
        -11    1    3    3    0    0 -0.20383056955E+01 -0.20191278217E+01  0.20318943120E+00  0.28762568514E+01  0.51100000000E-03 0. -1.
        -12    1    3    3    0    0 -0.23937160393E+01 -0.57973639156E+01  0.29282750365E+01  0.69220011222E+01  0.00000000000E+00 0.  1.
</event>
<event>
 7    1  0.1418970E-010  0.4778727E+02  0.7816164E-02  0.1312668E+00
        -11   -1    0    0    0    0  0.00000000000E+00  0.00000000000E+00  0.45593999997E+02  0.45594000000E+02  0.51100000000E-03 0.  1.
         11   -1    0    0    0    0 -0.00000000000E+00 -0.00000000000E+00 -0.45593999997E+02  0.45594000000E+02  0.51100000000E-03 0. -1.
    9900012    2    1    2    0    0 -0.46633531024E+01  0.37061561770E+02  0.22097891538E+02  0.47787273814E+02  0.20000012629E+02 0.  0.
         12    1    1    2    0    0  0.46633531024E+01 -0.37061561770E+02 -0.22097891538E+02  0.43400726186E+02  0.00000000000E+00 0. -1.
         11    1    3    3    0    0  0.74626316003E+00  0.69556888395E+00 -0.25408504462E+01  0.27380003702E+01  0.51100000000E-03 0. -1.
        -11    1    3    3    0    0 -0.40725832287E+01  0.18559500956E+02  0.79134636060E+01  0.20583097833E+02  0.51100000000E-03 0.  1.
        -12    1    3    3    0    0 -0.13370330338E+01  0.17806491930E+02  0.16725278378E+02  0.24466175611E+02  0.00000000000E+00 0.  1.
</event>
<event>
 7    1  0.1418970E-010  0.4778727E+02  0.7816164E-02  0.1312668E+00
        -11   -1    0    0    0    0  0.00000000000E+00  0.00000000000E+00  0.45593999997E+02  0.45594000000E+02  0.51100000000E-03 0.  1.
         11   -1    0    0    0    0 -0.00000000000E+00 -0.00000000000E+00 -0.45593999997E+02  0.45594000000E+02  0.51100000000E-03 0. -1.
    9900012    2    1    2    0    0  0.26588974222E+02 -0.24331544547E+02 -0.24179034227E+02  0.47787270670E+02  0.19999998293E+02 0.  0.
         12    1    1    2    0    0 -0.26588974222E+02  0.24331544547E+02  0.24179034227E+02  0.43400729330E+02  0.00000000000E+00 0. -1.
         11    1    3    3    0    0  0.39530777459E+01 -0.55085482827E+01 -0.13068065779E+02  0.14722271269E+02  0.51100000000E-03 0. -1.
        -11    1    3    3    0    0  0.17487952899E+02 -0.12516602439E+02 -0.12397497660E+02  0.24823210544E+02  0.51100000000E-03 0.  1.
        -12    1    3    3    0    0  0.51479435768E+01 -0.63063938254E+01  0.12865292118E+01  0.82417888570E+01  0.00000000000E+00 0.  1.
</event>
<event>
 7    1  0.1418970E-010  0.4778727E+02  0.7816164E-02  0.1312668E+00
        -11   -1    0    0    0    0  0.00000000000E+00  0.00000000000E+00  0.45593999997E+02  0.45594000000E+02  0.51100000000E-03 0.  1.
         11   -1    0    0    0    0 -0.00000000000E+00 -0.00000000000E+00 -0.45593999997E+02  0.45594000000E+02  0.51100000000E-03 0. -1.
    9900012    2    1    2    0    0 -0.18387683450E+02  0.16722508153E+02  0.35579121201E+02  0.47787273658E+02  0.20000011915E+02 0.  0.
         12    1    1    2    0    0  0.18387683450E+02 -0.16722508153E+02 -0.35579121201E+02  0.43400726342E+02  0.00000000000E+00 0. -1.
         11    1    3    3    0    0 -0.11044794717E+02  0.46398830568E+01  0.22838745127E+02  0.25790003574E+02  0.51100000000E-03 0.  1.
        -11    1    3    3    0    0 -0.58834502413E+01  0.14100827524E+02  0.11907718951E+02  0.19371166575E+02  0.51100000000E-03 0. -1.
         12    1    3    3    0    0 -0.14594384915E+01 -0.20182024282E+01  0.83265712400E+00  0.26261035086E+01  0.00000000000E+00 0. -1.
</event>
<event>
 7    1  0.1418970E-010  0.4778727E+02  0.7816164E-02  0.1312668E+00
        -11   -1    0    0    0    0  0.00000000000E+00  0.00000000000E+00  0.45593999997E+02  0.45594000000E+02  0.51100000000E-03 0.  1.
         11   -1    0    0    0    0 -0.00000000000E+00 -0.00000000000E+00 -0.45593999997E+02  0.45594000000E+02  0.51100000000E-03 0. -1.
    9900012    2    1    2    0    0  0.26034347503E+02 -0.36189847810E+01  0.34536057025E+02  0.47787268029E+02  0.19999986250E+02 0.  0.
         12    1    1    2    0    0 -0.26034347503E+02  0.36189847810E+01 -0.34536057025E+02  0.43400731971E+02  0.00000000000E+00 0. -1.
         11    1    3    3    0    0  0.11951181215E+02 -0.43033889856E-01  0.34325088656E+01  0.12434416019E+02  0.51100000000E-03 0. -1.
        -11    1    3    3    0    0  0.67622513588E+01  0.86490507641E+00  0.69893259516E+01  0.97635435038E+01  0.51100000000E-03 0.  1.
        -12    1    3    3    0    0  0.73209149297E+01 -0.44408559676E+01  0.24114222208E+02  0.25589308506E+02  0.00000000000E+00 0.  1.
</event>
<event>
 7    1  0.1418970E-010  0.4778727E+02  0.7816164E-02  0.1312668E+00
        -11   -1    0    0    0    0  0.00000000000E+00  0.00000000000E+00  0.45593999997E+02  0.45594000000E+02  0.51100000000E-03 0. -1.
         11   -1    0    0    0    0 -0.00000000000E+00 -0.00000000000E+00 -0.45593999997E+02  0.45594000000E+02  0.51100000000E-03 0.  1.
    9900012    2    1    2    0    0 -0.43342634029E+02  0.20007939714E+01  0.10178229538E+01  0.47787273455E+02  0.20000010989E+02 0.  0.
         12    1    1    2    0    0  0.43342634029E+02 -0.20007939714E+01 -0.10178229538E+01  0.43400726545E+02  0.00000000000E+00 0. -1.
         11    1    3    3    0    0 -0.22195235440E+02  0.20122629347E+01 -0.17787972500E+01  0.22357141997E+02  0.51100000000E-03 0. -1.
        -11    1    3    3    0    0 -0.21266164322E+02  0.21599477749E+01 -0.61492727329E+00  0.21384416176E+02  0.51100000000E-03 0.  1.
         12    1    3    3    0    0  0.11876573353E+00 -0.21714167382E+01  0.34115474771E+01  0.40457152815E+01  0.00000000000E+00 0. -1.
</event>
<event>
 7    1  0.1418970E-010  0.4778727E+02  0.7816164E-02  0.1312668E+00
        -11   -1    0    0    0    0  0.00000000000E+00  0.00000000000E+00  0.45593999997E+02  0.45594000000E+02  0.51100000000E-03 0. -1.
         11   -1    0    0    0    0 -0.00000000000E+00 -0.00000000000E+00 -0.45593999997E+02  0.45594000000E+02  0.51100000000E-03 0.  1.
    9900012    2    1    2    0    0 -0.21843891292E+02 -0.35885604374E+02 -0.10894545949E+02  0.47787270519E+02  0.19999997603E+02 0.  0.
         12    1    1    2    0    0  0.21843891292E+02  0.35885604374E+02  0.10894545949E+02  0.43400729481E+02  0.00000000000E+00 0. -1.
         11    1    3    3    0    0 -0.10198416802E+01 -0.10821940556E+02 -0.46888071493E+00  0.10879996500E+02  0.51100000000E-03 0. -1.
        -11    1    3    3    0    0 -0.19861621309E+02 -0.25217777512E+02 -0.12631247561E+02  0.34495923221E+02  0.51100000000E-03 0.  1.
         12    1    3    3    0    0 -0.96242830325E+00  0.15411369414E+00  0.22055823268E+01  0.24113507977E+01  0.00000000000E+00 0. -1.
</event>
<event>
 7    1  0.1418970E-010  0.4778729E+02  0.7816164E-02  0.1312668E+00
        -11   -1    0    0    0    0  0.00000000000E+00  0.00000000000E+00  0.45593999997E+02  0.45594000000E+02  0.51100000000E-03 0.  1.
         11   -1    0    0    0    0 -0.00000000000E+00 -0.00000000000E+00 -0.45593999997E+02  0.45594000000E+02  0.51100000000E-03 0. -1.
    9900012    2    1    2    0    0 -0.42683889200E+02 -0.70230711966E-01 -0.78550794288E+01  0.47787290300E+02  0.20000087796E+02 0.  0.
         12    1    1    2    0    0  0.42683889200E+02  0.70230711966E-01  0.78550794288E+01  0.43400709700E+02  0.00000000000E+00 0. -1.
         11    1    3    3    0    0 -0.17466267246E+02 -0.96997146940E+00 -0.83095340892E+01  0.19366457941E+02  0.51100000000E-03 0. -1.
        -11    1    3    3    0    0 -0.18746351095E+01  0.44254184445E+01 -0.86919680704E-01  0.48068846975E+01  0.51100000000E-03 0.  1.
         12    1    3    3    0    0 -0.23342986845E+02 -0.35256776871E+01  0.54137434114E+00  0.23613947662E+02  0.00000000000E+00 0. -1.
</event>
<event>
 7    1  0.1418970E-010  0.4778727E+02  0.7816164E-02  0.1312668E+00
        -11   -1    0    0    0    0  0.00000000000E+00  0.00000000000E+00  0.45593999997E+02  0.45594000000E+02  0.51100000000E-03 0. -1.
         11   -1    0    0    0    0 -0.00000000000E+00 -0.00000000000E+00 -0.45593999997E+02  0.45594000000E+02  0.51100000000E-03 0.  1.
    9900012    2    1    2    0    0  0.17622194369E+02  0.33628247741E+02 -0.21029087065E+02  0.47787270936E+02  0.19999999507E+02 0.  0.
         12    1    1    2    0    0 -0.17622194369E+02 -0.33628247741E+02  0.21029087065E+02  0.43400729064E+02  0.00000000000E+00 0. -1.
         11    1    3    3    0    0  0.51476665965E+01  0.17471618304E+02 -0.16040887053E+02  0.24270681393E+02  0.51100000000E-03 0. -1.
        -11    1    3    3    0    0  0.12811501709E+02  0.16025491131E+02 -0.68420026610E+01  0.21627851089E+02  0.51100000000E-03 0.  1.
        -12    1    3    3    0    0 -0.33697393602E+00  0.13113830506E+00  0.18538026494E+01  0.18887384550E+01  0.00000000000E+00 0.  1.
</event>
<event>
 7    1  0.1418970E-010  0.4778727E+02  0.7816164E-02  0.1312668E+00
        -11   -1    0    0    0    0  0.00000000000E+00  0.00000000000E+00  0.45593999997E+02  0.45594000000E+02  0.51100000000E-03 0.  1.
         11   -1    0    0    0    0 -0.00000000000E+00 -0.00000000000E+00 -0.45593999997E+02  0.45594000000E+02  0.51100000000E-03 0. -1.
    9900012    2    1    2    0    0 -0.68595075602E+00  0.20227097218E+02  0.38392931915E+02  0.47787271765E+02  0.20000003284E+02 0.  0.
         12    1    1    2    0    0  0.68595075602E+00 -0.20227097218E+02 -0.38392931915E+02  0.43400728235E+02  0.00000000000E+00 0. -1.
         11    1    3    3    0    0 -0.77576082419E+01  0.17675656503E+02  0.24149021202E+02  0.30915765295E+02  0.51100000000E-03 0. -1.
        -11    1    3    3    0    0  0.18035703152E+01  0.68816202932E+00  0.90126124462E+01  0.92170286007E+01  0.51100000000E-03 0.  1.
         12    1    3    3    0    0  0.52680871707E+01  0.18632786852E+01  0.52312982669E+01  0.76544778694E+01  0.00000000000E+00 0. -1.
</event>
<event>
 7    1  0.1418970E-010  0.4778727E+02  0.7816164E-02  0.1312668E+00
        -11   -1    0    0    0    0  0.00000000000E+00  0.00000000000E+00  0.45593999997E+02  0.45594000000E+02  0.51100000000E-03 0. -1.
         11   -1    0    0    0    0 -0.00000000000E+00 -0.00000000000E+00 -0.45593999997E+02  0.45594000000E+02  0.51100000000E-03 0.  1.
    9900012    2    1    2    0    0 -0.38986618275E+02 -0.61355724674E+01 -0.18056062104E+02  0.47787273823E+02  0.20000012669E+02 0.  0.
         12    1    1    2    0    0  0.38986618275E+02  0.61355724674E+01  0.18056062104E+02  0.43400726177E+02  0.00000000000E+00 0. -1.
         11    1    3    3    0    0 -0.19503025338E+01  0.32871840217E+01 -0.96716520356E+00  0.39426726415E+01  0.51100000000E-03 0. -1.
        -11    1    3    3    0    0 -0.20442251352E+02 -0.11767377265E+02 -0.91404101517E+01  0.25296321986E+02  0.51100000000E-03 0.  1.
         12    1    3    3    0    0 -0.16594064389E+02  0.23446207756E+01 -0.79484867484E+01  0.18548279195E+02  0.00000000000E+00 0. -1.
</event>
<event>
 7    1  0.1418970E-010  0.4778727E+02  0.7816164E-02  0.1312668E+00
        -11   -1    0    0    0    0  0.00000000000E+00  0.00000000000E+00  0.45593999997E+02  0.45594000000E+02  0.51100000000E-03 0.  1.
         11   -1    0    0    0    0 -0.00000000000E+00 -0.00000000000E+00 -0.45593999997E+02  0.45594000000E+02  0.51100000000E-03 0. -1.
    9900012    2    1    2    0    0  0.44411435029E+01 -0.35777536746E+02  0.24163355084E+02  0.47787267056E+02  0.19999981813E+02 0.  0.
         12    1    1    2    0    0 -0.44411435029E+01  0.35777536746E+02 -0.24163355084E+02  0.43400732944E+02  0.00000000000E+00 0. -1.
         11    1    3    3    0    0 -0.47932042567E+01 -0.14976939624E+02  0.52453150909E+01  0.16576997865E+02  0.51100000000E-03 0. -1.
        -11    1    3    3    0    0  0.85974647784E+01 -0.12681386017E+02  0.71709307049E+01  0.16916152026E+02  0.51100000000E-03 0.  1.
        -12    1    3    3    0    0  0.63688298118E+00 -0.81192111045E+01  0.11747109288E+02  0.14294117164E+02  0.00000000000E+00 0.  1.
</event>
<event>
 7    1  0.1418970E-010  0.4778727E+02  0.7816164E-02  0.1312668E+00
        -11   -1    0    0    0    0  0.00000000000E+00  0.00000000000E+00  0.45593999997E+02  0.45594000000E+02  0.51100000000E-03 0.  1.
         11   -1    0    0    0    0 -0.00000000000E+00 -0.00000000000E+00 -0.45593999997E+02  0.45594000000E+02  0.51100000000E-03 0. -1.
    9900012    2    1    2    0    0  0.41772701964E+02 -0.11192348402E+02  0.36600603467E+01  0.47787270353E+02  0.19999996848E+02 0.  0.
         12    1    1    2    0    0 -0.41772701964E+02  0.11192348402E+02 -0.36600603467E+01  0.43400729647E+02  0.00000000000E+00 0. -1.
         11    1    3    3    0    0  0.12395537180E+02 -0.27576831385E+01 -0.46971978681E+01  0.13539491362E+02  0.51100000000E-03 0. -1.
        -11    1    3    3    0    0  0.15380652030E+02 -0.48005813758E+01 -0.23116488104E+01  0.16277400250E+02  0.51100000000E-03 0.  1.
        -12    1    3    3    0    0  0.13996512754E+02 -0.36340838873E+01  0.10668907025E+02  0.17970378741E+02  0.00000000000E+00 0.  1.
</event>
<event>
 7    1  0.1418970E-010  0.4778727E+02  0.7816164E-02  0.1312668E+00
        -11   -1    0    0    0    0  0.00000000000E+00  0.00000000000E+00  0.45593999997E+02  0.45594000000E+02  0.51100000000E-03 0.  1.
         11   -1    0    0    0    0 -0.00000000000E+00 -0.00000000000E+00 -0.45593999997E+02  0.45594000000E+02  0.51100000000E-03 0. -1.
    9900012    2    1    2    0    0 -0.42655572228E+02  0.40987092266E+01 -0.68793905586E+01  0.47787271045E+02  0.20000000001E+02 0.  0.
         12    1    1    2    0    0  0.42655572228E+02 -0.40987092266E+01  0.68793905586E+01  0.43400728955E+02  0.00000000000E+00 0. -1.
         11    1    3    3    0    0 -0.39505863310E+02  0.10913436925E+01 -0.33484460226E+01  0.39662530907E+02  0.51100000000E-03 0.  1.
        -11    1    3    3    0    0 -0.10099769081E+00 -0.88909184330E+00  0.10518207914E+01  0.13809460806E+01  0.51100000000E-03 0. -1.
        -12    1    3    3    0    0 -0.30487112270E+01  0.38964573774E+01 -0.45827653273E+01  0.67437940571E+01  0.00000000000E+00 0.  1.
</event>
<event>
 7    1  0.1418970E-010  0.4778727E+02  0.7816164E-02  0.1312668E+00
        -11   -1    0    0    0    0  0.00000000000E+00  0.00000000000E+00  0.45593999997E+02  0.45594000000E+02  0.51100000000E-03 0.  1.
         11   -1    0    0    0    0 -0.00000000000E+00 -0.00000000000E+00 -0.45593999997E+02  0.45594000000E+02  0.51100000000E-03 0. -1.
    9900012    2    1    2    0    0 -0.26532240242E+02 -0.23933248137E+02  0.24634588032E+02  0.47787273438E+02  0.20000010911E+02 0.  0.
         12    1    1    2    0    0  0.26532240242E+02  0.23933248137E+02 -0.24634588032E+02  0.43400726562E+02  0.00000000000E+00 0. -1.
         11    1    3    3    0    0 -0.23492251752E+01 -0.11580492861E+02  0.26810381242E+01  0.12116709104E+02  0.51100000000E-03 0. -1.
        -11    1    3    3    0    0 -0.17411130894E+01 -0.76948781711E+00  0.47380193589E+01  0.51061153529E+01  0.51100000000E-03 0.  1.
         12    1    3    3    0    0 -0.22441901977E+02 -0.11583267458E+02  0.17215530549E+02  0.30564448980E+02  0.00000000000E+00 0. -1.
</event>
<event>
 7    1  0.1418970E-010  0.4778727E+02  0.7816164E-02  0.1312668E+00
        -11   -1    0    0    0    0  0.00000000000E+00  0.00000000000E+00  0.45593999997E+02  0.45594000000E+02  0.51100000000E-03 0.  1.
         11   -1    0    0    0    0 -0.00000000000E+00 -0.00000000000E+00 -0.45593999997E+02  0.45594000000E+02  0.51100000000E-03 0. -1.
    9900012    2    1    2    0    0 -0.31888872580E+01 -0.43280445928E+02  0.50709464379E+00  0.47787272510E+02  0.20000006683E+02 0.  0.
         12    1    1    2    0    0  0.31888872580E+01  0.43280445928E+02 -0.50709464379E+00  0.43400727490E+02  0.00000000000E+00 0. -1.
         11    1    3    3    0    0  0.36271167092E+01 -0.75454831629E+01 -0.46702961406E+00  0.83850109544E+01  0.51100000000E-03 0. -1.
        -11    1    3    3    0    0  0.19224083186E+01 -0.26182045960E+02  0.24744247820E+01  0.26368882469E+02  0.51100000000E-03 0.  1.
         12    1    3    3    0    0 -0.87384122858E+01 -0.95529168049E+01 -0.15003005241E+01  0.13033379087E+02  0.00000000000E+00 0. -1.
</event>
<event>
 7    1  0.1418970E-010  0.4778724E+02  0.7816164E-02  0.1312668E+00
        -11   -1    0    0    0    0  0.00000000000E+00  0.00000000000E+00  0.45593999997E+02  0.45594000000E+02  0.51100000000E-03 0.  1.
         11   -1    0    0    0    0 -0.00000000000E+00 -0.00000000000E+00 -0.45593999997E+02  0.45594000000E+02  0.51100000000E-03 0. -1.
    9900012    2    1    2    0    0 -0.14000477896E+02  0.17103565521E+02  0.37350777231E+02  0.47787240852E+02  0.19999862340E+02 0.  0.
         12    1    1    2    0    0  0.14000477896E+02 -0.17103565521E+02 -0.37350777231E+02  0.43400759148E+02  0.00000000000E+00 0. -1.
         11    1    3    3    0    0 -0.82822490850E+00  0.66440868229E+01  0.44512399900E+01  0.80401109395E+01  0.51100000000E-03 0. -1.
        -11    1    3    3    0    0 -0.33050214391E+00  0.85544890159E+01  0.18343438555E+02  0.20242782720E+02  0.51100000000E-03 0.  1.
        -12    1    3    3    0    0 -0.12841750844E+02  0.19049896821E+01  0.14556098687E+02  0.19504347192E+02  0.00000000000E+00 0.  1.
</event>
<event>
 7    1  0.1418970E-010  0.4778726E+02  0.7816164E-02  0.1312668E+00
        -11   -1    0    0    0    0  0.00000000000E+00  0.00000000000E+00  0.45593999997E+02  0.45594000000E+02  0.51100000000E-03 0. -1.
         11   -1    0    0    0    0 -0.00000000000E+00 -0.00000000000E+00 -0.45593999997E+02  0.45594000000E+02  0.51100000000E-03 0.  1.
    9900012    2    1    2    0    0 -0.33334701002E+02 -0.53962249907E+01 -0.27263583856E+02  0.47787256462E+02  0.19999933512E+02 0.  0.
         12    1    1    2    0    0  0.33334701002E+02  0.53962249907E+01  0.27263583856E+02  0.43400743538E+02  0.00000000000E+00 0. -1.
         11    1    3    3    0    0 -0.32831591749E+01 -0.26914168837E+01  0.62274507978E-01  0.42457905489E+01  0.51100000000E-03 0. -1.
        -11    1    3    3    0    0 -0.27602682224E+02  0.19730258568E+01 -0.26270874781E+02  0.38157040753E+02  0.51100000000E-03 0.  1.
        -12    1    3    3    0    0 -0.24488596031E+01 -0.46778339638E+01 -0.10549835825E+01  0.53844251604E+01  0.00000000000E+00 0.  1.
</event>
<event>
 7    1  0.1418970E-010  0.4778727E+02  0.7816164E-02  0.1312668E+00
        -11   -1    0    0    0    0  0.00000000000E+00  0.00000000000E+00  0.45593999997E+02  0.45594000000E+02  0.51100000000E-03 0. -1.
         11   -1    0    0    0    0 -0.00000000000E+00 -0.00000000000E+00 -0.45593999997E+02  0.45594000000E+02  0.51100000000E-03 0.  1.
    9900012    2    1    2    0    0 -0.26880316920E+01 -0.42537410753E+02  0.81832876622E+01  0.47787273913E+02  0.20000013078E+02 0.  0.
         12    1    1    2    0    0  0.26880316920E+01  0.42537410753E+02 -0.81832876622E+01  0.43400726087E+02  0.00000000000E+00 0. -1.
         11    1    3    3    0    0 -0.50047038827E+01 -0.24553769541E+02  0.44914430184E+01  0.25457959861E+02  0.51100000000E-03 0. -1.
        -11    1    3    3    0    0  0.54796774749E+01 -0.16721367661E+02  0.55486576979E+01  0.18450436423E+02  0.51100000000E-03 0.  1.
         12    1    3    3    0    0 -0.31630052842E+01 -0.12622735507E+01 -0.18568130540E+01  0.38788776292E+01  0.00000000000E+00 0. -1.
</event>
<event>
 7    1  0.1418970E-010  0.4778727E+02  0.7816164E-02  0.1312668E+00
        -11   -1    0    0    0    0  0.00000000000E+00  0.00000000000E+00  0.45593999997E+02  0.45594000000E+02  0.51100000000E-03 0.  1.
         11   -1    0    0    0    0 -0.00000000000E+00 -0.00000000000E+00 -0.45593999997E+02  0.45594000000E+02  0.51100000000E-03 0. -1.
    9900012    2    1    2    0    0 -0.18459009668E+02  0.27383532985E+02  0.28160793349E+02  0.47787271911E+02  0.20000003950E+02 0.  0.
         12    1    1    2    0    0  0.18459009668E+02 -0.27383532985E+02 -0.28160793349E+02  0.43400728089E+02  0.00000000000E+00 0. -1.
         11    1    3    3    0    0  0.27205360547E+01  0.20849201410E+01 -0.66280724722E+00  0.34910631801E+01  0.51100000000E-03 0. -1.
        -11    1    3    3    0    0 -0.80367347605E+01  0.12268299343E+02  0.91544915026E+01  0.17288868942E+02  0.51100000000E-03 0.  1.
        -12    1    3    3    0    0 -0.13142810962E+02  0.13030313501E+02  0.19669109093E+02  0.27007339788E+02  0.00000000000E+00 0.  1.
</event>
<event>
 7    1  0.1418970E-010  0.4778726E+02  0.7816164E-02  0.1312668E+00
        -11   -1    0    0    0    0  0.00000000000E+00  0.00000000000E+00  0.45593999997E+02  0.45594000000E+02  0.51100000000E-03 0.  1.
         11   -1    0    0    0    0 -0.00000000000E+00 -0.00000000000E+00 -0.45593999997E+02  0.45594000000E+02  0.51100000000E-03 0. -1.
    9900012    2    1    2    0    0 -0.30159433407E+02  0.52532816520E+01  0.30764191143E+02  0.47787264428E+02  0.19999969831E+02 0.  0.
         12    1    1    2    0    0  0.30159433407E+02 -0.52532816520E+01 -0.30764191143E+02  0.43400735572E+02  0.00000000000E+00 0. -1.
         11    1    3    3    0    0 -0.15900295031E+02 -0.27332510520E+01  0.13717845295E+02  0.21177094305E+02  0.51100000000E-03 0.  1.
        -11    1    3    3    0    0 -0.60673917834E+01 -0.27282283457E+01  0.35959454347E+01  0.75622282953E+01  0.51100000000E-03 0. -1.
        -12    1    3    3    0    0 -0.81917465924E+01  0.10714761050E+02  0.13450400413E+02  0.19047941828E+02  0.00000000000E+00 0.  1.
</event>
<event>
 7    1  0.1418970E-010  0.4778727E+02  0.7816164E-02  0.1312668E+00
        -11   -1    0    0    0    0  0.00000000000E+00  0.00000000000E+00  0.45593999997E+02  0.45594000000E+02  0.51100000000E-03 0.  1.
         11   -1    0    0    0    0 -0.00000000000E+00 -0.00000000000E+00 -0.45593999997E+02  0.45594000000E+02  0.51100000000E-03 0. -1.
    9900012    2    1    2    0    0 -0.20936905056E+02 -0.32392470192E+02  0.19899677251E+02  0.47787271053E+02  0.20000000041E+02 0.  0.
         12    1    1    2    0    0  0.20936905056E+02  0.32392470192E+02 -0.19899677251E+02  0.43400728947E+02  0.00000000000E+00 0. -1.
         11    1    3    3    0    0 -0.66910700981E+01 -0.15463090164E+02  0.13216790928E+02  0.21414040702E+02  0.51100000000E-03 0. -1.
        -11    1    3    3    0    0 -0.12902842696E+02 -0.18056128727E+02  0.31309932846E+01  0.22412279077E+02  0.51100000000E-03 0.  1.
         12    1    3    3    0    0 -0.13429922612E+01  0.11267486988E+01  0.35518930379E+01  0.39609512742E+01  0.00000000000E+00 0. -1.
</event>
<event>
 7    1  0.1418970E-010  0.4778727E+02  0.7816164E-02  0.1312668E+00
        -11   -1    0    0    0    0  0.00000000000E+00  0.00000000000E+00  0.45593999997E+02  0.45594000000E+02  0.51100000000E-03 0. -1.
         11   -1    0    0    0    0 -0.00000000000E+00 -0.00000000000E+00 -0.45593999997E+02  0.45594000000E+02  0.51100000000E-03 0.  1.
    9900012    2    1    2    0    0 -0.15059202152E+02 -0.40047906472E+02  0.72807275782E+01  0.47787269865E+02  0.19999994622E+02 0.  0.
         12    1    1    2    0    0  0.15059202152E+02  0.40047906472E+02 -0.72807275782E+01  0.43400730135E+02  0.00000000000E+00 0. -1.
         11    1    3    3    0    0 -0.50770363487E+01 -0.53762445456E+01  0.61684362073E+01  0.96296370131E+01  0.51100000000E-03 0. -1.
        -11    1    3    3    0    0 -0.69004074935E+01 -0.29623267130E+02  0.53477006865E+01  0.30882867126E+02  0.51100000000E-03 0.  1.
         12    1    3    3    0    0 -0.30817583093E+01 -0.50483947957E+01 -0.42354093156E+01  0.72747657255E+01  0.00000000000E+00 0. -1.
</event>
<event>
 7    1  0.1418970E-010  0.4778727E+02  0.7816164E-02  0.1312668E+00
        -11   -1    0    0    0    0  0.00000000000E+00  0.00000000000E+00  0.45593999997E+02  0.45594000000E+02  0.51100000000E-03 0. -1.
         11   -1    0    0    0    0 -0.00000000000E+00 -0.00000000000E+00 -0.45593999997E+02  0.45594000000E+02  0.51100000000E-03 0.  1.
    9900012    2    1    2    0    0  0.25535001765E+02 -0.53349005907E+01 -0.34686104015E+02  0.47787270845E+02  0.19999999090E+02 0.  0.
         12    1    1    2    0    0 -0.25535001765E+02  0.53349005907E+01  0.34686104015E+02  0.43400729155E+02  0.00000000000E+00 0. -1.
         11    1    3    3    0    0  0.55870599730E+00 -0.31535212985E+01 -0.50764888478E+01  0.60022985809E+01  0.51100000000E-03 0. -1.
        -11    1    3    3    0    0  0.26887812648E+02 -0.17665164560E+01 -0.24915192360E+02  0.36699344136E+02  0.51100000000E-03 0.  1.
        -12    1    3    3    0    0 -0.19115168809E+01 -0.41486283621E+00 -0.46944228077E+01  0.50856281280E+01  0.00000000000E+00 0.  1.
</event>
<event>
 7    1  0.1418970E-010  0.4778727E+02  0.7816164E-02  0.1312668E+00
        -11   -1    0    0    0    0  0.00000000000E+00  0.00000000000E+00  0.45593999997E+02  0.45594000000E+02  0.51100000000E-03 0.  1.
         11   -1    0    0    0    0 -0.00000000000E+00 -0.00000000000E+00 -0.45593999997E+02  0.45594000000E+02  0.51100000000E-03 0. -1.
    9900012    2    1    2    0    0 -0.23558426300E+02  0.30400372628E+02  0.20110720747E+02  0.47787271957E+02  0.20000004162E+02 0.  0.
         12    1    1    2    0    0  0.23558426300E+02 -0.30400372628E+02 -0.20110720747E+02  0.43400728043E+02  0.00000000000E+00 0. -1.
         11    1    3    3    0    0 -0.17228121187E+01  0.10491367958E+02  0.49823555898E+01  0.11741411785E+02  0.51100000000E-03 0. -1.
        -11    1    3    3    0    0 -0.15417412432E+02  0.10122564591E+02  0.15852655650E+02  0.24320148261E+02  0.51100000000E-03 0.  1.
         12    1    3    3    0    0 -0.64182017486E+01  0.97864400796E+01 -0.72429049233E+00  0.11725711912E+02  0.00000000000E+00 0. -1.
</event>
<event>
 7    1  0.1418970E-010  0.4778727E+02  0.7816164E-02  0.1312668E+00
        -11   -1    0    0    0    0  0.00000000000E+00  0.00000000000E+00  0.45593999997E+02  0.45594000000E+02  0.51100000000E-03 0.  1.
         11   -1    0    0    0    0 -0.00000000000E+00 -0.00000000000E+00 -0.45593999997E+02  0.45594000000E+02  0.51100000000E-03 0. -1.
    9900012    2    1    2    0    0 -0.21449890552E+02  0.25411849806E+02  0.27888412024E+02  0.47787269125E+02  0.19999991249E+02 0.  0.
         12    1    1    2    0    0  0.21449890552E+02 -0.25411849806E+02 -0.27888412024E+02  0.43400730875E+02  0.00000000000E+00 0. -1.
         11    1    3    3    0    0 -0.54451900299E+01  0.20886597239E+02  0.15077606175E+02  0.26329341938E+02  0.51100000000E-03 0. -1.
        -11    1    3    3    0    0 -0.80548519738E+01  0.45654447814E+01  0.66231388568E+01  0.11383755749E+02  0.51100000000E-03 0.  1.
        -12    1    3    3    0    0 -0.79498485487E+01 -0.40192214096E-01  0.61876669919E+01  0.10074171438E+02  0.00000000000E+00 0.  1.
</event>
<event>
 7    1  0.1418970E-010  0.4778727E+02  0.7816164E-02  0.1312668E+00
        -11   -1    0    0    0    0  0.00000000000E+00  0.00000000000E+00  0.45593999997E+02  0.45594000000E+02  0.51100000000E-03 0. -1.
         11   -1    0    0    0    0 -0.00000000000E+00 -0.00000000000E+00 -0.45593999997E+02  0.45594000000E+02  0.51100000000E-03 0.  1.
    9900012    2    1    2    0    0  0.89958186363E+01  0.12496458150E+02 -0.40577541617E+02  0.47787273014E+02  0.20000008981E+02 0.  0.
         12    1    1    2    0    0 -0.89958186363E+01 -0.12496458150E+02  0.40577541617E+02  0.43400726986E+02  0.00000000000E+00 0. -1.
         11    1    3    3    0    0 -0.11851417838E+01  0.22455126402E+01 -0.22772979206E+02  0.22914088903E+02  0.51100000000E-03 0.  1.
        -11    1    3    3    0    0  0.91817701702E+00  0.68987787301E+01 -0.10552678599E+02  0.12641013523E+02  0.51100000000E-03 0. -1.
        -12    1    3    3    0    0  0.92627834031E+01  0.33521667797E+01 -0.72518838115E+01  0.12232170589E+02  0.00000000000E+00 0.  1.
</event>
<event>
 7    1  0.1418970E-010  0.4778727E+02  0.7816164E-02  0.1312668E+00
        -11   -1    0    0    0    0  0.00000000000E+00  0.00000000000E+00  0.45593999997E+02  0.45594000000E+02  0.51100000000E-03 0. -1.
         11   -1    0    0    0    0 -0.00000000000E+00 -0.00000000000E+00 -0.45593999997E+02  0.45594000000E+02  0.51100000000E-03 0.  1.
    9900012    2    1    2    0    0  0.20661323179E+02  0.33935474310E+02 -0.17467593571E+02  0.47787268241E+02  0.19999987216E+02 0.  0.
         12    1    1    2    0    0 -0.20661323179E+02 -0.33935474310E+02  0.17467593571E+02  0.43400731759E+02  0.00000000000E+00 0. -1.
         11    1    3    3    0    0 -0.19799638772E+01  0.47170822265E+00 -0.15455156314E+01  0.25556573382E+01  0.51100000000E-03 0. -1.
        -11    1    3    3    0    0  0.12241419629E+02  0.10330687175E+02 -0.15839650513E+01  0.16096098832E+02  0.51100000000E-03 0.  1.
         12    1    3    3    0    0  0.10399867426E+02  0.23133078912E+02 -0.14338112888E+02  0.29135512071E+02  0.00000000000E+00 0. -1.
</event>
<event>
 7    1  0.1418970E-010  0.4778727E+02  0.7816164E-02  0.1312668E+00
        -11   -1    0    0    0    0  0.00000000000E+00  0.00000000000E+00  0.45593999997E+02  0.45594000000E+02  0.51100000000E-03 0.  1.
         11   -1    0    0    0    0 -0.00000000000E+00 -0.00000000000E+00 -0.45593999997E+02  0.45594000000E+02  0.51100000000E-03 0. -1.
    9900012    2    1    2    0    0 -0.26995700341E+02 -0.24459947017E+02  0.23591655970E+02  0.47787273320E+02  0.20000010375E+02 0.  0.
         12    1    1    2    0    0  0.26995700341E+02  0.24459947017E+02 -0.23591655970E+02  0.43400726680E+02  0.00000000000E+00 0. -1.
         11    1    3    3    0    0 -0.42489440245E+01 -0.12137739827E+01  0.20153790781E+01  0.48568020027E+01  0.51100000000E-03 0. -1.
        -11    1    3    3    0    0 -0.17811260037E+02 -0.71718608833E+01  0.62878285348E+01  0.20204290648E+02  0.51100000000E-03 0.  1.
         12    1    3    3    0    0 -0.49354962789E+01 -0.16074312151E+02  0.15288448357E+02  0.22726180669E+02  0.00000000000E+00 0. -1.
</event>
<event>
 7    1  0.1418970E-010  0.4778727E+02  0.7816164E-02  0.1312668E+00
        -11   -1    0    0    0    0  0.00000000000E+00  0.00000000000E+00  0.45593999997E+02  0.45594000000E+02  0.51100000000E-03 0.  1.
         11   -1    0    0    0    0 -0.00000000000E+00 -0.00000000000E+00 -0.45593999997E+02  0.45594000000E+02  0.51100000000E-03 0. -1.
    9900012    2    1    2    0    0 -0.38012552180E+02  0.16249764558E+02 -0.13214161878E+02  0.47787273674E+02  0.20000011991E+02 0.  0.
         12    1    1    2    0    0  0.38012552180E+02 -0.16249764558E+02  0.13214161878E+02  0.43400726326E+02  0.00000000000E+00 0. -1.
         11    1    3    3    0    0 -0.11147881160E+02  0.85013690870E+01 -0.49255526168E+01  0.14859663508E+02  0.51100000000E-03 0. -1.
        -11    1    3    3    0    0 -0.22626017322E+02  0.21609705785E+01 -0.90916649366E+00  0.22747154496E+02  0.51100000000E-03 0.  1.
         12    1    3    3    0    0 -0.42386536981E+01  0.55874248929E+01 -0.73794427675E+01  0.10180455671E+02  0.00000000000E+00 0. -1.
</event>
<event>
 7    1  0.1418970E-010  0.4778731E+02  0.7816164E-02  0.1312668E+00
        -11   -1    0    0    0    0  0.00000000000E+00  0.00000000000E+00  0.45593999997E+02  0.45594000000E+02  0.51100000000E-03 0.  1.
         11   -1    0    0    0    0 -0.00000000000E+00 -0.00000000000E+00 -0.45593999997E+02  0.45594000000E+02  0.51100000000E-03 0. -1.
    9900012    2    1    2    0    0  0.39931298984E+02 -0.10397031348E+02  0.13454092904E+02  0.47787314346E+02  0.20000197428E+02 0.  0.
         12    1    1    2    0    0 -0.39931298984E+02  0.10397031348E+02 -0.13454092904E+02  0.43400685654E+02  0.00000000000E+00 0. -1.
         11    1    3    3    0    0  0.10836891021E+02 -0.11839926846E+02  0.18944721272E+01  0.16162026470E+02  0.51100000000E-03 0. -1.
        -11    1    3    3    0    0  0.10847612680E+02  0.21328308666E+01  0.29777362946E+01  0.11449304872E+02  0.51100000000E-03 0.  1.
         12    1    3    3    0    0  0.18246795283E+02 -0.68993536863E+00  0.85818844823E+01  0.20175983004E+02  0.00000000000E+00 0. -1.
</event>
<event>
 7    1  0.1418970E-010  0.4778727E+02  0.7816164E-02  0.1312668E+00
        -11   -1    0    0    0    0  0.00000000000E+00  0.00000000000E+00  0.45593999997E+02  0.45594000000E+02  0.51100000000E-03 0.  1.
         11   -1    0    0    0    0 -0.00000000000E+00 -0.00000000000E+00 -0.45593999997E+02  0.45594000000E+02  0.51100000000E-03 0. -1.
    9900012    2    1    2    0    0  0.25209698543E+02  0.29018386421E+02  0.20150127477E+02  0.47787270876E+02  0.19999999234E+02 0.  0.
         12    1    1    2    0    0 -0.25209698543E+02 -0.29018386421E+02 -0.20150127477E+02  0.43400729124E+02  0.00000000000E+00 0. -1.
         11    1    3    3    0    0  0.13888752237E+02  0.21903925009E+02  0.13783832714E+02  0.29371302559E+02  0.51100000000E-03 0.  1.
        -11    1    3    3    0    0  0.96204735467E+01  0.26598022942E+01  0.85769502264E+01  0.13160248286E+02  0.51100000000E-03 0. -1.
         12    1    3    3    0    0  0.17004727592E+01  0.44546591182E+01 -0.22106554633E+01  0.52557200307E+01  0.00000000000E+00 0. -1.
</event>
<event>
 7    1  0.1418970E-010  0.4778727E+02  0.7816164E-02  0.1312668E+00
        -11   -1    0    0    0    0  0.00000000000E+00  0.00000000000E+00  0.45593999997E+02  0.45594000000E+02  0.51100000000E-03 0. -1.
         11   -1    0    0    0    0 -0.00000000000E+00 -0.00000000000E+00 -0.45593999997E+02  0.45594000000E+02  0.51100000000E-03 0.  1.
    9900012    2    1    2    0    0 -0.17673020655E+02 -0.36984026587E+02 -0.14264279236E+02  0.47787267935E+02  0.19999985822E+02 0.  0.
         12    1    1    2    0    0  0.17673020655E+02  0.36984026587E+02  0.14264279236E+02  0.43400732065E+02  0.00000000000E+00 0. -1.
         11    1    3    3    0    0 -0.57286704043E+00 -0.17575030951E+02 -0.78360516198E+01  0.19251327092E+02  0.51100000000E-03 0. -1.
        -11    1    3    3    0    0 -0.27761482072E+01  0.92766067236E+00 -0.73534049374E+00  0.30179925604E+01  0.51100000000E-03 0.  1.
         12    1    3    3    0    0 -0.14324005407E+02 -0.20336656309E+02 -0.56928871223E+01  0.25517948282E+02  0.00000000000E+00 0. -1.
</event>
<event>
 7    1  0.1418970E-010  0.4778727E+02  0.7816164E-02  0.1312668E+00
        -11   -1    0    0    0    0  0.00000000000E+00  0.00000000000E+00  0.45593999997E+02  0.45594000000E+02  0.51100000000E-03 0.  1.
         11   -1    0    0    0    0 -0.00000000000E+00 -0.00000000000E+00 -0.45593999997E+02  0.45594000000E+02  0.51100000000E-03 0. -1.
    9900012    2    1    2    0    0 -0.37457293523E+02 -0.13629913053E+02 -0.17169733589E+02  0.47787272824E+02  0.20000008114E+02 0.  0.
         12    1    1    2    0    0  0.37457293523E+02  0.13629913053E+02  0.17169733589E+02  0.43400727176E+02  0.00000000000E+00 0. -1.
         11    1    3    3    0    0 -0.10119086044E+02 -0.34101689145E+01 -0.96300171415E+01  0.14379234500E+02  0.51100000000E-03 0. -1.
        -11    1    3    3    0    0 -0.11547765329E+02  0.10126616242E+01  0.20743649388E+01  0.11776220014E+02  0.51100000000E-03 0.  1.
         12    1    3    3    0    0 -0.15790442149E+02 -0.11232405762E+02 -0.96140813865E+01  0.21631818310E+02  0.00000000000E+00 0. -1.
</event>
<event>
 7    1  0.1418970E-010  0.4778727E+02  0.7816164E-02  0.1312668E+00
        -11   -1    0    0    0    0  0.00000000000E+00  0.00000000000E+00  0.45593999997E+02  0.45594000000E+02  0.51100000000E-03 0. -1.
         11   -1    0    0    0    0 -0.00000000000E+00 -0.00000000000E+00 -0.45593999997E+02  0.45594000000E+02  0.51100000000E-03 0.  1.
    9900012    2    1    2    0    0 -0.30262440566E+02  0.27675103093E+02 -0.14209029779E+02  0.47787272270E+02  0.20000005588E+02 0.  0.
         12    1    1    2    0    0  0.30262440566E+02 -0.27675103093E+02  0.14209029779E+02  0.43400727730E+02  0.00000000000E+00 0. -1.
         11    1    3    3    0    0 -0.12060454978E+02 -0.24815978339E+00 -0.29694367012E+01  0.12423112015E+02  0.51100000000E-03 0. -1.
        -11    1    3    3    0    0 -0.61359445431E+01  0.64929099791E+01 -0.27755816692E+01  0.93547607824E+01  0.51100000000E-03 0.  1.
         12    1    3    3    0    0 -0.12066041045E+02  0.21430352897E+02 -0.84640114085E+01  0.26009399473E+02  0.00000000000E+00 0. -1.
</event>
<event>
 7    1  0.1418970E-010  0.4778727E+02  0.7816164E-02  0.1312668E+00
        -11   -1    0    0    0    0  0.00000000000E+00  0.00000000000E+00  0.45593999997E+02  0.45594000000E+02  0.51100000000E-03 0.  1.
         11   -1    0    0    0    0 -0.00000000000E+00 -0.00000000000E+00 -0.45593999997E+02  0.45594000000E+02  0.51100000000E-03 0. -1.
    9900012    2    1    2    0    0  0.10025092982E+02  0.15369700878E+02  0.39330560802E+02  0.47787271811E+02  0.20000003493E+02 0.  0.
         12    1    1    2    0    0 -0.10025092982E+02 -0.15369700878E+02 -0.39330560802E+02  0.43400728189E+02  0.00000000000E+00 0. -1.
         11    1    3    3    0    0  0.57852437539E+01  0.51081855164E+01  0.96457879857E+01  0.12353292302E+02  0.51100000000E-03 0. -1.
        -11    1    3    3    0    0 -0.47279746030E+01  0.91211358878E+01  0.14721063962E+02  0.17951562277E+02  0.51100000000E-03 0.  1.
        -12    1    3    3    0    0  0.89678238314E+01  0.11403794736E+01  0.14963708854E+02  0.17482417232E+02  0.00000000000E+00 0.  1.
</event>
<event>
 7    1  0.1418970E-010  0.4778726E+02  0.7816164E-02  0.1312668E+00
        -11   -1    0    0    0    0  0.00000000000E+00  0.00000000000E+00  0.45593999997E+02  0.45594000000E+02  0.51100000000E-03 0. -1.
         11   -1    0    0    0    0 -0.00000000000E+00 -0.00000000000E+00 -0.45593999997E+02  0.45594000000E+02  0.51100000000E-03 0.  1.
    9900012    2    1    2    0    0 -0.28595036147E+02  0.56058922002E+01 -0.32163992580E+02  0.47787256478E+02  0.19999933586E+02 0.  0.
         12    1    1    2    0    0  0.28595036147E+02 -0.56058922002E+01  0.32163992580E+02  0.43400743522E+02  0.00000000000E+00 0. -1.
         11    1    3    3    0    0 -0.11332217513E+01 -0.12096843892E+01  0.77998718151E+00  0.18319137871E+01  0.51100000000E-03 0. -1.
        -11    1    3    3    0    0 -0.21819378822E+02  0.11101348779E+02 -0.28588800469E+02  0.37638341480E+02  0.51100000000E-03 0.  1.
         12    1    3    3    0    0 -0.56424355736E+01 -0.42857721901E+01 -0.43551792925E+01  0.83170012106E+01  0.00000000000E+00 0. -1.
</event>
<event>
 7    1  0.1418970E-010  0.4778727E+02  0.7816164E-02  0.1312668E+00
        -11   -1    0    0    0    0  0.00000000000E+00  0.00000000000E+00  0.45593999997E+02  0.45594000000E+02  0.51100000000E-03 0.  1.
         11   -1    0    0    0    0 -0.00000000000E+00 -0.00000000000E+00 -0.45593999997E+02  0.45594000000E+02  0.51100000000E-03 0. -1.
    9900012    2    1    2    0    0  0.15178681929E+01  0.19824215918E+02  0.38578748076E+02  0.47787271162E+02  0.20000000535E+02 0.  0.
         12    1    1    2    0    0 -0.15178681929E+01 -0.19824215918E+02 -0.38578748076E+02  0.43400728838E+02  0.00000000000E+00 0. -1.
         11    1    3    3    0    0  0.27084972106E+01 -0.92757618121E+00  0.22738238653E+01  0.36560401999E+01  0.51100000000E-03 0. -1.
        -11    1    3    3    0    0 -0.63013933994E+01  0.81826083778E+01  0.22588794197E+02  0.24837799061E+02  0.51100000000E-03 0.  1.
        -12    1    3    3    0    0  0.51107643817E+01  0.12569183721E+02  0.13716130013E+02  0.19293431901E+02  0.00000000000E+00 0.  1.
</event>
<event>
 7    1  0.1418970E-010  0.4778727E+02  0.7816164E-02  0.1312668E+00
        -11   -1    0    0    0    0  0.00000000000E+00  0.00000000000E+00  0.45593999997E+02  0.45594000000E+02  0.51100000000E-03 0.  1.
         11   -1    0    0    0    0 -0.00000000000E+00 -0.00000000000E+00 -0.45593999997E+02  0.45594000000E+02  0.51100000000E-03 0. -1.
    9900012    2    1    2    0    0  0.18852240886E+02 -0.14062964824E+02  0.36475327265E+02  0.47787268841E+02  0.19999989952E+02 0.  0.
         12    1    1    2    0    0 -0.18852240886E+02  0.14062964824E+02 -0.36475327265E+02  0.43400731159E+02  0.00000000000E+00 0. -1.
         11    1    3    3    0    0  0.14116090565E+02 -0.56476306123E+01  0.16200022637E+02  0.22217121282E+02  0.51100000000E-03 0. -1.
        -11    1    3    3    0    0  0.30517658281E+01 -0.16652675735E+01  0.17876098687E+02  0.18211021259E+02  0.51100000000E-03 0.  1.
         12    1    3    3    0    0  0.16843844933E+01 -0.67500666385E+01  0.23992059412E+01  0.73591262996E+01  0.00000000000E+00 0. -1.
</event>
<event>
 7    1  0.1418970E-010  0.4778727E+02  0.7816164E-02  0.1312668E+00
        -11   -1    0    0    0    0  0.00000000000E+00  0.00000000000E+00  0.45593999997E+02  0.45594000000E+02  0.51100000000E-03 0. -1.
         11   -1    0    0    0    0 -0.00000000000E+00 -0.00000000000E+00 -0.45593999997E+02  0.45594000000E+02  0.51100000000E-03 0.  1.
    9900012    2    1    2    0    0  0.36285095941E+01 -0.24864843152E+02 -0.35386399267E+02  0.47787265445E+02  0.19999974471E+02 0.  0.
         12    1    1    2    0    0 -0.36285095941E+01  0.24864843152E+02  0.35386399267E+02  0.43400734555E+02  0.00000000000E+00 0. -1.
         11    1    3    3    0    0  0.38689832038E+01 -0.68493439152E+01 -0.51248908893E+01  0.93886660388E+01  0.51100000000E-03 0. -1.
        -11    1    3    3    0    0 -0.64990063474E+01 -0.46928767768E+01 -0.16038266842E+02  0.17930035680E+02  0.51100000000E-03 0.  1.
        -12    1    3    3    0    0  0.62585327378E+01 -0.13322622459E+02 -0.14223241536E+02  0.20468563726E+02  0.00000000000E+00 0.  1.
</event>
<event>
 7    1  0.1418970E-010  0.4778727E+02  0.7816164E-02  0.1312668E+00
        -11   -1    0    0    0    0  0.00000000000E+00  0.00000000000E+00  0.45593999997E+02  0.45594000000E+02  0.51100000000E-03 0. -1.
         11   -1    0    0    0    0 -0.00000000000E+00 -0.00000000000E+00 -0.45593999997E+02  0.45594000000E+02  0.51100000000E-03 0.  1.
    9900012    2    1    2    0    0  0.40369213665E+02 -0.12816591186E+02 -0.94702106620E+01  0.47787270610E+02  0.19999998020E+02 0.  0.
         12    1    1    2    0    0 -0.40369213665E+02  0.12816591186E+02  0.94702106620E+01  0.43400729390E+02  0.00000000000E+00 0. -1.
         11    1    3    3    0    0  0.16940209189E+02 -0.11388820444E+02 -0.77133983999E+01  0.21821375612E+02  0.51100000000E-03 0. -1.
        -11    1    3    3    0    0  0.22338564790E+02 -0.18648673496E+01 -0.46054897413E+01  0.22884486954E+02  0.51100000000E-03 0.  1.
        -12    1    3    3    0    0  0.10904396863E+01  0.43709660825E+00  0.28486774793E+01  0.30814080443E+01  0.00000000000E+00 0.  1.
</event>
<event>
 7    1  0.1418970E-010  0.4778726E+02  0.7816164E-02  0.1312668E+00
        -11   -1    0    0    0    0  0.00000000000E+00  0.00000000000E+00  0.45593999997E+02  0.45594000000E+02  0.51100000000E-03 0.  1.
         11   -1    0    0    0    0 -0.00000000000E+00 -0.00000000000E+00 -0.45593999997E+02  0.45594000000E+02  0.51100000000E-03 0. -1.
    9900012    2    1    2    0    0  0.36235926943E+02  0.90608846290E+01  0.22101624829E+02  0.47787264387E+02  0.19999969646E+02 0.  0.
         12    1    1    2    0    0 -0.36235926943E+02 -0.90608846290E+01 -0.22101624829E+02  0.43400735613E+02  0.00000000000E+00 0. -1.
         11    1    3    3    0    0  0.11148744289E+01 -0.11637583500E+01 -0.18706826754E+01  0.24691562167E+01  0.51100000000E-03 0. -1.
        -11    1    3    3    0    0  0.81732511328E+01 -0.26172755970E+01  0.46786374376E+01  0.97745493075E+01  0.51100000000E-03 0.  1.
        -12    1    3    3    0    0  0.26947801381E+02  0.12841918576E+02  0.19293670067E+02  0.35543558863E+02  0.00000000000E+00 0.  1.
</event>
<event>
 7    1  0.1418970E-010  0.4778726E+02  0.7816164E-02  0.1312668E+00
        -11   -1    0    0    0    0  0.00000000000E+00  0.00000000000E+00  0.45593999997E+02  0.45594000000E+02  0.51100000000E-03 0.  1.
         11   -1    0    0    0    0 -0.00000000000E+00 -0.00000000000E+00 -0.45593999997E+02  0.45594000000E+02  0.51100000000E-03 0. -1.
    9900012    2    1    2    0    0 -0.70252239229E+01  0.92743870716E+01  0.41812148683E+02  0.47787264934E+02  0.19999972142E+02 0.  0.
         12    1    1    2    0    0  0.70252239229E+01 -0.92743870716E+01 -0.41812148683E+02  0.43400735066E+02  0.00000000000E+00 0. -1.
         11    1    3    3    0    0 -0.43874411015E+01  0.29673285661E+01  0.58669229038E+01  0.79041421330E+01  0.51100000000E-03 0. -1.
        -11    1    3    3    0    0  0.61384074770E+01  0.22454103490E+01  0.21719470738E+02  0.22681651690E+02  0.51100000000E-03 0.  1.
        -12    1    3    3    0    0 -0.87761902983E+01  0.40616481566E+01  0.14225755042E+02  0.17201471112E+02  0.00000000000E+00 0.  1.
</event>
<event>
 7    1  0.1418970E-010  0.4778732E+02  0.7816164E-02  0.1312668E+00
        -11   -1    0    0    0    0  0.00000000000E+00  0.00000000000E+00  0.45593999997E+02  0.45594000000E+02  0.51100000000E-03 0.  1.
         11   -1    0    0    0    0 -0.00000000000E+00 -0.00000000000E+00 -0.45593999997E+02  0.45594000000E+02  0.51100000000E-03 0. -1.
    9900012    2    1    2    0    0 -0.26620164872E+02 -0.25353905643E+02  0.23068715096E+02  0.47787316533E+02  0.20000207401E+02 0.  0.
         12    1    1    2    0    0  0.26620164872E+02  0.25353905643E+02 -0.23068715096E+02  0.43400683467E+02  0.00000000000E+00 0. -1.
         11    1    3    3    0    0 -0.14053026141E+01 -0.60257998822E+01 -0.10625716988E+00  0.61884109838E+01  0.51100000000E-03 0.  1.
        -11    1    3    3    0    0 -0.20309238074E+02 -0.19996896700E+02  0.15439819361E+02  0.32414951040E+02  0.51100000000E-03 0. -1.
         12    1    3    3    0    0 -0.49056241847E+01  0.66879093962E+00  0.77351529053E+01  0.91839545094E+01  0.00000000000E+00 0. -1.
</event>
<event>
 7    1  0.1418970E-010  0.4778727E+02  0.7816164E-02  0.1312668E+00
        -11   -1    0    0    0    0  0.00000000000E+00  0.00000000000E+00  0.45593999997E+02  0.45594000000E+02  0.51100000000E-03 0.  1.
         11   -1    0    0    0    0 -0.00000000000E+00 -0.00000000000E+00 -0.45593999997E+02  0.45594000000E+02  0.51100000000E-03 0. -1.
    9900012    2    1    2    0    0  0.44322642027E+00  0.17002758998E+02  0.39929102434E+02  0.47787268620E+02  0.19999988944E+02 0.  0.
         12    1    1    2    0    0 -0.44322642027E+00 -0.17002758998E+02 -0.39929102434E+02  0.43400731380E+02  0.00000000000E+00 0. -1.
         11    1    3    3    0    0 -0.12188770866E+01  0.83473908156E+00  0.12905451062E+02  0.12989731255E+02  0.51100000000E-03 0. -1.
        -11    1    3    3    0    0 -0.36748785911E+01  0.28594888272E+01  0.16133783654E+02  0.16792271564E+02  0.51100000000E-03 0.  1.
         12    1    3    3    0    0  0.53369820979E+01  0.13308531089E+02  0.10889867717E+02  0.18005265801E+02  0.00000000000E+00 0. -1.
</event>
<event>
 7    1  0.1418970E-010  0.4778727E+02  0.7816164E-02  0.1312668E+00
        -11   -1    0    0    0    0  0.00000000000E+00  0.00000000000E+00  0.45593999997E+02  0.45594000000E+02  0.51100000000E-03 0.  1.
         11   -1    0    0    0    0 -0.00000000000E+00 -0.00000000000E+00 -0.45593999997E+02  0.45594000000E+02  0.51100000000E-03 0. -1.
    9900012    2    1    2    0    0 -0.35951844530E+02  0.10823224744E+01  0.24288201127E+02  0.47787271192E+02  0.20000000672E+02 0.  0.
         12    1    1    2    0    0  0.35951844530E+02 -0.10823224744E+01 -0.24288201127E+02  0.43400728808E+02  0.00000000000E+00 0. -1.
         11    1    3    3    0    0 -0.11246619041E+00 -0.14480195946E+01 -0.60903540889E+00  0.15749075467E+01  0.51100000000E-03 0. -1.
        -11    1    3    3    0    0  0.30562876902E+00 -0.94440090752E+00  0.44090899058E+01  0.45194442222E+01  0.51100000000E-03 0.  1.
        -12    1    3    3    0    0 -0.36145007109E+02  0.34747429765E+01  0.20488146630E+02  0.41692919423E+02  0.00000000000E+00 0.  1.
</event>
<event>
 7    1  0.1418970E-010  0.4778727E+02  0.7816164E-02  0.1312668E+00
        -11   -1    0    0    0    0  0.00000000000E+00  0.00000000000E+00  0.45593999997E+02  0.45594000000E+02  0.51100000000E-03 0. -1.
         11   -1    0    0    0    0 -0.00000000000E+00 -0.00000000000E+00 -0.45593999997E+02  0.45594000000E+02  0.51100000000E-03 0.  1.
    9900012    2    1    2    0    0 -0.26957020126E+02 -0.33423291888E+02 -0.63108077623E+01  0.47787266489E+02  0.19999979229E+02 0.  0.
         12    1    1    2    0    0  0.26957020126E+02  0.33423291888E+02  0.63108077623E+01  0.43400733511E+02  0.00000000000E+00 0. -1.
         11    1    3    3    0    0 -0.36709445914E+01 -0.30638350765E+01  0.77327717948E+00  0.48436429912E+01  0.51100000000E-03 0. -1.
        -11    1    3    3    0    0 -0.84023477824E+01 -0.97014314401E+01 -0.11343231259E+02  0.17128517621E+02  0.51100000000E-03 0.  1.
        -12    1    3    3    0    0 -0.14883727752E+02 -0.20658025372E+02  0.42591463173E+01  0.25815105876E+02  0.00000000000E+00 0.  1.
</event>
<event>
 7    1  0.1418970E-010  0.4778727E+02  0.7816164E-02  0.1312668E+00
        -11   -1    0    0    0    0  0.00000000000E+00  0.00000000000E+00  0.45593999997E+02  0.45594000000E+02  0.51100000000E-03 0.  1.
         11   -1    0    0    0    0 -0.00000000000E+00 -0.00000000000E+00 -0.45593999997E+02  0.45594000000E+02  0.51100000000E-03 0. -1.
    9900012    2    1    2    0    0 -0.29460074988E+02 -0.94392981923E+01  0.30440542059E+02  0.47787274550E+02  0.20000015985E+02 0.  0.
         12    1    1    2    0    0  0.29460074988E+02  0.94392981923E+01 -0.30440542059E+02  0.43400725450E+02  0.00000000000E+00 0. -1.
         11    1    3    3    0    0  0.18741485142E+01 -0.53268563466E+00  0.61686903749E+00  0.20437011301E+01  0.51100000000E-03 0. -1.
        -11    1    3    3    0    0 -0.14954367257E+02 -0.10412695949E+02  0.15043147701E+02  0.23629507612E+02  0.51100000000E-03 0.  1.
         12    1    3    3    0    0 -0.16379856246E+02  0.15060833912E+01  0.14780525320E+02  0.22114065808E+02  0.00000000000E+00 0. -1.
</event>
<event>
 7    1  0.1418970E-010  0.4778726E+02  0.7816164E-02  0.1312668E+00
        -11   -1    0    0    0    0  0.00000000000E+00  0.00000000000E+00  0.45593999997E+02  0.45594000000E+02  0.51100000000E-03 0. -1.
         11   -1    0    0    0    0 -0.00000000000E+00 -0.00000000000E+00 -0.45593999997E+02  0.45594000000E+02  0.51100000000E-03 0.  1.
    9900012    2    1    2    0    0  0.40992282379E+02 -0.11683776531E+01 -0.14208879824E+02  0.47787255918E+02  0.19999931032E+02 0.  0.
         12    1    1    2    0    0 -0.40992282379E+02  0.11683776531E+01  0.14208879824E+02  0.43400744082E+02  0.00000000000E+00 0. -1.
         11    1    3    3    0    0  0.92801994179E+01 -0.38300100992E+01  0.18937121327E+00  0.10041261888E+02  0.51100000000E-03 0. -1.
        -11    1    3    3    0    0  0.32278025613E+02  0.11841441008E+00 -0.13103216631E+02  0.34836464312E+02  0.51100000000E-03 0.  1.
         12    1    3    3    0    0 -0.56594265114E+00  0.25432180360E+01 -0.12950344059E+01  0.29095297172E+01  0.00000000000E+00 0. -1.
</event>
<event>
 7    1  0.1418970E-010  0.4778727E+02  0.7816164E-02  0.1312668E+00
        -11   -1    0    0    0    0  0.00000000000E+00  0.00000000000E+00  0.45593999997E+02  0.45594000000E+02  0.51100000000E-03 0.  1.
         11   -1    0    0    0    0 -0.00000000000E+00 -0.00000000000E+00 -0.45593999997E+02  0.45594000000E+02  0.51100000000E-03 0. -1.
    9900012    2    1    2    0    0  0.54537441302E+01  0.15511445284E+02  0.40165595390E+02  0.47787270596E+02  0.19999997953E+02 0.  0.
         12    1    1    2    0    0 -0.54537441302E+01 -0.15511445284E+02 -0.40165595390E+02  0.43400729404E+02  0.00000000000E+00 0. -1.
         11    1    3    3    0    0  0.14942962056E+01 -0.20960499015E+01  0.76461425840E-01  0.25753044384E+01  0.51100000000E-03 0. -1.
        -11    1    3    3    0    0  0.61479312310E+01  0.57131651080E+01  0.20990545207E+02  0.22606200528E+02  0.51100000000E-03 0.  1.
        -12    1    3    3    0    0 -0.21884833063E+01  0.11894330077E+02  0.19098588757E+02  0.22605765629E+02  0.00000000000E+00 0.  1.
</event>
<event>
 7    1  0.1418970E-010  0.4778727E+02  0.7816164E-02  0.1312668E+00
        -11   -1    0    0    0    0  0.00000000000E+00  0.00000000000E+00  0.45593999997E+02  0.45594000000E+02  0.51100000000E-03 0.  1.
         11   -1    0    0    0    0 -0.00000000000E+00 -0.00000000000E+00 -0.45593999997E+02  0.45594000000E+02  0.51100000000E-03 0. -1.
    9900012    2    1    2    0    0 -0.17656317831E+02  0.63909679552E+01  0.39128423420E+02  0.47787267862E+02  0.19999985491E+02 0.  0.
         12    1    1    2    0    0  0.17656317831E+02 -0.63909679552E+01 -0.39128423420E+02  0.43400732138E+02  0.00000000000E+00 0. -1.
         11    1    3    3    0    0 -0.83674278507E+01 -0.51423110799E+01  0.12996079927E+02  0.16289730071E+02  0.51100000000E-03 0. -1.
        -11    1    3    3    0    0 -0.87233457607E+01  0.53580304535E+01  0.21311886107E+02  0.23643217660E+02  0.51100000000E-03 0.  1.
         12    1    3    3    0    0 -0.56554421928E+00  0.61752485815E+01  0.48204573866E+01  0.78543201312E+01  0.00000000000E+00 0. -1.
</event>
<event>
 7    1  0.1418970E-010  0.4778727E+02  0.7816164E-02  0.1312668E+00
        -11   -1    0    0    0    0  0.00000000000E+00  0.00000000000E+00  0.45593999997E+02  0.45594000000E+02  0.51100000000E-03 0.  1.
         11   -1    0    0    0    0 -0.00000000000E+00 -0.00000000000E+00 -0.45593999997E+02  0.45594000000E+02  0.51100000000E-03 0. -1.
    9900012    2    1    2    0    0 -0.84985524941E+01 -0.64608408524E+01  0.42067276141E+02  0.47787267507E+02  0.19999983872E+02 0.  0.
         12    1    1    2    0    0  0.84985524941E+01  0.64608408524E+01 -0.42067276141E+02  0.43400732493E+02  0.00000000000E+00 0. -1.
         11    1    3    3    0    0 -0.16446472429E+01  0.12765228638E+00  0.15191198579E+02  0.15280499802E+02  0.51100000000E-03 0.  1.
        -11    1    3    3    0    0 -0.24878909049E+01  0.24823137131E+00 -0.15528085777E+01  0.29432014386E+01  0.51100000000E-03 0. -1.
         12    1    3    3    0    0 -0.43660143463E+01 -0.68367245101E+01  0.28428886139E+02  0.29563566267E+02  0.00000000000E+00 0. -1.
</event>
<event>
 7    1  0.1418970E-010  0.4778726E+02  0.7816164E-02  0.1312668E+00
        -11   -1    0    0    0    0  0.00000000000E+00  0.00000000000E+00  0.45593999997E+02  0.45594000000E+02  0.51100000000E-03 0.  1.
         11   -1    0    0    0    0 -0.00000000000E+00 -0.00000000000E+00 -0.45593999997E+02  0.45594000000E+02  0.51100000000E-03 0. -1.
    9900012    2    1    2    0    0 -0.53643600495E+00 -0.28174339845E+02  0.33008221732E+02  0.47787263933E+02  0.19999967574E+02 0.  0.
         12    1    1    2    0    0  0.53643600495E+00  0.28174339845E+02 -0.33008221732E+02  0.43400736067E+02  0.00000000000E+00 0. -1.
         11    1    3    3    0    0  0.18348697329E+00 -0.87199995710E+01  0.19475283458E+02  0.21339136019E+02  0.51100000000E-03 0. -1.
        -11    1    3    3    0    0  0.31279808433E+01 -0.25216769812E+00  0.17621769667E+01  0.35990444047E+01  0.51100000000E-03 0.  1.
        -12    1    3    3    0    0 -0.38479038216E+01 -0.19202172576E+02  0.11770761307E+02  0.22849083509E+02  0.00000000000E+00 0.  1.
</event>
<event>
 7    1  0.1418970E-010  0.4778727E+02  0.7816164E-02  0.1312668E+00
        -11   -1    0    0    0    0  0.00000000000E+00  0.00000000000E+00  0.45593999997E+02  0.45594000000E+02  0.51100000000E-03 0.  1.
         11   -1    0    0    0    0 -0.00000000000E+00 -0.00000000000E+00 -0.45593999997E+02  0.45594000000E+02  0.51100000000E-03 0. -1.
    9900012    2    1    2    0    0  0.54873136174E+01 -0.42586172067E+02  0.63190501330E+01  0.47787273547E+02  0.20000011412E+02 0.  0.
         12    1    1    2    0    0 -0.54873136174E+01  0.42586172067E+02 -0.63190501330E+01  0.43400726453E+02  0.00000000000E+00 0. -1.
         11    1    3    3    0    0 -0.29755640664E+01 -0.24050014329E+02  0.95104317243E+01  0.26032777081E+02  0.51100000000E-03 0. -1.
        -11    1    3    3    0    0 -0.10238734964E+01 -0.22058736130E+01  0.56969587851E+00  0.24977487840E+01  0.51100000000E-03 0.  1.
        -12    1    3    3    0    0  0.94867511802E+01 -0.16330284125E+02 -0.37610774698E+01  0.19256747682E+02  0.00000000000E+00 0.  1.
</event>
<event>
 7    1  0.1418970E-010  0.4778727E+02  0.7816164E-02  0.1312668E+00
        -11   -1    0    0    0    0  0.00000000000E+00  0.00000000000E+00  0.45593999997E+02  0.45594000000E+02  0.51100000000E-03 0.  1.
         11   -1    0    0    0    0 -0.00000000000E+00 -0.00000000000E+00 -0.45593999997E+02  0.45594000000E+02  0.51100000000E-03 0. -1.
    9900012    2    1    2    0    0  0.34998218637E+02  0.22976718487E+02  0.11437590820E+02  0.47787269776E+02  0.19999994218E+02 0.  0.
         12    1    1    2    0    0 -0.34998218637E+02 -0.22976718487E+02 -0.11437590820E+02  0.43400730224E+02  0.00000000000E+00 0. -1.
         11    1    3    3    0    0  0.10494430081E+02  0.28199036604E+01 -0.12586139663E+01  0.10939334018E+02  0.51100000000E-03 0. -1.
        -11    1    3    3    0    0  0.23678073041E+02  0.22150773262E+02  0.11691445742E+02  0.34467344007E+02  0.51100000000E-03 0.  1.
        -12    1    3    3    0    0  0.82571551382E+00 -0.19939584351E+01  0.10047590440E+01  0.23805917515E+01  0.00000000000E+00 0.  1.
</event>
<event>
 7    1  0.1418970E-010  0.4778727E+02  0.7816164E-02  0.1312668E+00
        -11   -1    0    0    0    0  0.00000000000E+00  0.00000000000E+00  0.45593999997E+02  0.45594000000E+02  0.51100000000E-03 0. -1.
         11   -1    0    0    0    0 -0.00000000000E+00 -0.00000000000E+00 -0.45593999997E+02  0.45594000000E+02  0.51100000000E-03 0.  1.
    9900012    2    1    2    0    0  0.15270248431E+02 -0.19613534831E+01 -0.40578266877E+02  0.47787272617E+02  0.20000007170E+02 0.  0.
         12    1    1    2    0    0 -0.15270248431E+02  0.19613534831E+01  0.40578266877E+02  0.43400727383E+02  0.00000000000E+00 0. -1.
         11    1    3    3    0    0  0.35462589656E+01  0.13580026329E+01 -0.20252085586E+02  0.20605025956E+02  0.51100000000E-03 0. -1.
        -11    1    3    3    0    0  0.61940188197E+01  0.42424318302E+01 -0.43911596645E+01  0.86974927670E+01  0.51100000000E-03 0.  1.
        -12    1    3    3    0    0  0.55299706462E+01 -0.75617879462E+01 -0.15935021626E+02  0.18484753894E+02  0.00000000000E+00 0.  1.
</event>
<event>
 7    1  0.1418970E-010  0.4778729E+02  0.7816164E-02  0.1312668E+00
        -11   -1    0    0    0    0  0.00000000000E+00  0.00000000000E+00  0.45593999997E+02  0.45594000000E+02  0.51100000000E-03 0.  1.
         11   -1    0    0    0    0 -0.00000000000E+00 -0.00000000000E+00 -0.45593999997E+02  0.45594000000E+02  0.51100000000E-03 0. -1.
    9900012    2    1    2    0    0  0.27663374289E+02 -0.71288296063E+01 -0.32673216908E+02  0.47787290423E+02  0.20000088356E+02 0.  0.
         12    1    1    2    0    0 -0.27663374289E+02  0.71288296063E+01  0.32673216908E+02  0.43400709577E+02  0.00000000000E+00 0. -1.
         11    1    3    3    0    0  0.24892411591E+01 -0.67004368372E+01 -0.68664762222E+01  0.99116432204E+01  0.51100000000E-03 0.  1.
        -11    1    3    3    0    0  0.16660879116E+02 -0.39613170241E+01 -0.10744075746E+02  0.20216629031E+02  0.51100000000E-03 0. -1.
         12    1    3    3    0    0  0.85132540137E+01  0.35329242550E+01 -0.15062664940E+02  0.17659018172E+02  0.00000000000E+00 0. -1.
</event>
<event>
 7    1 -0.1418970E-010  0.4778727E+02  0.7816164E-02  0.1312668E+00
        -11   -1    0    0    0    0  0.00000000000E+00  0.00000000000E+00  0.45593999997E+02  0.45594000000E+02  0.51100000000E-03 0. -1.
         11   -1    0    0    0    0 -0.00000000000E+00 -0.00000000000E+00 -0.45593999997E+02  0.45594000000E+02  0.51100000000E-03 0.  1.
    9900012    2    1    2    0    0 -0.10558161633E+02  0.42058867347E+02  0.17889823477E+01  0.47787267778E+02  0.19999985106E+02 0.  0.
         12    1    1    2    0    0  0.10558161633E+02 -0.42058867347E+02 -0.17889823477E+01  0.43400732222E+02  0.00000000000E+00 0. -1.
         11    1    3    3    0    0 -0.18874961386E+01  0.20386275834E+02  0.25378205057E+01  0.20630157954E+02  0.51100000000E-03 0. -1.
        -11    1    3    3    0    0 -0.87840760511E+01  0.17602981762E+02 -0.59490907722E+01  0.20552776947E+02  0.51100000000E-03 0.  1.
        -12    1    3    3    0    0  0.11341055614E+00  0.40696097517E+01  0.52002526143E+01  0.66043328760E+01  0.00000000000E+00 0.  1.
</event>
<event>
 7    1  0.1418970E-010  0.4778728E+02  0.7816164E-02  0.1312668E+00
        -11   -1    0    0    0    0  0.00000000000E+00  0.00000000000E+00  0.45593999997E+02  0.45594000000E+02  0.51100000000E-03 0.  1.
         11   -1    0    0    0    0 -0.00000000000E+00 -0.00000000000E+00 -0.45593999997E+02  0.45594000000E+02  0.51100000000E-03 0. -1.
    9900012    2    1    2    0    0 -0.14461050851E+02 -0.28766392828E+02  0.29103185124E+02  0.47787277283E+02  0.20000028442E+02 0.  0.
         12    1    1    2    0    0  0.14461050851E+02  0.28766392828E+02 -0.29103185124E+02  0.43400722717E+02  0.00000000000E+00 0. -1.
         11    1    3    3    0    0 -0.15653224354E+01 -0.11522966300E+02  0.54648602173E+01  0.12848878711E+02  0.51100000000E-03 0. -1.
        -11    1    3    3    0    0 -0.27795042110E+01 -0.55110264324E+01 -0.56905026899E+00  0.61984574264E+01  0.51100000000E-03 0.  1.
        -12    1    3    3    0    0 -0.10116224204E+02 -0.11732400096E+02  0.24207375175E+02  0.28739941146E+02  0.00000000000E+00 0.  1.
</event>
<event>
 7    1  0.1427516E-010  0.4778726E+02  0.7816164E-02  0.1312668E+00
        -11   -1    0    0    0    0  0.00000000000E+00  0.00000000000E+00  0.45593999997E+02  0.45594000000E+02  0.51100000000E-03 0. -1.
         11   -1    0    0    0    0 -0.00000000000E+00 -0.00000000000E+00 -0.45593999997E+02  0.45594000000E+02  0.51100000000E-03 0.  1.
    9900012    2    1    2    0    0 -0.27232452654E+02 -0.18015068631E+01 -0.33745698005E+02  0.47787262237E+02  0.19999959843E+02 0.  0.
         12    1    1    2    0    0  0.27232452654E+02  0.18015068631E+01  0.33745698005E+02  0.43400737763E+02  0.00000000000E+00 0. -1.
         11    1    3    3    0    0 -0.50852671304E+01  0.33950382065E+01 -0.43123905017E+01  0.74821747047E+01  0.51100000000E-03 0. -1.
        -11    1    3    3    0    0 -0.12869711206E+02 -0.60264467336E+01 -0.27257931800E+02  0.30739914981E+02  0.51100000000E-03 0.  1.
        -12    1    3    3    0    0 -0.92774743175E+01  0.82990166408E+00 -0.21753757028E+01  0.95651725511E+01  0.00000000000E+00 0.  1.
</event>
<event>
 7    1  0.1418970E-010  0.4778726E+02  0.7816164E-02  0.1312668E+00
        -11   -1    0    0    0    0  0.00000000000E+00  0.00000000000E+00  0.45593999997E+02  0.45594000000E+02  0.51100000000E-03 0.  1.
         11   -1    0    0    0    0 -0.00000000000E+00 -0.00000000000E+00 -0.45593999997E+02  0.45594000000E+02  0.51100000000E-03 0. -1.
    9900012    2    1    2    0    0 -0.77139134622E+01  0.42681949805E+02 -0.15396483521E+01  0.47787264786E+02  0.19999971465E+02 0.  0.
         12    1    1    2    0    0  0.77139134622E+01 -0.42681949805E+02  0.15396483521E+01  0.43400735214E+02  0.00000000000E+00 0. -1.
         11    1    3    3    0    0 -0.28137454244E+00  0.12383051375E+02  0.42852042418E+01  0.13106567386E+02  0.51100000000E-03 0.  1.
        -11    1    3    3    0    0 -0.10554315300E+02  0.15686327859E+02 -0.82640613392E+00  0.18924518502E+02  0.51100000000E-03 0. -1.
        -12    1    3    3    0    0  0.31217763802E+01  0.14612570571E+02 -0.49984464600E+01  0.15756178898E+02  0.00000000000E+00 0.  1.
</event>
<event>
 7    1  0.1418970E-010  0.4778727E+02  0.7816164E-02  0.1312668E+00
        -11   -1    0    0    0    0  0.00000000000E+00  0.00000000000E+00  0.45593999997E+02  0.45594000000E+02  0.51100000000E-03 0.  1.
         11   -1    0    0    0    0 -0.00000000000E+00 -0.00000000000E+00 -0.45593999997E+02  0.45594000000E+02  0.51100000000E-03 0. -1.
    9900012    2    1    2    0    0  0.33386628296E+02  0.21238485388E+02  0.17829284375E+02  0.47787267381E+02  0.19999983295E+02 0.  0.
         12    1    1    2    0    0 -0.33386628296E+02 -0.21238485388E+02 -0.17829284375E+02  0.43400732619E+02  0.00000000000E+00 0. -1.
         11    1    3    3    0    0  0.63936911253E+01  0.11974774894E+02  0.40605977905E+01  0.14169085173E+02  0.51100000000E-03 0. -1.
        -11    1    3    3    0    0  0.20280624048E+02  0.73966240983E+01  0.45479398960E+01  0.22061222028E+02  0.51100000000E-03 0.  1.
         12    1    3    3    0    0  0.67123131230E+01  0.18670863952E+01  0.92207466890E+01  0.11556960179E+02  0.00000000000E+00 0. -1.
</event>
<event>
 7    1  0.1418970E-010  0.4778727E+02  0.7816164E-02  0.1312668E+00
        -11   -1    0    0    0    0  0.00000000000E+00  0.00000000000E+00  0.45593999997E+02  0.45594000000E+02  0.51100000000E-03 0. -1.
         11   -1    0    0    0    0 -0.00000000000E+00 -0.00000000000E+00 -0.45593999997E+02  0.45594000000E+02  0.51100000000E-03 0.  1.
    9900012    2    1    2    0    0  0.24231169034E+02  0.35865521687E+02 -0.31840633803E+01  0.47787268920E+02  0.19999990313E+02 0.  0.
         12    1    1    2    0    0 -0.24231169034E+02 -0.35865521687E+02  0.31840633803E+01  0.43400731080E+02  0.00000000000E+00 0. -1.
         11    1    3    3    0    0  0.18522544484E+01 -0.12623814866E+01  0.12076250989E+00  0.22447800347E+01  0.51100000000E-03 0. -1.
        -11    1    3    3    0    0  0.10608566160E+02  0.29324114585E+02 -0.76401384382E+00  0.31193414202E+02  0.51100000000E-03 0.  1.
        -12    1    3    3    0    0  0.11770348426E+02  0.78037885889E+01 -0.25408120464E+01  0.14349074683E+02  0.00000000000E+00 0.  1.
</event>
<event>
 7    1  0.1418970E-010  0.4778727E+02  0.7816164E-02  0.1312668E+00
        -11   -1    0    0    0    0  0.00000000000E+00  0.00000000000E+00  0.45593999997E+02  0.45594000000E+02  0.51100000000E-03 0.  1.
         11   -1    0    0    0    0 -0.00000000000E+00 -0.00000000000E+00 -0.45593999997E+02  0.45594000000E+02  0.51100000000E-03 0. -1.
    9900012    2    1    2    0    0  0.17815167677E+02 -0.28505898069E+02  0.27452810749E+02  0.47787271410E+02  0.20000001668E+02 0.  0.
         12    1    1    2    0    0 -0.17815167677E+02  0.28505898069E+02 -0.27452810749E+02  0.43400728590E+02  0.00000000000E+00 0. -1.
         11    1    3    3    0    0  0.10634707302E+01  0.18435940969E+01  0.68669274928E+01  0.71891934625E+01  0.51100000000E-03 0. -1.
        -11    1    3    3    0    0  0.61189918640E+01 -0.82577361958E+01  0.41646199632E+01  0.11089469248E+02  0.51100000000E-03 0.  1.
         12    1    3    3    0    0  0.10632705083E+02 -0.22091755970E+02  0.16421263293E+02  0.29508608699E+02  0.00000000000E+00 0. -1.
</event>
<event>
 7    1  0.1418970E-010  0.4778727E+02  0.7816164E-02  0.1312668E+00
        -11   -1    0    0    0    0  0.00000000000E+00  0.00000000000E+00  0.45593999997E+02  0.45594000000E+02  0.51100000000E-03 0. -1.
         11   -1    0    0    0    0 -0.00000000000E+00 -0.00000000000E+00 -0.45593999997E+02  0.45594000000E+02  0.51100000000E-03 0.  1.
    9900012    2    1    2    0    0 -0.27798362299E+02  0.32820877732E+02  0.58020747931E+01  0.47787273814E+02  0.20000012626E+02 0.  0.
         12    1    1    2    0    0  0.27798362299E+02 -0.32820877732E+02 -0.58020747931E+01  0.43400726186E+02  0.00000000000E+00 0. -1.
         11    1    3    3    0    0 -0.24990246014E+00  0.11218877317E+01 -0.23607656890E+01  0.26256995680E+01  0.51100000000E-03 0. -1.
        -11    1    3    3    0    0 -0.24943199020E+02  0.18839503486E+02  0.48878573892E+01  0.31638287234E+02  0.51100000000E-03 0.  1.
         12    1    3    3    0    0 -0.26052608183E+01  0.12859486514E+02  0.32749830930E+01  0.13523287012E+02  0.00000000000E+00 0. -1.
</event>
<event>
 7    1  0.1418970E-010  0.4778728E+02  0.7816164E-02  0.1312668E+00
        -11   -1    0    0    0    0  0.00000000000E+00  0.00000000000E+00  0.45593999997E+02  0.45594000000E+02  0.51100000000E-03 0.  1.
         11   -1    0    0    0    0 -0.00000000000E+00 -0.00000000000E+00 -0.45593999997E+02  0.45594000000E+02  0.51100000000E-03 0. -1.
    9900012    2    1    2    0    0  0.38203377306E+02 -0.17731030748E+02  0.10475444938E+02  0.47787280701E+02  0.20000044030E+02 0.  0.
         12    1    1    2    0    0 -0.38203377306E+02  0.17731030748E+02 -0.10475444938E+02  0.43400719299E+02  0.00000000000E+00 0. -1.
         11    1    3    3    0    0  0.22109572453E+01 -0.24656798104E+01  0.43032065054E+01  0.54300548208E+01  0.51100000000E-03 0. -1.
        -11    1    3    3    0    0  0.73344239819E+01 -0.10561414354E+02  0.15846102090E+01  0.12955625731E+02  0.51100000000E-03 0.  1.
        -12    1    3    3    0    0  0.28657996079E+02 -0.47039365833E+01  0.45876282232E+01  0.29401600150E+02  0.00000000000E+00 0.  1.
</event>
<event>
 7    1  0.1418970E-010  0.4778727E+02  0.7816164E-02  0.1312668E+00
        -11   -1    0    0    0    0  0.00000000000E+00  0.00000000000E+00  0.45593999997E+02  0.45594000000E+02  0.51100000000E-03 0.  1.
         11   -1    0    0    0    0 -0.00000000000E+00 -0.00000000000E+00 -0.45593999997E+02  0.45594000000E+02  0.51100000000E-03 0. -1.
    9900012    2    1    2    0    0 -0.94815044772E+01 -0.41878147623E+02  0.63202173389E+01  0.47787270482E+02  0.19999997436E+02 0.  0.
         12    1    1    2    0    0  0.94815044772E+01  0.41878147623E+02 -0.63202173389E+01  0.43400729518E+02  0.00000000000E+00 0. -1.
         11    1    3    3    0    0 -0.92178213013E+01 -0.25140936440E+02  0.68058763717E+01  0.27628877430E+02  0.51100000000E-03 0. -1.
        -11    1    3    3    0    0  0.63890157138E+00 -0.17723210590E+02 -0.23230265571E+01  0.17886219318E+02  0.51100000000E-03 0.  1.
        -12    1    3    3    0    0 -0.90258474727E+00  0.98599940720E+00  0.18373675244E+01  0.22721737338E+01  0.00000000000E+00 0.  1.
</event>
<event>
 7    1  0.1418970E-010  0.4778727E+02  0.7816164E-02  0.1312668E+00
        -11   -1    0    0    0    0  0.00000000000E+00  0.00000000000E+00  0.45593999997E+02  0.45594000000E+02  0.51100000000E-03 0. -1.
         11   -1    0    0    0    0 -0.00000000000E+00 -0.00000000000E+00 -0.45593999997E+02  0.45594000000E+02  0.51100000000E-03 0.  1.
    9900012    2    1    2    0    0  0.22682133444E+02 -0.62641433758E+01 -0.36467856367E+02  0.47787271690E+02  0.20000002945E+02 0.  0.
         12    1    1    2    0    0 -0.22682133444E+02  0.62641433758E+01  0.36467856367E+02  0.43400728310E+02  0.00000000000E+00 0. -1.
         11    1    3    3    0    0  0.65617740616E+01  0.38541758977E+01 -0.45554363807E+01  0.88692475197E+01  0.51100000000E-03 0. -1.
        -11    1    3    3    0    0  0.10448043087E+02 -0.31556552784E+01 -0.84731552843E+01  0.13817167774E+02  0.51100000000E-03 0.  1.
         12    1    3    3    0    0  0.56723162961E+01 -0.69626639950E+01 -0.23439264702E+02  0.25100856396E+02  0.00000000000E+00 0. -1.
</event>
<event>
 7    1  0.1543300E-010  0.4778727E+02  0.7816164E-02  0.1312668E+00
        -11   -1    0    0    0    0  0.00000000000E+00  0.00000000000E+00  0.45593999997E+02  0.45594000000E+02  0.51100000000E-03 0. -1.
         11   -1    0    0    0    0 -0.00000000000E+00 -0.00000000000E+00 -0.45593999997E+02  0.45594000000E+02  0.51100000000E-03 0.  1.
    9900012    2    1    2    0    0  0.33495373317E+02 -0.55567018948E+01 -0.27033431637E+02  0.47787269641E+02  0.19999993601E+02 0.  0.
         12    1    1    2    0    0 -0.33495373317E+02  0.55567018948E+01  0.27033431637E+02  0.43400730359E+02  0.00000000000E+00 0. -1.
         11    1    3    3    0    0  0.28883541525E+01  0.18996773108E+01  0.32990490929E+00  0.34727800255E+01  0.51100000000E-03 0. -1.
        -11    1    3    3    0    0  0.30313523066E+02 -0.95614073816E+01 -0.22314165679E+02  0.38836222550E+02  0.51100000000E-03 0.  1.
        -12    1    3    3    0    0  0.29349609884E+00  0.21050281761E+01 -0.50491708679E+01  0.54782670650E+01  0.00000000000E+00 0.  1.
</event>
<event>
 7    1  0.1418970E-010  0.4778727E+02  0.7816164E-02  0.1312668E+00
        -11   -1    0    0    0    0  0.00000000000E+00  0.00000000000E+00  0.45593999997E+02  0.45594000000E+02  0.51100000000E-03 0. -1.
         11   -1    0    0    0    0 -0.00000000000E+00 -0.00000000000E+00 -0.45593999997E+02  0.45594000000E+02  0.51100000000E-03 0.  1.
    9900012    2    1    2    0    0 -0.98287283120E+01  0.16041418871E+02 -0.39111285524E+02  0.47787266423E+02  0.19999978931E+02 0.  0.
         12    1    1    2    0    0  0.98287283120E+01 -0.16041418871E+02  0.39111285524E+02  0.43400733577E+02  0.00000000000E+00 0. -1.
         11    1    3    3    0    0 -0.11169837509E+02  0.10260353258E+02 -0.22530638603E+02  0.27160077229E+02  0.51100000000E-03 0. -1.
        -11    1    3    3    0    0 -0.33090220237E+01  0.37491870973E+00 -0.97577923287E+00  0.34702069340E+01  0.51100000000E-03 0.  1.
        -12    1    3    3    0    0  0.46501312211E+01  0.54061469034E+01 -0.15604867689E+02  0.17156982261E+02  0.00000000000E+00 0.  1.
</event>
<event>
 7    1  0.1418970E-010  0.4778727E+02  0.7816164E-02  0.1312668E+00
        -11   -1    0    0    0    0  0.00000000000E+00  0.00000000000E+00  0.45593999997E+02  0.45594000000E+02  0.51100000000E-03 0. -1.
         11   -1    0    0    0    0 -0.00000000000E+00 -0.00000000000E+00 -0.45593999997E+02  0.45594000000E+02  0.51100000000E-03 0.  1.
    9900012    2    1    2    0    0 -0.16015376459E+02  0.39636665150E+02 -0.74877020627E+01  0.47787272017E+02  0.20000004433E+02 0.  0.
         12    1    1    2    0    0  0.16015376459E+02 -0.39636665150E+02  0.74877020627E+01  0.43400727983E+02  0.00000000000E+00 0. -1.
         11    1    3    3    0    0  0.49914926390E+00  0.31606954986E+01  0.24332045799E+01  0.40199043286E+01  0.51100000000E-03 0. -1.
        -11    1    3    3    0    0 -0.67025876735E+01  0.22796319647E+02  0.85946465001E+00  0.23776785963E+02  0.51100000000E-03 0.  1.
        -12    1    3    3    0    0 -0.98119380491E+01  0.13679650004E+02 -0.10780371293E+02  0.19990581725E+02  0.00000000000E+00 0.  1.
</event>
<event>
 7    1  0.1418970E-010  0.4778727E+02  0.7816164E-02  0.1312668E+00
        -11   -1    0    0    0    0  0.00000000000E+00  0.00000000000E+00  0.45593999997E+02  0.45594000000E+02  0.51100000000E-03 0.  1.
         11   -1    0    0    0    0 -0.00000000000E+00 -0.00000000000E+00 -0.45593999997E+02  0.45594000000E+02  0.51100000000E-03 0. -1.
    9900012    2    1    2    0    0 -0.73477470213E+01  0.11498893319E+02  0.41199626156E+02  0.47787272711E+02  0.20000007597E+02 0.  0.
         12    1    1    2    0    0  0.73477470213E+01 -0.11498893319E+02 -0.41199626156E+02  0.43400727289E+02  0.00000000000E+00 0. -1.
         11    1    3    3    0    0 -0.15020100680E+00  0.56714381260E+01  0.12973926629E+02  0.14160174547E+02  0.51100000000E-03 0.  1.
        -11    1    3    3    0    0 -0.95196338606E+01 -0.32835676262E+00  0.82687330006E+01  0.12613611406E+02  0.51100000000E-03 0. -1.
         12    1    3    3    0    0  0.23220878462E+01  0.61558119553E+01  0.19956966526E+02  0.21013486758E+02  0.00000000000E+00 0. -1.
</event>
<event>
 7    1  0.1418970E-010  0.4778727E+02  0.7816164E-02  0.1312668E+00
        -11   -1    0    0    0    0  0.00000000000E+00  0.00000000000E+00  0.45593999997E+02  0.45594000000E+02  0.51100000000E-03 0.  1.
         11   -1    0    0    0    0 -0.00000000000E+00 -0.00000000000E+00 -0.45593999997E+02  0.45594000000E+02  0.51100000000E-03 0. -1.
    9900012    2    1    2    0    0  0.61094567749E+01 -0.38359527292E+02  0.19360897815E+02  0.47787272352E+02  0.20000005963E+02 0.  0.
         12    1    1    2    0    0 -0.61094567749E+01  0.38359527292E+02 -0.19360897815E+02  0.43400727648E+02  0.00000000000E+00 0. -1.
         11    1    3    3    0    0 -0.41572835315E+01 -0.92826114058E+01  0.96806706929E+01  0.14041554978E+02  0.51100000000E-03 0.  1.
        -11    1    3    3    0    0  0.17216094047E+01 -0.16550553377E+02  0.20344631017E+01  0.16763764386E+02  0.51100000000E-03 0. -1.
        -12    1    3    3    0    0  0.85451309017E+01 -0.12526362510E+02  0.76457640201E+01  0.16981952989E+02  0.00000000000E+00 0.  1.
</event>
<event>
 7    1  0.1418970E-010  0.4778727E+02  0.7816164E-02  0.1312668E+00
        -11   -1    0    0    0    0  0.00000000000E+00  0.00000000000E+00  0.45593999997E+02  0.45594000000E+02  0.51100000000E-03 0. -1.
         11   -1    0    0    0    0 -0.00000000000E+00 -0.00000000000E+00 -0.45593999997E+02  0.45594000000E+02  0.51100000000E-03 0.  1.
    9900012    2    1    2    0    0  0.41794273755E+02  0.97090594566E+01  0.65265791921E+01  0.47787269705E+02  0.19999993891E+02 0.  0.
         12    1    1    2    0    0 -0.41794273755E+02 -0.97090594566E+01 -0.65265791921E+01  0.43400730295E+02  0.00000000000E+00 0. -1.
         11    1    3    3    0    0  0.21599996410E+02  0.23551932057E+01 -0.83900946947E+00  0.21744211117E+02  0.51100000000E-03 0.  1.
        -11    1    3    3    0    0  0.18481728935E+02  0.10388860324E+02  0.76670743214E+01  0.22545215727E+02  0.51100000000E-03 0. -1.
         12    1    3    3    0    0  0.17125484097E+01 -0.30349940726E+01 -0.30148565975E+00  0.34978428609E+01  0.00000000000E+00 0. -1.
</event>
<event>
 7    1  0.1418970E-010  0.4778727E+02  0.7816164E-02  0.1312668E+00
        -11   -1    0    0    0    0  0.00000000000E+00  0.00000000000E+00  0.45593999997E+02  0.45594000000E+02  0.51100000000E-03 0.  1.
         11   -1    0    0    0    0 -0.00000000000E+00 -0.00000000000E+00 -0.45593999997E+02  0.45594000000E+02  0.51100000000E-03 0. -1.
    9900012    2    1    2    0    0  0.31821794934E+02  0.26850238976E+02  0.12249971287E+02  0.47787265417E+02  0.19999974341E+02 0.  0.
         12    1    1    2    0    0 -0.31821794934E+02 -0.26850238976E+02 -0.12249971287E+02  0.43400734583E+02  0.00000000000E+00 0. -1.
         11    1    3    3    0    0  0.86680363423E+01  0.10389103278E+02 -0.17793626404E+01  0.13646774440E+02  0.51100000000E-03 0. -1.
        -11    1    3    3    0    0  0.48703575997E+01  0.96860095494E+01  0.87718841747E+01  0.13945792067E+02  0.51100000000E-03 0.  1.
         12    1    3    3    0    0  0.18283400992E+02  0.67751261478E+01  0.52574497524E+01  0.20194698909E+02  0.00000000000E+00 0. -1.
</event>
<event>
 7    1  0.1418970E-010  0.4778727E+02  0.7816164E-02  0.1312668E+00
        -11   -1    0    0    0    0  0.00000000000E+00  0.00000000000E+00  0.45593999997E+02  0.45594000000E+02  0.51100000000E-03 0.  1.
         11   -1    0    0    0    0 -0.00000000000E+00 -0.00000000000E+00 -0.45593999997E+02  0.45594000000E+02  0.51100000000E-03 0. -1.
    9900012    2    1    2    0    0  0.38863406422E+02  0.51032199759E+01  0.18633735772E+02  0.47787270494E+02  0.19999997490E+02 0.  0.
         12    1    1    2    0    0 -0.38863406422E+02 -0.51032199759E+01 -0.18633735772E+02  0.43400729506E+02  0.00000000000E+00 0. -1.
         11    1    3    3    0    0  0.63936975505E+01  0.47222081216E+01  0.98655545247E-03  0.79484979175E+01  0.51100000000E-03 0. -1.
        -11    1    3    3    0    0  0.29208391834E+02  0.45209832356E+01  0.17802290667E+02  0.34503492522E+02  0.51100000000E-03 0.  1.
         12    1    3    3    0    0  0.32613170373E+01 -0.41399713814E+01  0.83045854971E+00  0.53352800544E+01  0.00000000000E+00 0. -1.
</event>
<event>
 7    1  0.1418970E-010  0.4778727E+02  0.7816164E-02  0.1312668E+00
        -11   -1    0    0    0    0  0.00000000000E+00  0.00000000000E+00  0.45593999997E+02  0.45594000000E+02  0.51100000000E-03 0. -1.
         11   -1    0    0    0    0 -0.00000000000E+00 -0.00000000000E+00 -0.45593999997E+02  0.45594000000E+02  0.51100000000E-03 0.  1.
    9900012    2    1    2    0    0  0.26466989374E+01  0.17956455440E+02 -0.39423140280E+02  0.47787270781E+02  0.19999998799E+02 0.  0.
         12    1    1    2    0    0 -0.26466989374E+01 -0.17956455440E+02  0.39423140280E+02  0.43400729219E+02  0.00000000000E+00 0. -1.
         11    1    3    3    0    0 -0.16474918694E+01  0.21605099336E+01 -0.74472079184E+01  0.79273538254E+01  0.51100000000E-03 0. -1.
        -11    1    3    3    0    0 -0.30408317077E+01 -0.25575746855E+01 -0.64619171739E+01  0.75857906358E+01  0.51100000000E-03 0.  1.
         12    1    3    3    0    0  0.73350225145E+01  0.18353520192E+02 -0.25514015187E+02  0.32274126320E+02  0.00000000000E+00 0. -1.
</event>
<event>
 7    1  0.1418970E-010  0.4778727E+02  0.7816164E-02  0.1312668E+00
        -11   -1    0    0    0    0  0.00000000000E+00  0.00000000000E+00  0.45593999997E+02  0.45594000000E+02  0.51100000000E-03 0.  1.
         11   -1    0    0    0    0 -0.00000000000E+00 -0.00000000000E+00 -0.45593999997E+02  0.45594000000E+02  0.51100000000E-03 0. -1.
    9900012    2    1    2    0    0 -0.25507446458E+02 -0.33466569850E+02  0.10629293678E+02  0.47787274125E+02  0.20000014047E+02 0.  0.
         12    1    1    2    0    0  0.25507446458E+02  0.33466569850E+02 -0.10629293678E+02  0.43400725875E+02  0.00000000000E+00 0. -1.
         11    1    3    3    0    0  0.33431100421E+00 -0.80053635270E+01  0.19807062385E+01  0.82535329714E+01  0.51100000000E-03 0. -1.
        -11    1    3    3    0    0 -0.91474379786E+00 -0.66168556358E+01 -0.11648417730E+01  0.67805893061E+01  0.51100000000E-03 0.  1.
         12    1    3    3    0    0 -0.24927013664E+02 -0.18844350688E+02  0.98134292126E+01  0.32753151848E+02  0.00000000000E+00 0. -1.
</event>
<event>
 7    1  0.1418970E-010  0.4778727E+02  0.7816164E-02  0.1312668E+00
        -11   -1    0    0    0    0  0.00000000000E+00  0.00000000000E+00  0.45593999997E+02  0.45594000000E+02  0.51100000000E-03 0.  1.
         11   -1    0    0    0    0 -0.00000000000E+00 -0.00000000000E+00 -0.45593999997E+02  0.45594000000E+02  0.51100000000E-03 0. -1.
    9900012    2    1    2    0    0  0.54985721231E+01 -0.42907909864E+02 -0.35072323547E+01  0.47787266100E+02  0.19999977457E+02 0.  0.
         12    1    1    2    0    0 -0.54985721231E+01  0.42907909864E+02  0.35072323547E+01  0.43400733900E+02  0.00000000000E+00 0. -1.
         11    1    3    3    0    0 -0.67642138344E+00  0.98279156770E+00 -0.11317156010E+01  0.16444469028E+01  0.51100000000E-03 0. -1.
        -11    1    3    3    0    0  0.46425752826E+01 -0.39778324311E+02 -0.59433076691E+01  0.40486929947E+02  0.51100000000E-03 0.  1.
        -12    1    3    3    0    0  0.15324182239E+01 -0.41123771207E+01  0.35677909154E+01  0.56558892504E+01  0.00000000000E+00 0.  1.
</event>
<event>
 7    1  0.1418970E-010  0.4778727E+02  0.7816164E-02  0.1312668E+00
        -11   -1    0    0    0    0  0.00000000000E+00  0.00000000000E+00  0.45593999997E+02  0.45594000000E+02  0.51100000000E-03 0.  1.
         11   -1    0    0    0    0 -0.00000000000E+00 -0.00000000000E+00 -0.45593999997E+02  0.45594000000E+02  0.51100000000E-03 0. -1.
    9900012    2    1    2    0    0  0.40900637034E+02  0.14162603250E+02 -0.31909169699E+01  0.47787269687E+02  0.19999993809E+02 0.  0.
         12    1    1    2    0    0 -0.40900637034E+02 -0.14162603250E+02  0.31909169699E+01  0.43400730313E+02  0.00000000000E+00 0. -1.
         11    1    3    3    0    0  0.20996239141E+02  0.45663565671E+01 -0.25586193145E+01  0.21638858644E+02  0.51100000000E-03 0.  1.
        -11    1    3    3    0    0  0.18985167303E+02  0.74492087607E+01  0.41627670097E+01  0.20814800459E+02  0.51100000000E-03 0. -1.
         12    1    3    3    0    0  0.91923058977E+00  0.21470379217E+01 -0.47950646651E+01  0.53336105836E+01  0.00000000000E+00 0. -1.
</event>
<event>
 7    1  0.1418970E-010  0.4778727E+02  0.7816164E-02  0.1312668E+00
        -11   -1    0    0    0    0  0.00000000000E+00  0.00000000000E+00  0.45593999997E+02  0.45594000000E+02  0.51100000000E-03 0. -1.
         11   -1    0    0    0    0 -0.00000000000E+00 -0.00000000000E+00 -0.45593999997E+02  0.45594000000E+02  0.51100000000E-03 0.  1.
    9900012    2    1    2    0    0  0.17631279351E+02 -0.31595637377E+02 -0.23968247017E+02  0.47787272150E+02  0.20000005042E+02 0.  0.
         12    1    1    2    0    0 -0.17631279351E+02  0.31595637377E+02  0.23968247017E+02  0.43400727850E+02  0.00000000000E+00 0. -1.
         11    1    3    3    0    0  0.81761297428E+01 -0.14869681278E+02 -0.30440963915E+00  0.16972011795E+02  0.51100000000E-03 0. -1.
        -11    1    3    3    0    0  0.63323490980E+01 -0.69980353648E+01 -0.99501399499E+01  0.13714096009E+02  0.51100000000E-03 0.  1.
         12    1    3    3    0    0  0.31228005101E+01 -0.97279207342E+01 -0.13713697428E+02  0.17101164346E+02  0.00000000000E+00 0. -1.
</event>
<event>
 7    1  0.1418970E-010  0.4778727E+02  0.7816164E-02  0.1312668E+00
        -11   -1    0    0    0    0  0.00000000000E+00  0.00000000000E+00  0.45593999997E+02  0.45594000000E+02  0.51100000000E-03 0. -1.
         11   -1    0    0    0    0 -0.00000000000E+00 -0.00000000000E+00 -0.45593999997E+02  0.45594000000E+02  0.51100000000E-03 0.  1.
    9900012    2    1    2    0    0  0.19519009016E+02 -0.38082280425E+02  0.72367987027E+01  0.47787273614E+02  0.20000011718E+02 0.  0.
         12    1    1    2    0    0 -0.19519009016E+02  0.38082280425E+02 -0.72367987027E+01  0.43400726386E+02  0.00000000000E+00 0. -1.
         11    1    3    3    0    0  0.49094123502E+01 -0.31184512849E+01  0.47910823416E+01  0.75353525668E+01  0.51100000000E-03 0. -1.
        -11    1    3    3    0    0  0.73209624480E-01  0.90529210116E+00  0.12314516978E+01  0.15301591364E+01  0.51100000000E-03 0.  1.
        -12    1    3    3    0    0  0.14536387041E+02 -0.35869121241E+02  0.12142646633E+01  0.38721761911E+02  0.00000000000E+00 0.  1.
</event>
<event>
 7    1  0.1418970E-010  0.4778727E+02  0.7816164E-02  0.1312668E+00
        -11   -1    0    0    0    0  0.00000000000E+00  0.00000000000E+00  0.45593999997E+02  0.45594000000E+02  0.51100000000E-03 0.  1.
         11   -1    0    0    0    0 -0.00000000000E+00 -0.00000000000E+00 -0.45593999997E+02  0.45594000000E+02  0.51100000000E-03 0. -1.
    9900012    2    1    2    0    0  0.34445847845E+02  0.12073635174E+02  0.23480499613E+02  0.47787274636E+02  0.20000016375E+02 0.  0.
         12    1    1    2    0    0 -0.34445847845E+02 -0.12073635174E+02 -0.23480499613E+02  0.43400725364E+02  0.00000000000E+00 0. -1.
         11    1    3    3    0    0  0.61948849731E+01  0.15627391842E+01  0.96962561964E+01  0.11611896403E+02  0.51100000000E-03 0. -1.
        -11    1    3    3    0    0  0.25145501475E+01  0.30202859898E+01 -0.26445069743E+01  0.47369301560E+01  0.51100000000E-03 0.  1.
        -12    1    3    3    0    0  0.25736412724E+02  0.74906099998E+01  0.16428750391E+02  0.31438448077E+02  0.00000000000E+00 0.  1.
</event>
<event>
 7    1  0.1418970E-010  0.4778727E+02  0.7816164E-02  0.1312668E+00
        -11   -1    0    0    0    0  0.00000000000E+00  0.00000000000E+00  0.45593999997E+02  0.45594000000E+02  0.51100000000E-03 0. -1.
         11   -1    0    0    0    0 -0.00000000000E+00 -0.00000000000E+00 -0.45593999997E+02  0.45594000000E+02  0.51100000000E-03 0.  1.
    9900012    2    1    2    0    0 -0.30509133766E+02  0.22137567517E+02 -0.21511482768E+02  0.47787273859E+02  0.20000012831E+02 0.  0.
         12    1    1    2    0    0  0.30509133766E+02 -0.22137567517E+02  0.21511482768E+02  0.43400726141E+02  0.00000000000E+00 0. -1.
         11    1    3    3    0    0 -0.13340770302E+02  0.11254107233E+02 -0.15336861926E+02  0.23234681317E+02  0.51100000000E-03 0.  1.
        -11    1    3    3    0    0 -0.15960923962E+01 -0.19819742065E+01  0.14889070942E+01  0.29483177048E+01  0.51100000000E-03 0. -1.
         12    1    3    3    0    0 -0.15572271067E+02  0.12865434490E+02 -0.76635279360E+01  0.21604274837E+02  0.00000000000E+00 0. -1.
</event>
<event>
 7    1  0.1418970E-010  0.4778726E+02  0.7816164E-02  0.1312668E+00
        -11   -1    0    0    0    0  0.00000000000E+00  0.00000000000E+00  0.45593999997E+02  0.45594000000E+02  0.51100000000E-03 0. -1.
         11   -1    0    0    0    0 -0.00000000000E+00 -0.00000000000E+00 -0.45593999997E+02  0.45594000000E+02  0.51100000000E-03 0.  1.
    9900012    2    1    2    0    0  0.38294434455E+02 -0.11238377462E+02  0.17054588742E+02  0.47787264576E+02  0.19999970507E+02 0.  0.
         12    1    1    2    0    0 -0.38294434455E+02  0.11238377462E+02 -0.17054588742E+02  0.43400735424E+02  0.00000000000E+00 0. -1.
         11    1    3    3    0    0  0.10464692154E+02 -0.12086005531E-02 -0.80508459007E+00  0.10495615503E+02  0.51100000000E-03 0. -1.
        -11    1    3    3    0    0  0.13687319516E+02 -0.38665351817E+01  0.12698343400E+01  0.14279540937E+02  0.51100000000E-03 0.  1.
        -12    1    3    3    0    0  0.14142422785E+02 -0.73706336802E+01  0.16589838992E+02  0.23012108136E+02  0.00000000000E+00 0.  1.
</event>
<event>
 7    1  0.1418970E-010  0.4778727E+02  0.7816164E-02  0.1312668E+00
        -11   -1    0    0    0    0  0.00000000000E+00  0.00000000000E+00  0.45593999997E+02  0.45594000000E+02  0.51100000000E-03 0.  1.
         11   -1    0    0    0    0 -0.00000000000E+00 -0.00000000000E+00 -0.45593999997E+02  0.45594000000E+02  0.51100000000E-03 0. -1.
    9900012    2    1    2    0    0 -0.27119643642E+02 -0.57553043221E+01  0.33391987696E+02  0.47787269115E+02  0.19999991202E+02 0.  0.
         12    1    1    2    0    0  0.27119643642E+02  0.57553043221E+01 -0.33391987696E+02  0.43400730885E+02  0.00000000000E+00 0. -1.
         11    1    3    3    0    0 -0.16593995843E+02 -0.11906305507E+02  0.15432269392E+02  0.25598354394E+02  0.51100000000E-03 0. -1.
        -11    1    3    3    0    0 -0.31550026397E+01  0.31352124349E+01  0.34186168573E+01  0.56098609739E+01  0.51100000000E-03 0.  1.
         12    1    3    3    0    0 -0.73706451595E+01  0.30157887502E+01  0.14541101446E+02  0.16579053746E+02  0.00000000000E+00 0. -1.
</event>
<event>
 7    1  0.1418970E-010  0.4778727E+02  0.7816164E-02  0.1312668E+00
        -11   -1    0    0    0    0  0.00000000000E+00  0.00000000000E+00  0.45593999997E+02  0.45594000000E+02  0.51100000000E-03 0. -1.
         11   -1    0    0    0    0 -0.00000000000E+00 -0.00000000000E+00 -0.45593999997E+02  0.45594000000E+02  0.51100000000E-03 0.  1.
    9900012    2    1    2    0    0  0.24811711954E+02 -0.32239827242E+02 -0.15119390161E+02  0.47787268790E+02  0.19999989723E+02 0.  0.
         12    1    1    2    0    0 -0.24811711954E+02  0.32239827242E+02  0.15119390161E+02  0.43400731210E+02  0.00000000000E+00 0. -1.
         11    1    3    3    0    0  0.13703259301E+02 -0.23293205722E+02 -0.71269334871E+01  0.27948987987E+02  0.51100000000E-03 0.  1.
        -11    1    3    3    0    0  0.46770204761E+01 -0.27730695342E+01  0.25720204874E+01  0.60149584225E+01  0.51100000000E-03 0. -1.
         12    1    3    3    0    0  0.64314321774E+01 -0.61735519853E+01 -0.10564477161E+02  0.13823322381E+02  0.00000000000E+00 0. -1.
</event>
<event>
 7    1  0.1418970E-010  0.4778727E+02  0.7816164E-02  0.1312668E+00
        -11   -1    0    0    0    0  0.00000000000E+00  0.00000000000E+00  0.45593999997E+02  0.45594000000E+02  0.51100000000E-03 0. -1.
         11   -1    0    0    0    0 -0.00000000000E+00 -0.00000000000E+00 -0.45593999997E+02  0.45594000000E+02  0.51100000000E-03 0.  1.
    9900012    2    1    2    0    0 -0.39250793873E+02 -0.88754179160E+01  0.16255018598E+02  0.47787268526E+02  0.19999988519E+02 0.  0.
         12    1    1    2    0    0  0.39250793873E+02  0.88754179160E+01 -0.16255018598E+02  0.43400731474E+02  0.00000000000E+00 0. -1.
         11    1    3    3    0    0 -0.61616582682E+01  0.28050892047E+00  0.52383166734E+01  0.80922604815E+01  0.51100000000E-03 0. -1.
        -11    1    3    3    0    0 -0.30298590599E+02 -0.10367756661E+02  0.42862931447E+01  0.32308934982E+02  0.51100000000E-03 0.  1.
        -12    1    3    3    0    0 -0.27905450056E+01  0.12118298245E+01  0.67304087796E+01  0.73860730631E+01  0.00000000000E+00 0.  1.
</event>
<event>
 7    1  0.1418970E-010  0.4778727E+02  0.7816164E-02  0.1312668E+00
        -11   -1    0    0    0    0  0.00000000000E+00  0.00000000000E+00  0.45593999997E+02  0.45594000000E+02  0.51100000000E-03 0.  1.
         11   -1    0    0    0    0 -0.00000000000E+00 -0.00000000000E+00 -0.45593999997E+02  0.45594000000E+02  0.51100000000E-03 0. -1.
    9900012    2    1    2    0    0 -0.98068441306E+01 -0.42230426295E+02 -0.20099485277E+01  0.47787274315E+02  0.20000014913E+02 0.  0.
         12    1    1    2    0    0  0.98068441306E+01  0.42230426295E+02  0.20099485277E+01  0.43400725685E+02  0.00000000000E+00 0. -1.
         11    1    3    3    0    0 -0.37461803519E+01 -0.70403133967E+01 -0.31819566758E+01  0.85863105289E+01  0.51100000000E-03 0. -1.
        -11    1    3    3    0    0  0.30650030342E+01 -0.26169952259E+02  0.10290356262E+01  0.26368912747E+02  0.51100000000E-03 0.  1.
         12    1    3    3    0    0 -0.91256668130E+01 -0.90201606392E+01  0.14297252192E+00  0.12832051040E+02  0.00000000000E+00 0. -1.
</event>
<event>
 7    1  0.1418970E-010  0.4778727E+02  0.7816164E-02  0.1312668E+00
        -11   -1    0    0    0    0  0.00000000000E+00  0.00000000000E+00  0.45593999997E+02  0.45594000000E+02  0.51100000000E-03 0. -1.
         11   -1    0    0    0    0 -0.00000000000E+00 -0.00000000000E+00 -0.45593999997E+02  0.45594000000E+02  0.51100000000E-03 0.  1.
    9900012    2    1    2    0    0  0.34571302484E+02  0.20480405833E+02  0.16401265738E+02  0.47787268481E+02  0.19999988313E+02 0.  0.
         12    1    1    2    0    0 -0.34571302484E+02 -0.20480405833E+02 -0.16401265738E+02  0.43400731519E+02  0.00000000000E+00 0. -1.
         11    1    3    3    0    0  0.15462420442E+02  0.11781015094E+02  0.11345859161E+02  0.22507938221E+02  0.51100000000E-03 0. -1.
        -11    1    3    3    0    0  0.18089231054E+02  0.10184108056E+02  0.76475449613E+01  0.22122867834E+02  0.51100000000E-03 0.  1.
         12    1    3    3    0    0  0.10196509884E+01 -0.14847173164E+01 -0.25921383843E+01  0.31564624267E+01  0.00000000000E+00 0. -1.
</event>
<event>
 7    1  0.1418970E-010  0.4778727E+02  0.7816164E-02  0.1312668E+00
        -11   -1    0    0    0    0  0.00000000000E+00  0.00000000000E+00  0.45593999997E+02  0.45594000000E+02  0.51100000000E-03 0.  1.
         11   -1    0    0    0    0 -0.00000000000E+00 -0.00000000000E+00 -0.45593999997E+02  0.45594000000E+02  0.51100000000E-03 0. -1.
    9900012    2    1    2    0    0  0.72019673457E+01  0.15260095359E+02  0.39986052592E+02  0.47787271367E+02  0.20000001470E+02 0.  0.
         12    1    1    2    0    0 -0.72019673457E+01 -0.15260095359E+02 -0.39986052592E+02  0.43400728633E+02  0.00000000000E+00 0. -1.
         11    1    3    3    0    0  0.19199932760E+01  0.84558083898E+01  0.95719547763E+01  0.12915470886E+02  0.51100000000E-03 0. -1.
        -11    1    3    3    0    0  0.44078961640E+01  0.84631822944E+01  0.82082108992E+01  0.12586887207E+02  0.51100000000E-03 0.  1.
        -12    1    3    3    0    0  0.87407790557E+00 -0.16588953249E+01  0.22205886916E+02  0.22284913274E+02  0.00000000000E+00 0.  1.
</event>
<event>
 7    1  0.1418970E-010  0.4778727E+02  0.7816164E-02  0.1312668E+00
        -11   -1    0    0    0    0  0.00000000000E+00  0.00000000000E+00  0.45593999997E+02  0.45594000000E+02  0.51100000000E-03 0.  1.
         11   -1    0    0    0    0 -0.00000000000E+00 -0.00000000000E+00 -0.45593999997E+02  0.45594000000E+02  0.51100000000E-03 0. -1.
    9900012    2    1    2    0    0 -0.19504161811E+02  0.33962973499E+02  0.18701001004E+02  0.47787270335E+02  0.19999996766E+02 0.  0.
         12    1    1    2    0    0  0.19504161811E+02 -0.33962973499E+02 -0.18701001004E+02  0.43400729665E+02  0.00000000000E+00 0. -1.
         11    1    3    3    0    0 -0.31623021162E+00  0.32376551633E+01 -0.11059923158E+01  0.34359324450E+01  0.51100000000E-03 0. -1.
        -11    1    3    3    0    0 -0.12143244531E+01  0.35293298827E+00 -0.23583435369E+01  0.26759914183E+01  0.51100000000E-03 0.  1.
        -12    1    3    3    0    0 -0.17973607146E+02  0.30372385348E+02  0.22165336857E+02  0.41675346472E+02  0.00000000000E+00 0.  1.
</event>
<event>
 7    1  0.1418970E-010  0.4778727E+02  0.7816164E-02  0.1312668E+00
        -11   -1    0    0    0    0  0.00000000000E+00  0.00000000000E+00  0.45593999997E+02  0.45594000000E+02  0.51100000000E-03 0. -1.
         11   -1    0    0    0    0 -0.00000000000E+00 -0.00000000000E+00 -0.45593999997E+02  0.45594000000E+02  0.51100000000E-03 0.  1.
    9900012    2    1    2    0    0 -0.32949481926E+02 -0.22963222237E+02 -0.16451302258E+02  0.47787270966E+02  0.19999999642E+02 0.  0.
         12    1    1    2    0    0  0.32949481926E+02  0.22963222237E+02  0.16451302258E+02  0.43400729034E+02  0.00000000000E+00 0. -1.
         11    1    3    3    0    0 -0.52425370377E+01 -0.57033111337E+01 -0.95986854554E+01  0.12334776658E+02  0.51100000000E-03 0. -1.
        -11    1    3    3    0    0 -0.23578404752E+02 -0.16056093888E+02 -0.98851695041E+01  0.30190327887E+02  0.51100000000E-03 0.  1.
        -12    1    3    3    0    0 -0.41285401366E+01 -0.12038172158E+01  0.30325527013E+01  0.52621664203E+01  0.00000000000E+00 0.  1.
</event>
<event>
 7    1  0.1418970E-010  0.4778729E+02  0.7816164E-02  0.1312668E+00
        -11   -1    0    0    0    0  0.00000000000E+00  0.00000000000E+00  0.45593999997E+02  0.45594000000E+02  0.51100000000E-03 0. -1.
         11   -1    0    0    0    0 -0.00000000000E+00 -0.00000000000E+00 -0.45593999997E+02  0.45594000000E+02  0.51100000000E-03 0.  1.
    9900012    2    1    2    0    0  0.38101530458E+02  0.16258855394E+02 -0.12943903319E+02  0.47787289925E+02  0.20000086082E+02 0.  0.
         12    1    1    2    0    0 -0.38101530458E+02 -0.16258855394E+02  0.12943903319E+02  0.43400710075E+02  0.00000000000E+00 0. -1.
         11    1    3    3    0    0  0.33532092670E+02  0.10736234426E+02 -0.15015735311E+02  0.38277150830E+02  0.51100000000E-03 0.  1.
        -11    1    3    3    0    0  0.28956399031E+01  0.60236439492E+01 -0.14809127576E+00  0.66851288815E+01  0.51100000000E-03 0. -1.
        -12    1    3    3    0    0  0.16737978840E+01 -0.50102298067E+00  0.22199232684E+01  0.28250102126E+01  0.00000000000E+00 0.  1.
</event>
<event>
 7    1  0.1418970E-010  0.4778727E+02  0.7816164E-02  0.1312668E+00
        -11   -1    0    0    0    0  0.00000000000E+00  0.00000000000E+00  0.45593999997E+02  0.45594000000E+02  0.51100000000E-03 0.  1.
         11   -1    0    0    0    0 -0.00000000000E+00 -0.00000000000E+00 -0.45593999997E+02  0.45594000000E+02  0.51100000000E-03 0. -1.
    9900012    2    1    2    0    0 -0.68854917088E+00 -0.34351517292E+02  0.26516450223E+02  0.47787274515E+02  0.20000015822E+02 0.  0.
         12    1    1    2    0    0  0.68854917088E+00  0.34351517292E+02 -0.26516450223E+02  0.43400725485E+02  0.00000000000E+00 0. -1.
         11    1    3    3    0    0  0.60579867787E+01 -0.11667945585E+02  0.30329307888E+01  0.13492176526E+02  0.51100000000E-03 0. -1.
        -11    1    3    3    0    0 -0.38304809552E+01 -0.30394069644E+01  0.66931399358E+01  0.82890712088E+01  0.51100000000E-03 0.  1.
        -12    1    3    3    0    0 -0.29160549944E+01 -0.19644164743E+02  0.16790379498E+02  0.26006026780E+02  0.00000000000E+00 0.  1.
</event>
<event>
 7    1  0.1418970E-010  0.4778727E+02  0.7816164E-02  0.1312668E+00
        -11   -1    0    0    0    0  0.00000000000E+00  0.00000000000E+00  0.45593999997E+02  0.45594000000E+02  0.51100000000E-03 0.  1.
         11   -1    0    0    0    0 -0.00000000000E+00 -0.00000000000E+00 -0.45593999997E+02  0.45594000000E+02  0.51100000000E-03 0. -1.
    9900012    2    1    2    0    0 -0.29441702442E+02  0.24374022975E+02 -0.20560069994E+02  0.47787270549E+02  0.19999997743E+02 0.  0.
         12    1    1    2    0    0  0.29441702442E+02 -0.24374022975E+02  0.20560069994E+02  0.43400729451E+02  0.00000000000E+00 0. -1.
         11    1    3    3    0    0 -0.54304377421E-01 -0.11430396309E+01 -0.28067327023E+01  0.30310455764E+01  0.51100000000E-03 0. -1.
        -11    1    3    3    0    0 -0.20041138818E+02  0.18531302273E+02 -0.18641606280E+02  0.33053984541E+02  0.51100000000E-03 0.  1.
        -12    1    3    3    0    0 -0.93462592462E+01  0.69857603336E+01  0.88826898873E+00  0.11702240432E+02  0.00000000000E+00 0.  1.
</event>
<event>
 7    1  0.1418970E-010  0.4778727E+02  0.7816164E-02  0.1312668E+00
        -11   -1    0    0    0    0  0.00000000000E+00  0.00000000000E+00  0.45593999997E+02  0.45594000000E+02  0.51100000000E-03 0.  1.
         11   -1    0    0    0    0 -0.00000000000E+00 -0.00000000000E+00 -0.45593999997E+02  0.45594000000E+02  0.51100000000E-03 0. -1.
    9900012    2    1    2    0    0  0.24647910054E+02  0.29346840306E+02  0.20368274034E+02  0.47787273127E+02  0.20000009495E+02 0.  0.
         12    1    1    2    0    0 -0.24647910054E+02 -0.29346840306E+02 -0.20368274034E+02  0.43400726873E+02  0.00000000000E+00 0. -1.
         11    1    3    3    0    0  0.19254267399E+01  0.11283174704E+02  0.11767485198E+01  0.11506608400E+02  0.51100000000E-03 0. -1.
        -11    1    3    3    0    0  0.97966914513E+01  0.13525840991E+02  0.13380113644E+02  0.21399789235E+02  0.51100000000E-03 0.  1.
         12    1    3    3    0    0  0.12925791863E+02  0.45378246105E+01  0.58114118707E+01  0.14880875492E+02  0.00000000000E+00 0. -1.
</event>
<event>
 7    1  0.1418970E-010  0.4778727E+02  0.7816164E-02  0.1312668E+00
        -11   -1    0    0    0    0  0.00000000000E+00  0.00000000000E+00  0.45593999997E+02  0.45594000000E+02  0.51100000000E-03 0.  1.
         11   -1    0    0    0    0 -0.00000000000E+00 -0.00000000000E+00 -0.45593999997E+02  0.45594000000E+02  0.51100000000E-03 0. -1.
    9900012    2    1    2    0    0  0.35246101092E+02  0.47265254821E+01  0.24879624887E+02  0.47787269363E+02  0.19999992334E+02 0.  0.
         12    1    1    2    0    0 -0.35246101092E+02 -0.47265254821E+01 -0.24879624887E+02  0.43400730637E+02  0.00000000000E+00 0. -1.
         11    1    3    3    0    0  0.18886817186E+02  0.94066865193E+01  0.19570747760E+02  0.28778668886E+02  0.51100000000E-03 0. -1.
        -11    1    3    3    0    0  0.19825934603E+01  0.50862056112E+00  0.28787584625E+01  0.35322262456E+01  0.51100000000E-03 0.  1.
        -12    1    3    3    0    0  0.14376690445E+02 -0.51887815983E+01  0.24301186644E+01  0.15476374232E+02  0.00000000000E+00 0.  1.
</event>
<event>
 7    1  0.1418970E-010  0.4778727E+02  0.7816164E-02  0.1312668E+00
        -11   -1    0    0    0    0  0.00000000000E+00  0.00000000000E+00  0.45593999997E+02  0.45594000000E+02  0.51100000000E-03 0.  1.
         11   -1    0    0    0    0 -0.00000000000E+00 -0.00000000000E+00 -0.45593999997E+02  0.45594000000E+02  0.51100000000E-03 0. -1.
    9900012    2    1    2    0    0  0.12424113404E+02 -0.17444140808E+01  0.41547822170E+02  0.47787273032E+02  0.20000009060E+02 0.  0.
         12    1    1    2    0    0 -0.12424113404E+02  0.17444140808E+01 -0.41547822170E+02  0.43400726968E+02  0.00000000000E+00 0. -1.
         11    1    3    3    0    0 -0.31324529765E+01 -0.33602523675E+01  0.39635038188E+01  0.60673651947E+01  0.51100000000E-03 0. -1.
        -11    1    3    3    0    0  0.40661373129E+01  0.50197844026E+00  0.21701642307E+02  0.22084988886E+02  0.51100000000E-03 0.  1.
        -12    1    3    3    0    0  0.11490429067E+02  0.11138598464E+01  0.15882676044E+02  0.19634918951E+02  0.00000000000E+00 0.  1.
</event>
<event>
 7    1  0.1418970E-010  0.4778727E+02  0.7816164E-02  0.1312668E+00
        -11   -1    0    0    0    0  0.00000000000E+00  0.00000000000E+00  0.45593999997E+02  0.45594000000E+02  0.51100000000E-03 0. -1.
         11   -1    0    0    0    0 -0.00000000000E+00 -0.00000000000E+00 -0.45593999997E+02  0.45594000000E+02  0.51100000000E-03 0.  1.
    9900012    2    1    2    0    0 -0.40142787061E+02  0.55893051149E+00 -0.16488401985E+02  0.47787272398E+02  0.20000006171E+02 0.  0.
         12    1    1    2    0    0  0.40142787061E+02 -0.55893051149E+00  0.16488401985E+02  0.43400727602E+02  0.00000000000E+00 0. -1.
         11    1    3    3    0    0 -0.11310341232E+02 -0.27711767225E+00 -0.10120442372E+02  0.15179722233E+02  0.51100000000E-03 0. -1.
        -11    1    3    3    0    0 -0.30027788139E+02 -0.39703134295E+00 -0.50711825759E+01  0.30455583846E+02  0.51100000000E-03 0.  1.
         12    1    3    3    0    0  0.11953423097E+01  0.12330795267E+01 -0.12967770372E+01  0.21519663196E+01  0.00000000000E+00 0. -1.
</event>
<event>
 7    1  0.1418970E-010  0.4778727E+02  0.7816164E-02  0.1312668E+00
        -11   -1    0    0    0    0  0.00000000000E+00  0.00000000000E+00  0.45593999997E+02  0.45594000000E+02  0.51100000000E-03 0.  1.
         11   -1    0    0    0    0 -0.00000000000E+00 -0.00000000000E+00 -0.45593999997E+02  0.45594000000E+02  0.51100000000E-03 0. -1.
    9900012    2    1    2    0    0 -0.11201884383E+02  0.40487795557E+02  0.10903188706E+02  0.47787270435E+02  0.19999997223E+02 0.  0.
         12    1    1    2    0    0  0.11201884383E+02 -0.40487795557E+02 -0.10903188706E+02  0.43400729565E+02  0.00000000000E+00 0. -1.
         11    1    3    3    0    0  0.22592970540E+01  0.37815956321E+01 -0.57932060854E+00  0.44430283964E+01  0.51100000000E-03 0.  1.
        -11    1    3    3    0    0 -0.10434229267E+02  0.36868706311E+02  0.88410232344E+01  0.39323508714E+02  0.51100000000E-03 0. -1.
         12    1    3    3    0    0 -0.30269521695E+01 -0.16250638636E+00  0.26414860803E+01  0.40207333255E+01  0.00000000000E+00 0. -1.
</event>
<event>
 7    1  0.1418970E-010  0.4778727E+02  0.7816164E-02  0.1312668E+00
        -11   -1    0    0    0    0  0.00000000000E+00  0.00000000000E+00  0.45593999997E+02  0.45594000000E+02  0.51100000000E-03 0.  1.
         11   -1    0    0    0    0 -0.00000000000E+00 -0.00000000000E+00 -0.45593999997E+02  0.45594000000E+02  0.51100000000E-03 0. -1.
    9900012    2    1    2    0    0 -0.11424018669E+02  0.25924002899E+02  0.32879492230E+02  0.47787272608E+02  0.20000007129E+02 0.  0.
         12    1    1    2    0    0  0.11424018669E+02 -0.25924002899E+02 -0.32879492230E+02  0.43400727392E+02  0.00000000000E+00 0. -1.
         11    1    3    3    0    0  0.32987275312E+01  0.44086482537E+01  0.88948808227E+00  0.55775417578E+01  0.51100000000E-03 0.  1.
        -11    1    3    3    0    0 -0.11122311919E+02  0.96444621484E+01  0.13701031963E+02  0.20110687449E+02  0.51100000000E-03 0. -1.
        -12    1    3    3    0    0 -0.36004342817E+01  0.11870892497E+02  0.18288972184E+02  0.22099043401E+02  0.00000000000E+00 0.  1.
</event>
<event>
 7    1  0.1418970E-010  0.4778725E+02  0.7816164E-02  0.1312668E+00
        -11   -1    0    0    0    0  0.00000000000E+00  0.00000000000E+00  0.45593999997E+02  0.45594000000E+02  0.51100000000E-03 0.  1.
         11   -1    0    0    0    0 -0.00000000000E+00 -0.00000000000E+00 -0.45593999997E+02  0.45594000000E+02  0.51100000000E-03 0. -1.
    9900012    2    1    2    0    0 -0.26998590074E+02 -0.74056238476E+01  0.33164103049E+02  0.47787252753E+02  0.19999916603E+02 0.  0.
         12    1    1    2    0    0  0.26998590074E+02  0.74056238476E+01 -0.33164103049E+02  0.43400747247E+02  0.00000000000E+00 0. -1.
         11    1    3    3    0    0 -0.28709580281E+01 -0.30874816432E+01 -0.95764049158E+00  0.43234267044E+01  0.51100000000E-03 0. -1.
        -11    1    3    3    0    0 -0.11399738025E+01 -0.32134339467E+01  0.20144440283E+01  0.39602629969E+01  0.51100000000E-03 0.  1.
        -12    1    3    3    0    0 -0.22987658243E+02 -0.11047082577E+01  0.32107299512E+02  0.39503563052E+02  0.00000000000E+00 0.  1.
</event>
<event>
 7    1  0.1418970E-010  0.4778729E+02  0.7816164E-02  0.1312668E+00
        -11   -1    0    0    0    0  0.00000000000E+00  0.00000000000E+00  0.45593999997E+02  0.45594000000E+02  0.51100000000E-03 0. -1.
         11   -1    0    0    0    0 -0.00000000000E+00 -0.00000000000E+00 -0.45593999997E+02  0.45594000000E+02  0.51100000000E-03 0.  1.
    9900012    2    1    2    0    0  0.23904127708E+02  0.18000664140E+02 -0.31435494827E+02  0.47787290720E+02  0.20000089710E+02 0.  0.
         12    1    1    2    0    0 -0.23904127708E+02 -0.18000664140E+02  0.31435494827E+02  0.43400709280E+02  0.00000000000E+00 0. -1.
         11    1    3    3    0    0  0.54204849942E+01 -0.23732347084E+01 -0.60740462423E+01  0.84798548671E+01  0.51100000000E-03 0. -1.
        -11    1    3    3    0    0  0.12582047275E+02  0.13546716477E+02 -0.23818700922E+02  0.30152146769E+02  0.51100000000E-03 0.  1.
         12    1    3    3    0    0  0.59015954393E+01  0.68271823712E+01 -0.15427476626E+01  0.91552890839E+01  0.00000000000E+00 0. -1.
</event>
<event>
 7    1  0.1418970E-010  0.4778727E+02  0.7816164E-02  0.1312668E+00
        -11   -1    0    0    0    0  0.00000000000E+00  0.00000000000E+00  0.45593999997E+02  0.45594000000E+02  0.51100000000E-03 0.  1.
         11   -1    0    0    0    0 -0.00000000000E+00 -0.00000000000E+00 -0.45593999997E+02  0.45594000000E+02  0.51100000000E-03 0. -1.
    9900012    2    1    2    0    0  0.76205599782E+01 -0.42446044618E+02  0.48870834187E+01  0.47787271637E+02  0.20000002701E+02 0.  0.
         12    1    1    2    0    0 -0.76205599782E+01  0.42446044618E+02 -0.48870834187E+01  0.43400728363E+02  0.00000000000E+00 0. -1.
         11    1    3    3    0    0 -0.25065377807E+01 -0.26850387992E+02 -0.25812986681E+00  0.26968364768E+02  0.51100000000E-03 0. -1.
        -11    1    3    3    0    0  0.62562705327E+01 -0.14993699207E+02  0.43922111212E+01  0.16829838255E+02  0.51100000000E-03 0.  1.
         12    1    3    3    0    0  0.38708272262E+01 -0.60195741920E+00  0.75300216433E+00  0.39890686142E+01  0.00000000000E+00 0. -1.
</event>
<event>
 7    1  0.1418970E-010  0.4778728E+02  0.7816164E-02  0.1312668E+00
        -11   -1    0    0    0    0  0.00000000000E+00  0.00000000000E+00  0.45593999997E+02  0.45594000000E+02  0.51100000000E-03 0. -1.
         11   -1    0    0    0    0 -0.00000000000E+00 -0.00000000000E+00 -0.45593999997E+02  0.45594000000E+02  0.51100000000E-03 0.  1.
    9900012    2    1    2    0    0 -0.41918751300E+02 -0.11047472356E+02  0.20962719840E+01  0.47787277515E+02  0.20000029500E+02 0.  0.
         12    1    1    2    0    0  0.41918751300E+02  0.11047472356E+02 -0.20962719840E+01  0.43400722485E+02  0.00000000000E+00 0. -1.
         11    1    3    3    0    0 -0.78274847860E+00 -0.18321783831E+01  0.15950669474E+01  0.25522170041E+01  0.51100000000E-03 0. -1.
        -11    1    3    3    0    0 -0.15917090749E+02 -0.11434400010E+02 -0.24344173496E+01  0.19749067563E+02  0.51100000000E-03 0.  1.
         12    1    3    3    0    0 -0.25218912073E+02  0.22191060376E+01  0.29356223862E+01  0.25485992948E+02  0.00000000000E+00 0. -1.
</event>
<event>
 7    1  0.1418970E-010  0.4778727E+02  0.7816164E-02  0.1312668E+00
        -11   -1    0    0    0    0  0.00000000000E+00  0.00000000000E+00  0.45593999997E+02  0.45594000000E+02  0.51100000000E-03 0. -1.
         11   -1    0    0    0    0 -0.00000000000E+00 -0.00000000000E+00 -0.45593999997E+02  0.45594000000E+02  0.51100000000E-03 0.  1.
    9900012    2    1    2    0    0  0.30996874194E+02  0.17402340935E+02 -0.24899304724E+02  0.47787273560E+02  0.20000011467E+02 0.  0.
         12    1    1    2    0    0 -0.30996874194E+02 -0.17402340935E+02  0.24899304724E+02  0.43400726440E+02  0.00000000000E+00 0. -1.
         11    1    3    3    0    0  0.20256757633E+01  0.34877238912E+01 -0.52553100352E+01  0.66246406745E+01  0.51100000000E-03 0. -1.
        -11    1    3    3    0    0  0.56028240341E+01  0.92724586775E+01 -0.11941298343E+02  0.16123421890E+02  0.51100000000E-03 0.  1.
        -12    1    3    3    0    0  0.23368374396E+02  0.46421583664E+01 -0.77026963462E+01  0.25039210995E+02  0.00000000000E+00 0.  1.
</event>
<event>
 7    1  0.1418970E-010  0.4778727E+02  0.7816164E-02  0.1312668E+00
        -11   -1    0    0    0    0  0.00000000000E+00  0.00000000000E+00  0.45593999997E+02  0.45594000000E+02  0.51100000000E-03 0.  1.
         11   -1    0    0    0    0 -0.00000000000E+00 -0.00000000000E+00 -0.45593999997E+02  0.45594000000E+02  0.51100000000E-03 0. -1.
    9900012    2    1    2    0    0  0.42747375677E+02  0.52487032811E+01 -0.53606319488E+01  0.47787269726E+02  0.19999993989E+02 0.  0.
         12    1    1    2    0    0 -0.42747375677E+02 -0.52487032811E+01  0.53606319488E+01  0.43400730274E+02  0.00000000000E+00 0. -1.
         11    1    3    3    0    0  0.48546554571E+01 -0.31004943520E+01  0.23117917540E+01  0.62068612204E+01  0.51100000000E-03 0. -1.
        -11    1    3    3    0    0  0.16467807352E+02  0.99776907606E+01 -0.20047846286E+01  0.19358774589E+02  0.51100000000E-03 0.  1.
         12    1    3    3    0    0  0.21424912868E+02 -0.16284931274E+01 -0.56676390741E+01  0.22221633917E+02  0.00000000000E+00 0. -1.
</event>
<event>
 7    1  0.1418970E-010  0.4778727E+02  0.7816164E-02  0.1312668E+00
        -11   -1    0    0    0    0  0.00000000000E+00  0.00000000000E+00  0.45593999997E+02  0.45594000000E+02  0.51100000000E-03 0.  1.
         11   -1    0    0    0    0 -0.00000000000E+00 -0.00000000000E+00 -0.45593999997E+02  0.45594000000E+02  0.51100000000E-03 0. -1.
    9900012    2    1    2    0    0 -0.22116840701E+02 -0.35961087596E+02  0.10063246526E+02  0.47787269657E+02  0.19999993676E+02 0.  0.
         12    1    1    2    0    0  0.22116840701E+02  0.35961087596E+02 -0.10063246526E+02  0.43400730343E+02  0.00000000000E+00 0. -1.
         11    1    3    3    0    0 -0.27659582316E+01 -0.12519504883E+02  0.48606623174E+01  0.13711840354E+02  0.51100000000E-03 0. -1.
        -11    1    3    3    0    0 -0.86273514893E+01 -0.20334337524E+02  0.88977623849E+00  0.22106745085E+02  0.51100000000E-03 0.  1.
         12    1    3    3    0    0 -0.10723530980E+02 -0.31072451886E+01  0.43128079699E+01  0.11968684218E+02  0.00000000000E+00 0. -1.
</event>
<event>
 7    1  0.1418970E-010  0.4778727E+02  0.7816164E-02  0.1312668E+00
        -11   -1    0    0    0    0  0.00000000000E+00  0.00000000000E+00  0.45593999997E+02  0.45594000000E+02  0.51100000000E-03 0. -1.
         11   -1    0    0    0    0 -0.00000000000E+00 -0.00000000000E+00 -0.45593999997E+02  0.45594000000E+02  0.51100000000E-03 0.  1.
    9900012    2    1    2    0    0  0.18215469073E+02  0.37861193625E+02 -0.10878873779E+02  0.47787272000E+02  0.20000004357E+02 0.  0.
         12    1    1    2    0    0 -0.18215469073E+02 -0.37861193625E+02  0.10878873779E+02  0.43400728000E+02  0.00000000000E+00 0. -1.
         11    1    3    3    0    0  0.75030866862E+01  0.31088705702E+02 -0.10121411684E+02  0.33544700129E+02  0.51100000000E-03 0. -1.
        -11    1    3    3    0    0  0.42200826081E+01  0.54168866795E+01  0.18572592487E+01  0.71134499855E+01  0.51100000000E-03 0.  1.
         12    1    3    3    0    0  0.64922997785E+01  0.13556012433E+01 -0.26147213440E+01  0.71291218850E+01  0.00000000000E+00 0. -1.
</event>
<event>
 7    1  0.1418970E-010  0.4778730E+02  0.7816164E-02  0.1312668E+00
        -11   -1    0    0    0    0  0.00000000000E+00  0.00000000000E+00  0.45593999997E+02  0.45594000000E+02  0.51100000000E-03 0.  1.
         11   -1    0    0    0    0 -0.00000000000E+00 -0.00000000000E+00 -0.45593999997E+02  0.45594000000E+02  0.51100000000E-03 0. -1.
    9900012    2    1    2    0    0 -0.12488277067E+02  0.38556966473E+02  0.15524950155E+02  0.47787299487E+02  0.20000129680E+02 0.  0.
         12    1    1    2    0    0  0.12488277067E+02 -0.38556966473E+02 -0.15524950155E+02  0.43400700513E+02  0.00000000000E+00 0. -1.
         11    1    3    3    0    0 -0.41640197316E+01  0.48337188464E+01  0.83638806625E+01  0.10519429557E+02  0.51100000000E-03 0. -1.
        -11    1    3    3    0    0 -0.14699271798E+01  0.23491127255E+02  0.81605563720E+01  0.24911612276E+02  0.51100000000E-03 0.  1.
        -12    1    3    3    0    0 -0.68543301558E+01  0.10232120371E+02 -0.99948687941E+00  0.12356257654E+02  0.00000000000E+00 0.  1.
</event>
<event>
 7    1  0.1418970E-010  0.4778727E+02  0.7816164E-02  0.1312668E+00
        -11   -1    0    0    0    0  0.00000000000E+00  0.00000000000E+00  0.45593999997E+02  0.45594000000E+02  0.51100000000E-03 0. -1.
         11   -1    0    0    0    0 -0.00000000000E+00 -0.00000000000E+00 -0.45593999997E+02  0.45594000000E+02  0.51100000000E-03 0.  1.
    9900012    2    1    2    0    0  0.12435819280E+02  0.33899300645E+02 -0.24079265537E+02  0.47787271732E+02  0.20000003137E+02 0.  0.
         12    1    1    2    0    0 -0.12435819280E+02 -0.33899300645E+02  0.24079265537E+02  0.43400728268E+02  0.00000000000E+00 0. -1.
         11    1    3    3    0    0  0.62630181528E+01  0.18374458169E+01 -0.13936484042E+01  0.66741186420E+01  0.51100000000E-03 0. -1.
        -11    1    3    3    0    0  0.59503895159E+01  0.21870408940E+02 -0.98271247156E+01  0.24704135342E+02  0.51100000000E-03 0.  1.
        -12    1    3    3    0    0  0.22241161099E+00  0.10191445888E+02 -0.12858492417E+02  0.16409017748E+02  0.00000000000E+00 0.  1.
</event>
<event>
 7    1  0.1418970E-010  0.4778727E+02  0.7816164E-02  0.1312668E+00
        -11   -1    0    0    0    0  0.00000000000E+00  0.00000000000E+00  0.45593999997E+02  0.45594000000E+02  0.51100000000E-03 0.  1.
         11   -1    0    0    0    0 -0.00000000000E+00 -0.00000000000E+00 -0.45593999997E+02  0.45594000000E+02  0.51100000000E-03 0. -1.
    9900012    2    1    2    0    0  0.21985431635E+02 -0.18468205176E+02  0.32545189749E+02  0.47787272099E+02  0.20000004808E+02 0.  0.
         12    1    1    2    0    0 -0.21985431635E+02  0.18468205176E+02 -0.32545189749E+02  0.43400727901E+02  0.00000000000E+00 0. -1.
         11    1    3    3    0    0  0.64818061401E+01 -0.10538379863E+02  0.92480536856E+01  0.15446609926E+02  0.51100000000E-03 0. -1.
        -11    1    3    3    0    0  0.12164750346E+02 -0.63129331915E+01  0.24802396850E+02  0.28337134051E+02  0.51100000000E-03 0.  1.
        -12    1    3    3    0    0  0.33388751482E+01 -0.16168921206E+01 -0.15052607866E+01  0.40035281217E+01  0.00000000000E+00 0.  1.
</event>
<event>
 7    1  0.1418970E-010  0.4778727E+02  0.7816164E-02  0.1312668E+00
        -11   -1    0    0    0    0  0.00000000000E+00  0.00000000000E+00  0.45593999997E+02  0.45594000000E+02  0.51100000000E-03 0.  1.
         11   -1    0    0    0    0 -0.00000000000E+00 -0.00000000000E+00 -0.45593999997E+02  0.45594000000E+02  0.51100000000E-03 0. -1.
    9900012    2    1    2    0    0 -0.29512640270E+02  0.31762123078E+02  0.19480648962E+01  0.47787270110E+02  0.19999995740E+02 0.  0.
         12    1    1    2    0    0  0.29512640270E+02 -0.31762123078E+02 -0.19480648962E+01  0.43400729890E+02  0.00000000000E+00 0. -1.
         11    1    3    3    0    0 -0.47423410822E+01  0.46985953714E+01  0.55197316870E+01  0.86622188590E+01  0.51100000000E-03 0. -1.
        -11    1    3    3    0    0 -0.26856217086E+01  0.10357898339E+02  0.19816392219E+01  0.10882348838E+02  0.51100000000E-03 0.  1.
        -12    1    3    3    0    0 -0.22084677479E+02  0.16705629368E+02 -0.55533060127E+01  0.28242702413E+02  0.00000000000E+00 0.  1.
</event>
<event>
 7    1  0.1418970E-010  0.4778727E+02  0.7816164E-02  0.1312668E+00
        -11   -1    0    0    0    0  0.00000000000E+00  0.00000000000E+00  0.45593999997E+02  0.45594000000E+02  0.51100000000E-03 0.  1.
         11   -1    0    0    0    0 -0.00000000000E+00 -0.00000000000E+00 -0.45593999997E+02  0.45594000000E+02  0.51100000000E-03 0. -1.
    9900012    2    1    2    0    0 -0.42557550012E+01 -0.32253525836E+02  0.28726677686E+02  0.47787269703E+02  0.19999993883E+02 0.  0.
         12    1    1    2    0    0  0.42557550012E+01  0.32253525836E+02 -0.28726677686E+02  0.43400730297E+02  0.00000000000E+00 0. -1.
         11    1    3    3    0    0 -0.36708311476E+01 -0.33870145535E+00 -0.72633635580E+00  0.37572975332E+01  0.51100000000E-03 0. -1.
        -11    1    3    3    0    0 -0.57962893392E-01 -0.82428596018E+01  0.12239016357E+02  0.14756070472E+02  0.51100000000E-03 0.  1.
        -12    1    3    3    0    0 -0.52696096021E+00 -0.23671964778E+02  0.17213997684E+02  0.29273901698E+02  0.00000000000E+00 0.  1.
</event>
<event>
 7    1  0.1418970E-010  0.4778727E+02  0.7816164E-02  0.1312668E+00
        -11   -1    0    0    0    0  0.00000000000E+00  0.00000000000E+00  0.45593999997E+02  0.45594000000E+02  0.51100000000E-03 0. -1.
         11   -1    0    0    0    0 -0.00000000000E+00 -0.00000000000E+00 -0.45593999997E+02  0.45594000000E+02  0.51100000000E-03 0.  1.
    9900012    2    1    2    0    0  0.65565377321E+01  0.12270622771E+02 -0.41110423301E+02  0.47787271041E+02  0.19999999985E+02 0.  0.
         12    1    1    2    0    0 -0.65565377321E+01 -0.12270622771E+02  0.41110423301E+02  0.43400728959E+02  0.00000000000E+00 0. -1.
         11    1    3    3    0    0 -0.21858185765E+01  0.71403265183E+01 -0.18035557375E+02  0.19520332880E+02  0.51100000000E-03 0. -1.
        -11    1    3    3    0    0  0.75353084265E+00  0.59843462088E+01 -0.17439997187E+02  0.18453555495E+02  0.51100000000E-03 0.  1.
         12    1    3    3    0    0  0.79888254659E+01 -0.85404995643E+00 -0.56348687384E+01  0.98133826661E+01  0.00000000000E+00 0. -1.
</event>
<event>
 7    1  0.1418970E-010  0.4778727E+02  0.7816164E-02  0.1312668E+00
        -11   -1    0    0    0    0  0.00000000000E+00  0.00000000000E+00  0.45593999997E+02  0.45594000000E+02  0.51100000000E-03 0.  1.
         11   -1    0    0    0    0 -0.00000000000E+00 -0.00000000000E+00 -0.45593999997E+02  0.45594000000E+02  0.51100000000E-03 0. -1.
    9900012    2    1    2    0    0  0.24987153948E+02  0.26678649482E+02  0.23399041970E+02  0.47787269986E+02  0.19999995176E+02 0.  0.
         12    1    1    2    0    0 -0.24987153948E+02 -0.26678649482E+02 -0.23399041970E+02  0.43400730014E+02  0.00000000000E+00 0. -1.
         11    1    3    3    0    0  0.24263840640E+01 -0.80948902996E+00 -0.15986577037E+01  0.30163419618E+01  0.51100000000E-03 0. -1.
        -11    1    3    3    0    0  0.14506759238E+02  0.11457184476E+02  0.17053703334E+02  0.25150386426E+02  0.51100000000E-03 0.  1.
        -12    1    3    3    0    0  0.80540106465E+01  0.16030954036E+02  0.79439963397E+01  0.19620541599E+02  0.00000000000E+00 0.  1.
</event>
<event>
 7    1  0.1418970E-010  0.4778727E+02  0.7816164E-02  0.1312668E+00
        -11   -1    0    0    0    0  0.00000000000E+00  0.00000000000E+00  0.45593999997E+02  0.45594000000E+02  0.51100000000E-03 0.  1.
         11   -1    0    0    0    0 -0.00000000000E+00 -0.00000000000E+00 -0.45593999997E+02  0.45594000000E+02  0.51100000000E-03 0. -1.
    9900012    2    1    2    0    0 -0.27552133449E+02  0.26946206084E+02  0.19960088859E+02  0.47787271583E+02  0.20000002454E+02 0.  0.
         12    1    1    2    0    0  0.27552133449E+02 -0.26946206084E+02 -0.19960088859E+02  0.43400728417E+02  0.00000000000E+00 0. -1.
         11    1    3    3    0    0 -0.17797435532E+00  0.36581883732E+01 -0.67745391768E+00  0.37246424146E+01  0.51100000000E-03 0. -1.
        -11    1    3    3    0    0 -0.54219924459E+00 -0.33428252272E+00  0.50050660146E+01  0.50454346589E+01  0.51100000000E-03 0.  1.
        -12    1    3    3    0    0 -0.26831959849E+02  0.23622300233E+02  0.15632476762E+02  0.39017194509E+02  0.00000000000E+00 0.  1.
</event>
<event>
 7    1  0.1418970E-010  0.4778727E+02  0.7816164E-02  0.1312668E+00
        -11   -1    0    0    0    0  0.00000000000E+00  0.00000000000E+00  0.45593999997E+02  0.45594000000E+02  0.51100000000E-03 0.  1.
         11   -1    0    0    0    0 -0.00000000000E+00 -0.00000000000E+00 -0.45593999997E+02  0.45594000000E+02  0.51100000000E-03 0. -1.
    9900012    2    1    2    0    0  0.70252740453E+01  0.42774270132E+02  0.21518576651E+01  0.47787272447E+02  0.20000006393E+02 0.  0.
         12    1    1    2    0    0 -0.70252740453E+01 -0.42774270132E+02 -0.21518576651E+01  0.43400727553E+02  0.00000000000E+00 0. -1.
         11    1    3    3    0    0 -0.73969276075E+00  0.16560420544E+02 -0.73215139682E+01  0.18121789123E+02  0.51100000000E-03 0. -1.
        -11    1    3    3    0    0  0.21403123004E+01  0.16620624755E+02  0.38084595673E+01  0.17185181655E+02  0.51100000000E-03 0.  1.
        -12    1    3    3    0    0  0.56246545057E+01  0.95932248330E+01  0.56649120660E+01  0.12480301668E+02  0.00000000000E+00 0.  1.
</event>
<event>
 7    1  0.1418970E-010  0.4778727E+02  0.7816164E-02  0.1312668E+00
        -11   -1    0    0    0    0  0.00000000000E+00  0.00000000000E+00  0.45593999997E+02  0.45594000000E+02  0.51100000000E-03 0.  1.
         11   -1    0    0    0    0 -0.00000000000E+00 -0.00000000000E+00 -0.45593999997E+02  0.45594000000E+02  0.51100000000E-03 0. -1.
    9900012    2    1    2    0    0  0.40588060284E+02  0.91272228062E+01  0.12366331111E+02  0.47787274442E+02  0.20000015492E+02 0.  0.
         12    1    1    2    0    0 -0.40588060284E+02 -0.91272228062E+01 -0.12366331111E+02  0.43400725558E+02  0.00000000000E+00 0. -1.
         11    1    3    3    0    0  0.39493296665E+01 -0.38265145869E+00  0.66689203486E+01  0.77600338807E+01  0.51100000000E-03 0. -1.
        -11    1    3    3    0    0  0.23947753911E+02  0.53956564757E+00  0.50021650990E+01  0.24470547693E+02  0.51100000000E-03 0.  1.
        -12    1    3    3    0    0  0.12690976707E+02  0.89703086173E+01  0.69524566368E+00  0.15556692868E+02  0.00000000000E+00 0.  1.
</event>
<event>
 7    1  0.1418970E-010  0.4778728E+02  0.7816164E-02  0.1312668E+00
        -11   -1    0    0    0    0  0.00000000000E+00  0.00000000000E+00  0.45593999997E+02  0.45594000000E+02  0.51100000000E-03 0. -1.
         11   -1    0    0    0    0 -0.00000000000E+00 -0.00000000000E+00 -0.45593999997E+02  0.45594000000E+02  0.51100000000E-03 0.  1.
    9900012    2    1    2    0    0 -0.91984137420E+01  0.42401837598E+02 -0.10470299306E+01  0.47787275136E+02  0.20000018655E+02 0.  0.
         12    1    1    2    0    0  0.91984137420E+01 -0.42401837598E+02  0.10470299306E+01  0.43400724864E+02  0.00000000000E+00 0. -1.
         11    1    3    3    0    0 -0.33694897098E+01  0.20008919826E+01 -0.27409509568E+01  0.47822423652E+01  0.51100000000E-03 0. -1.
        -11    1    3    3    0    0 -0.26038367475E+01  0.29154356065E+02 -0.47416839950E+01  0.29651981565E+02  0.51100000000E-03 0.  1.
        -12    1    3    3    0    0 -0.32250872848E+01  0.11246589550E+02  0.64356050211E+01  0.13353051205E+02  0.00000000000E+00 0.  1.
</event>
<event>
 7    1  0.1418970E-010  0.4778727E+02  0.7816164E-02  0.1312668E+00
        -11   -1    0    0    0    0  0.00000000000E+00  0.00000000000E+00  0.45593999997E+02  0.45594000000E+02  0.51100000000E-03 0.  1.
         11   -1    0    0    0    0 -0.00000000000E+00 -0.00000000000E+00 -0.45593999997E+02  0.45594000000E+02  0.51100000000E-03 0. -1.
    9900012    2    1    2    0    0  0.16940539838E+02 -0.39906670914E+02  0.20245952994E+01  0.47787271209E+02  0.20000000752E+02 0.  0.
         12    1    1    2    0    0 -0.16940539838E+02  0.39906670914E+02 -0.20245952994E+01  0.43400728791E+02  0.00000000000E+00 0. -1.
         11    1    3    3    0    0  0.42187472829E+01 -0.92394694037E+01  0.12864170884E-01  0.10157056131E+02  0.51100000000E-03 0. -1.
        -11    1    3    3    0    0  0.79842827962E+01 -0.28589974400E+02  0.69412113256E+01  0.30484681775E+02  0.51100000000E-03 0.  1.
         12    1    3    3    0    0  0.47375097590E+01 -0.20772271100E+01 -0.49294801971E+01  0.71455333038E+01  0.00000000000E+00 0. -1.
</event>
<event>
 7    1  0.1418970E-010  0.4778727E+02  0.7816164E-02  0.1312668E+00
        -11   -1    0    0    0    0  0.00000000000E+00  0.00000000000E+00  0.45593999997E+02  0.45594000000E+02  0.51100000000E-03 0.  1.
         11   -1    0    0    0    0 -0.00000000000E+00 -0.00000000000E+00 -0.45593999997E+02  0.45594000000E+02  0.51100000000E-03 0. -1.
    9900012    2    1    2    0    0  0.83646328120E+00  0.13852362893E+02  0.41122206805E+02  0.47787268197E+02  0.19999987015E+02 0.  0.
         12    1    1    2    0    0 -0.83646328120E+00 -0.13852362893E+02 -0.41122206805E+02  0.43400731803E+02  0.00000000000E+00 0. -1.
         11    1    3    3    0    0 -0.57679877501E+00  0.63992562592E+01  0.68142731134E+01  0.93657618923E+01  0.51100000000E-03 0. -1.
        -11    1    3    3    0    0  0.71551173346E+01 -0.78073041097E+00  0.15936799619E+02  0.17486761462E+02  0.51100000000E-03 0.  1.
        -12    1    3    3    0    0 -0.57418552784E+01  0.82338370445E+01  0.18371134073E+02  0.20934744843E+02  0.00000000000E+00 0.  1.
</event>
<event>
 7    1  0.1418970E-010  0.4778727E+02  0.7816164E-02  0.1312668E+00
        -11   -1    0    0    0    0  0.00000000000E+00  0.00000000000E+00  0.45593999997E+02  0.45594000000E+02  0.51100000000E-03 0.  1.
         11   -1    0    0    0    0 -0.00000000000E+00 -0.00000000000E+00 -0.45593999997E+02  0.45594000000E+02  0.51100000000E-03 0. -1.
    9900012    2    1    2    0    0  0.21992256673E+02 -0.20059695810E+01  0.37362283025E+02  0.47787268896E+02  0.19999990203E+02 0.  0.
         12    1    1    2    0    0 -0.21992256673E+02  0.20059695810E+01 -0.37362283025E+02  0.43400731104E+02  0.00000000000E+00 0. -1.
         11    1    3    3    0    0  0.63704052972E+01 -0.31298819197E+01  0.19737139265E+02  0.20974577257E+02  0.51100000000E-03 0.  1.
        -11    1    3    3    0    0  0.17171189006E+02 -0.24686174578E+00  0.17803768771E+02  0.24736306420E+02  0.51100000000E-03 0. -1.
         12    1    3    3    0    0 -0.15493376302E+01  0.13707740846E+01 -0.17862501028E+00  0.20763852190E+01  0.00000000000E+00 0. -1.
</event>
<event>
 7    1  0.1418970E-010  0.4778727E+02  0.7816164E-02  0.1312668E+00
        -11   -1    0    0    0    0  0.00000000000E+00  0.00000000000E+00  0.45593999997E+02  0.45594000000E+02  0.51100000000E-03 0.  1.
         11   -1    0    0    0    0 -0.00000000000E+00 -0.00000000000E+00 -0.45593999997E+02  0.45594000000E+02  0.51100000000E-03 0. -1.
    9900012    2    1    2    0    0  0.26490538637E+02 -0.13204666857E+02  0.31741321167E+02  0.47787270358E+02  0.19999996869E+02 0.  0.
         12    1    1    2    0    0 -0.26490538637E+02  0.13204666857E+02 -0.31741321167E+02  0.43400729642E+02  0.00000000000E+00 0. -1.
         11    1    3    3    0    0 -0.22154172595E+01 -0.55501228903E+00  0.47429102627E+01  0.52641533314E+01  0.51100000000E-03 0. -1.
        -11    1    3    3    0    0  0.14192486371E+02 -0.11373833125E+02  0.16592823402E+02  0.24619352917E+02  0.51100000000E-03 0.  1.
        -12    1    3    3    0    0  0.14513469526E+02 -0.12758214430E+01  0.10405587502E+02  0.17903764109E+02  0.00000000000E+00 0.  1.
</event>
<event>
 7    1  0.1418970E-010  0.4778726E+02  0.7816164E-02  0.1312668E+00
        -11   -1    0    0    0    0  0.00000000000E+00  0.00000000000E+00  0.45593999997E+02  0.45594000000E+02  0.51100000000E-03 0.  1.
         11   -1    0    0    0    0 -0.00000000000E+00 -0.00000000000E+00 -0.45593999997E+02  0.45594000000E+02  0.51100000000E-03 0. -1.
    9900012    2    1    2    0    0  0.48071747679E+01 -0.37863433391E+02  0.20660976576E+02  0.47787257259E+02  0.19999937146E+02 0.  0.
         12    1    1    2    0    0 -0.48071747679E+01  0.37863433391E+02 -0.20660976576E+02  0.43400742741E+02  0.00000000000E+00 0. -1.
         11    1    3    3    0    0  0.10467920085E+02 -0.27902264496E+02  0.87781641236E+01  0.31067183338E+02  0.51100000000E-03 0. -1.
        -11    1    3    3    0    0 -0.21772950281E+01 -0.60657551341E+01  0.55133248110E+01  0.84811997806E+01  0.51100000000E-03 0.  1.
         12    1    3    3    0    0 -0.34834502888E+01 -0.38954137610E+01  0.63694876416E+01  0.82388741404E+01  0.00000000000E+00 0. -1.
</event>
<event>
 7    1  0.1418970E-010  0.4778727E+02  0.7816164E-02  0.1312668E+00
        -11   -1    0    0    0    0  0.00000000000E+00  0.00000000000E+00  0.45593999997E+02  0.45594000000E+02  0.51100000000E-03 0.  1.
         11   -1    0    0    0    0 -0.00000000000E+00 -0.00000000000E+00 -0.45593999997E+02  0.45594000000E+02  0.51100000000E-03 0. -1.
    9900012    2    1    2    0    0 -0.15131578957E+02  0.39136150358E+02  0.11091449512E+02  0.47787271908E+02  0.20000003939E+02 0.  0.
         12    1    1    2    0    0  0.15131578957E+02 -0.39136150358E+02 -0.11091449512E+02  0.43400728092E+02  0.00000000000E+00 0. -1.
         11    1    3    3    0    0 -0.51403735065E+01  0.63509785947E+01  0.99033648499E+01  0.12838808531E+02  0.51100000000E-03 0. -1.
        -11    1    3    3    0    0 -0.62295374326E+01  0.10056058302E+02 -0.57164023816E+00  0.11843066242E+02  0.51100000000E-03 0.  1.
         12    1    3    3    0    0 -0.37616680181E+01  0.22729113461E+02  0.17597249001E+01  0.23105397135E+02  0.00000000000E+00 0. -1.
</event>
<event>
 7    1  0.1755171E-010  0.4778727E+02  0.7816164E-02  0.1312668E+00
        -11   -1    0    0    0    0  0.00000000000E+00  0.00000000000E+00  0.45593999997E+02  0.45594000000E+02  0.51100000000E-03 0.  1.
         11   -1    0    0    0    0 -0.00000000000E+00 -0.00000000000E+00 -0.45593999997E+02  0.45594000000E+02  0.51100000000E-03 0. -1.
    9900012    2    1    2    0    0 -0.21588002359E+02 -0.32767203689E+02  0.18544317718E+02  0.47787271860E+02  0.20000003717E+02 0.  0.
         12    1    1    2    0    0  0.21588002359E+02  0.32767203689E+02 -0.18544317718E+02  0.43400728140E+02  0.00000000000E+00 0. -1.
         11    1    3    3    0    0 -0.16668423785E+01  0.16057747028E+01  0.57934283820E-01  0.23152176039E+01  0.51100000000E-03 0. -1.
        -11    1    3    3    0    0 -0.13628291751E+02 -0.17039292021E+02  0.15564157625E+02  0.26801321076E+02  0.51100000000E-03 0.  1.
         12    1    3    3    0    0 -0.62928682300E+01 -0.17333686371E+02  0.29222258097E+01  0.18670733179E+02  0.00000000000E+00 0. -1.
</event>
<event>
 7    1  0.1418970E-010  0.4778728E+02  0.7816164E-02  0.1312668E+00
        -11   -1    0    0    0    0  0.00000000000E+00  0.00000000000E+00  0.45593999997E+02  0.45594000000E+02  0.51100000000E-03 0.  1.
         11   -1    0    0    0    0 -0.00000000000E+00 -0.00000000000E+00 -0.45593999997E+02  0.45594000000E+02  0.51100000000E-03 0. -1.
    9900012    2    1    2    0    0 -0.18098260962E+02 -0.36024370718E+02  0.16072351901E+02  0.47787276146E+02  0.20000023258E+02 0.  0.
         12    1    1    2    0    0  0.18098260962E+02  0.36024370718E+02 -0.16072351901E+02  0.43400723854E+02  0.00000000000E+00 0. -1.
         11    1    3    3    0    0 -0.45655000948E+01 -0.43155054915E+01 -0.36252541043E+00  0.62927580358E+01  0.51100000000E-03 0. -1.
        -11    1    3    3    0    0 -0.21672860428E+01 -0.16465165108E+02  0.15079586070E+02  0.22431957273E+02  0.51100000000E-03 0.  1.
        -12    1    3    3    0    0 -0.11365474825E+02 -0.15243700118E+02  0.13552912417E+01  0.19062560837E+02  0.00000000000E+00 0.  1.
</event>
<event>
 7    1  0.1418970E-010  0.4778729E+02  0.7816164E-02  0.1312668E+00
        -11   -1    0    0    0    0  0.00000000000E+00  0.00000000000E+00  0.45593999997E+02  0.45594000000E+02  0.51100000000E-03 0.  1.
         11   -1    0    0    0    0 -0.00000000000E+00 -0.00000000000E+00 -0.45593999997E+02  0.45594000000E+02  0.51100000000E-03 0. -1.
    9900012    2    1    2    0    0 -0.14480113514E+02 -0.94328139035E+01  0.39811676548E+02  0.47787294302E+02  0.20000106042E+02 0.  0.
         12    1    1    2    0    0  0.14480113514E+02  0.94328139035E+01 -0.39811676548E+02  0.43400705698E+02  0.00000000000E+00 0. -1.
         11    1    3    3    0    0 -0.10115461554E+02 -0.18117828494E+01  0.10190039106E+02  0.14472111691E+02  0.51100000000E-03 0. -1.
        -11    1    3    3    0    0  0.75992797805E+00 -0.96721303130E+01  0.17951859981E+02  0.20405804869E+02  0.51100000000E-03 0.  1.
         12    1    3    3    0    0 -0.51245799375E+01  0.20510992589E+01  0.11669777461E+02  0.12909377743E+02  0.00000000000E+00 0. -1.
</event>
<event>
 7    1  0.1418970E-010  0.4778727E+02  0.7816164E-02  0.1312668E+00
        -11   -1    0    0    0    0  0.00000000000E+00  0.00000000000E+00  0.45593999997E+02  0.45594000000E+02  0.51100000000E-03 0.  1.
         11   -1    0    0    0    0 -0.00000000000E+00 -0.00000000000E+00 -0.45593999997E+02  0.45594000000E+02  0.51100000000E-03 0. -1.
    9900012    2    1    2    0    0  0.23036194036E+02  0.32928592009E+02  0.16390997117E+02  0.47787271966E+02  0.20000004203E+02 0.  0.
         12    1    1    2    0    0 -0.23036194036E+02 -0.32928592009E+02 -0.16390997117E+02  0.43400728034E+02  0.00000000000E+00 0. -1.
         11    1    3    3    0    0  0.12291258416E+02  0.24617471144E+02  0.15489619408E+02  0.31575674635E+02  0.51100000000E-03 0. -1.
        -11    1    3    3    0    0  0.58750970447E+01  0.11949083265E+01  0.38189933638E+01  0.71083951611E+01  0.51100000000E-03 0.  1.
         12    1    3    3    0    0  0.48698385755E+01  0.71162125382E+01 -0.29176156548E+01  0.91032021701E+01  0.00000000000E+00 0. -1.
</event>
<event>
 7    1  0.1582489E-010  0.4778727E+02  0.7816164E-02  0.1312668E+00
        -11   -1    0    0    0    0  0.00000000000E+00  0.00000000000E+00  0.45593999997E+02  0.45594000000E+02  0.51100000000E-03 0. -1.
         11   -1    0    0    0    0 -0.00000000000E+00 -0.00000000000E+00 -0.45593999997E+02  0.45594000000E+02  0.51100000000E-03 0.  1.
    9900012    2    1    2    0    0 -0.89922883335E+01 -0.12783078210E+02 -0.40488949246E+02  0.47787270178E+02  0.19999996050E+02 0.  0.
         12    1    1    2    0    0  0.89922883335E+01  0.12783078210E+02  0.40488949246E+02  0.43400729822E+02  0.00000000000E+00 0. -1.
         11    1    3    3    0    0  0.60245898541E+00  0.68101946832E+00 -0.14946322168E+02  0.14973953751E+02  0.51100000000E-03 0. -1.
        -11    1    3    3    0    0  0.81229794418E+00 -0.68020281801E+01 -0.38763986221E+01  0.78710788238E+01  0.51100000000E-03 0.  1.
        -12    1    3    3    0    0 -0.10407045263E+02 -0.66620694981E+01 -0.21666228457E+02  0.24942237603E+02  0.00000000000E+00 0.  1.
</event>
<event>
 7    1  0.1418970E-010  0.4778724E+02  0.7816164E-02  0.1312668E+00
        -11   -1    0    0    0    0  0.00000000000E+00  0.00000000000E+00  0.45593999997E+02  0.45594000000E+02  0.51100000000E-03 0.  1.
         11   -1    0    0    0    0 -0.00000000000E+00 -0.00000000000E+00 -0.45593999997E+02  0.45594000000E+02  0.51100000000E-03 0. -1.
    9900012    2    1    2    0    0 -0.97064102380E+01  0.33692832238E+02 -0.25577420973E+02  0.47787241855E+02  0.19999866913E+02 0.  0.
         12    1    1    2    0    0  0.97064102380E+01 -0.33692832238E+02  0.25577420973E+02  0.43400758145E+02  0.00000000000E+00 0. -1.
         11    1    3    3    0    0 -0.43493747142E+01  0.26269110520E+01 -0.82517695550E+00  0.51476829107E+01  0.51100000000E-03 0. -1.
        -11    1    3    3    0    0  0.14231176164E+01  0.96984658310E+01 -0.15603912210E+02  0.18427359544E+02  0.51100000000E-03 0.  1.
        -12    1    3    3    0    0 -0.67801531402E+01  0.21367455355E+02 -0.91483318078E+01  0.24212199401E+02  0.00000000000E+00 0.  1.
</event>
<event>
 7    1  0.1418970E-010  0.4778727E+02  0.7816164E-02  0.1312668E+00
        -11   -1    0    0    0    0  0.00000000000E+00  0.00000000000E+00  0.45593999997E+02  0.45594000000E+02  0.51100000000E-03 0. -1.
         11   -1    0    0    0    0 -0.00000000000E+00 -0.00000000000E+00 -0.45593999997E+02  0.45594000000E+02  0.51100000000E-03 0.  1.
    9900012    2    1    2    0    0 -0.17534776600E+01 -0.33292167840E+02 -0.27788125505E+02  0.47787273711E+02  0.20000012157E+02 0.  0.
         12    1    1    2    0    0  0.17534776600E+01  0.33292167840E+02  0.27788125505E+02  0.43400726289E+02  0.00000000000E+00 0. -1.
         11    1    3    3    0    0 -0.25276609296E+01 -0.34797746697E+01  0.56166396651E+00  0.43374379765E+01  0.51100000000E-03 0. -1.
        -11    1    3    3    0    0 -0.17532952654E+01 -0.28327006359E+02 -0.20330947713E+02  0.34911900102E+02  0.51100000000E-03 0.  1.
         12    1    3    3    0    0  0.25274785351E+01 -0.14853868113E+01 -0.80188417583E+01  0.85379356327E+01  0.00000000000E+00 0. -1.
</event>
<event>
 7    1  0.1418970E-010  0.4778727E+02  0.7816164E-02  0.1312668E+00
        -11   -1    0    0    0    0  0.00000000000E+00  0.00000000000E+00  0.45593999997E+02  0.45594000000E+02  0.51100000000E-03 0.  1.
         11   -1    0    0    0    0 -0.00000000000E+00 -0.00000000000E+00 -0.45593999997E+02  0.45594000000E+02  0.51100000000E-03 0. -1.
    9900012    2    1    2    0    0  0.20781432759E+02 -0.36974651376E+02  0.91994830239E+01  0.47787270976E+02  0.19999999689E+02 0.  0.
         12    1    1    2    0    0 -0.20781432759E+02  0.36974651376E+02 -0.91994830239E+01  0.43400729024E+02  0.00000000000E+00 0. -1.
         11    1    3    3    0    0  0.28958111332E+01 -0.13792558011E+02 -0.13232268952E+01  0.14155257266E+02  0.51100000000E-03 0. -1.
        -11    1    3    3    0    0  0.16421915862E+02 -0.17854189618E+02  0.32143154811E+01  0.24470047645E+02  0.51100000000E-03 0.  1.
        -12    1    3    3    0    0  0.14637057632E+01 -0.53279037481E+01  0.73083944380E+01  0.91619660647E+01  0.00000000000E+00 0.  1.
</event>
<event>
 7    1  0.1418970E-010  0.4778727E+02  0.7816164E-02  0.1312668E+00
        -11   -1    0    0    0    0  0.00000000000E+00  0.00000000000E+00  0.45593999997E+02  0.45594000000E+02  0.51100000000E-03 0.  1.
         11   -1    0    0    0    0 -0.00000000000E+00 -0.00000000000E+00 -0.45593999997E+02  0.45594000000E+02  0.51100000000E-03 0. -1.
    9900012    2    1    2    0    0  0.21800426074E+02  0.20413569126E+02  0.31490494217E+02  0.47787267201E+02  0.19999982475E+02 0.  0.
         12    1    1    2    0    0 -0.21800426074E+02 -0.20413569126E+02 -0.31490494217E+02  0.43400732799E+02  0.00000000000E+00 0. -1.
         11    1    3    3    0    0  0.29892572484E+01 -0.15997101997E+01  0.31353490807E+01  0.46179157354E+01  0.51100000000E-03 0.  1.
        -11    1    3    3    0    0  0.12918526213E+02  0.51297329084E+01  0.17113285687E+02  0.22046927824E+02  0.51100000000E-03 0. -1.
         12    1    3    3    0    0  0.58926426128E+01  0.16883546417E+02  0.11241859450E+02  0.21122423641E+02  0.00000000000E+00 0. -1.
</event>
<event>
 7    1  0.1418970E-010  0.4778727E+02  0.7816164E-02  0.1312668E+00
        -11   -1    0    0    0    0  0.00000000000E+00  0.00000000000E+00  0.45593999997E+02  0.45594000000E+02  0.51100000000E-03 0.  1.
         11   -1    0    0    0    0 -0.00000000000E+00 -0.00000000000E+00 -0.45593999997E+02  0.45594000000E+02  0.51100000000E-03 0. -1.
    9900012    2    1    2    0    0 -0.26606776262E+02  0.56177244642E+01  0.33825194309E+02  0.47787272572E+02  0.20000006966E+02 0.  0.
         12    1    1    2    0    0  0.26606776262E+02 -0.56177244642E+01 -0.33825194309E+02  0.43400727428E+02  0.00000000000E+00 0. -1.
         11    1    3    3    0    0 -0.19857651605E+02 -0.20978187843E+01  0.13238057536E+02  0.23957740681E+02  0.51100000000E-03 0.  1.
        -11    1    3    3    0    0  0.11600356016E+01  0.17256219322E+01  0.35715441993E+01  0.41327208808E+01  0.51100000000E-03 0. -1.
        -12    1    3    3    0    0 -0.79091602581E+01  0.59899213163E+01  0.17015592573E+02  0.19696811011E+02  0.00000000000E+00 0.  1.
</event>
<event>
 7    1  0.1418970E-010  0.4778728E+02  0.7816164E-02  0.1312668E+00
        -11   -1    0    0    0    0  0.00000000000E+00  0.00000000000E+00  0.45593999997E+02  0.45594000000E+02  0.51100000000E-03 0.  1.
         11   -1    0    0    0    0 -0.00000000000E+00 -0.00000000000E+00 -0.45593999997E+02  0.45594000000E+02  0.51100000000E-03 0. -1.
    9900012    2    1    2    0    0 -0.19287991915E+02 -0.28334423087E+02  0.26622483590E+02  0.47787276547E+02  0.20000025088E+02 0.  0.
         12    1    1    2    0    0  0.19287991915E+02  0.28334423087E+02 -0.26622483590E+02  0.43400723453E+02  0.00000000000E+00 0. -1.
         11    1    3    3    0    0 -0.15480920707E+02 -0.66925655133E+01  0.13690652987E+02  0.21722875467E+02  0.51100000000E-03 0. -1.
        -11    1    3    3    0    0  0.40240067385E+00 -0.11895050762E+01 -0.36673740366E+00  0.13081839370E+01  0.51100000000E-03 0.  1.
        -12    1    3    3    0    0 -0.42094718817E+01 -0.20452352497E+02  0.13298568006E+02  0.24756217143E+02  0.00000000000E+00 0.  1.
</event>
<event>
 7    1  0.1418970E-010  0.4778728E+02  0.7816164E-02  0.1312668E+00
        -11   -1    0    0    0    0  0.00000000000E+00  0.00000000000E+00  0.45593999997E+02  0.45594000000E+02  0.51100000000E-03 0.  1.
         11   -1    0    0    0    0 -0.00000000000E+00 -0.00000000000E+00 -0.45593999997E+02  0.45594000000E+02  0.51100000000E-03 0. -1.
    9900012    2    1    2    0    0 -0.41067872630E+02 -0.81898173947E+00  0.14013637149E+02  0.47787275126E+02  0.20000018610E+02 0.  0.
         12    1    1    2    0    0  0.41067872630E+02  0.81898173947E+00 -0.14013637149E+02  0.43400724874E+02  0.00000000000E+00 0. -1.
         11    1    3    3    0    0 -0.10233565762E+02  0.16337704596E+00  0.43433014902E+01  0.11118310499E+02  0.51100000000E-03 0. -1.
        -11    1    3    3    0    0 -0.32883898422E+02 -0.22395368858E+01  0.91863190046E+01  0.34216293750E+02  0.51100000000E-03 0.  1.
         12    1    3    3    0    0  0.20495915531E+01  0.12571781004E+01  0.48401665412E+00  0.24526708773E+01  0.00000000000E+00 0. -1.
</event>
<event>
 7    1  0.1418970E-010  0.4778727E+02  0.7816164E-02  0.1312668E+00
        -11   -1    0    0    0    0  0.00000000000E+00  0.00000000000E+00  0.45593999997E+02  0.45594000000E+02  0.51100000000E-03 0.  1.
         11   -1    0    0    0    0 -0.00000000000E+00 -0.00000000000E+00 -0.45593999997E+02  0.45594000000E+02  0.51100000000E-03 0. -1.
    9900012    2    1    2    0    0  0.26924846175E+02 -0.19422307425E+02  0.27954434203E+02  0.47787265458E+02  0.19999974528E+02 0.  0.
         12    1    1    2    0    0 -0.26924846175E+02  0.19422307425E+02 -0.27954434203E+02  0.43400734542E+02  0.00000000000E+00 0. -1.
         11    1    3    3    0    0  0.16155304896E+02 -0.13485831702E+02  0.82271844039E+01  0.22595311382E+02  0.51100000000E-03 0. -1.
        -11    1    3    3    0    0  0.25245369688E+01  0.24959560825E+01  0.26143184965E+01  0.44088258227E+01  0.51100000000E-03 0.  1.
        -12    1    3    3    0    0  0.82450043095E+01 -0.84324318051E+01  0.17112931302E+02  0.20783128253E+02  0.00000000000E+00 0.  1.
</event>
<event>
 7    1  0.1418970E-010  0.4778728E+02  0.7816164E-02  0.1312668E+00
        -11   -1    0    0    0    0  0.00000000000E+00  0.00000000000E+00  0.45593999997E+02  0.45594000000E+02  0.51100000000E-03 0.  1.
         11   -1    0    0    0    0 -0.00000000000E+00 -0.00000000000E+00 -0.45593999997E+02  0.45594000000E+02  0.51100000000E-03 0. -1.
    9900012    2    1    2    0    0  0.28971426539E+02 -0.45520616267E+01  0.31993088260E+02  0.47787279762E+02  0.20000039745E+02 0.  0.
         12    1    1    2    0    0 -0.28971426539E+02  0.45520616267E+01 -0.31993088260E+02  0.43400720238E+02  0.00000000000E+00 0. -1.
         11    1    3    3    0    0  0.12224080491E+01 -0.40701218787E-01  0.75849731022E+01  0.76829522483E+01  0.51100000000E-03 0. -1.
        -11    1    3    3    0    0  0.28221639525E+02 -0.10805630852E+01  0.20600010523E+02  0.34956959077E+02  0.51100000000E-03 0.  1.
        -12    1    3    3    0    0 -0.47262103474E+00 -0.34307973227E+01  0.38081046348E+01  0.51473684366E+01  0.00000000000E+00 0.  1.
</event>
<event>
 7    1  0.1418970E-010  0.4778727E+02  0.7816164E-02  0.1312668E+00
        -11   -1    0    0    0    0  0.00000000000E+00  0.00000000000E+00  0.45593999997E+02  0.45594000000E+02  0.51100000000E-03 0.  1.
         11   -1    0    0    0    0 -0.00000000000E+00 -0.00000000000E+00 -0.45593999997E+02  0.45594000000E+02  0.51100000000E-03 0. -1.
    9900012    2    1    2    0    0 -0.35808836027E+02  0.53778733839E+01  0.23925490847E+02  0.47787269914E+02  0.19999994844E+02 0.  0.
         12    1    1    2    0    0  0.35808836027E+02 -0.53778733839E+01 -0.23925490847E+02  0.43400730086E+02  0.00000000000E+00 0. -1.
         11    1    3    3    0    0 -0.12282095564E+02 -0.34417400753E+00  0.11165141582E+02  0.16602069570E+02  0.51100000000E-03 0.  1.
        -11    1    3    3    0    0 -0.73027334588E+01  0.92831423688E+01  0.60513305335E+01  0.13271218847E+02  0.51100000000E-03 0. -1.
         12    1    3    3    0    0 -0.16224007004E+02 -0.35610949773E+01  0.67090187314E+01  0.17913981496E+02  0.00000000000E+00 0. -1.
</event>
<event>
 7    1  0.1418970E-010  0.4778727E+02  0.7816164E-02  0.1312668E+00
        -11   -1    0    0    0    0  0.00000000000E+00  0.00000000000E+00  0.45593999997E+02  0.45594000000E+02  0.51100000000E-03 0.  1.
         11   -1    0    0    0    0 -0.00000000000E+00 -0.00000000000E+00 -0.45593999997E+02  0.45594000000E+02  0.51100000000E-03 0. -1.
    9900012    2    1    2    0    0 -0.15117984755E+02  0.33689294233E+02  0.22805722153E+02  0.47787274523E+02  0.20000015861E+02 0.  0.
         12    1    1    2    0    0  0.15117984755E+02 -0.33689294233E+02 -0.22805722153E+02  0.43400725477E+02  0.00000000000E+00 0. -1.
         11    1    3    3    0    0 -0.27241400946E+01  0.12327735790E+01 -0.13424458700E+01  0.32776258370E+01  0.51100000000E-03 0. -1.
        -11    1    3    3    0    0 -0.41528305670E+00  0.19909662148E+02  0.11059241579E+02  0.22778804434E+02  0.51100000000E-03 0.  1.
         12    1    3    3    0    0 -0.11978561604E+02  0.12546858506E+02  0.13088926444E+02  0.21730844253E+02  0.00000000000E+00 0. -1.
</event>
<event>
 7    1  0.1418970E-010  0.4778727E+02  0.7816164E-02  0.1312668E+00
        -11   -1    0    0    0    0  0.00000000000E+00  0.00000000000E+00  0.45593999997E+02  0.45594000000E+02  0.51100000000E-03 0. -1.
         11   -1    0    0    0    0 -0.00000000000E+00 -0.00000000000E+00 -0.45593999997E+02  0.45594000000E+02  0.51100000000E-03 0.  1.
    9900012    2    1    2    0    0  0.30554399756E+02 -0.29776493917E+02  0.79631861884E+01  0.47787271103E+02  0.20000000269E+02 0.  0.
         12    1    1    2    0    0 -0.30554399756E+02  0.29776493917E+02 -0.79631861884E+01  0.43400728897E+02  0.00000000000E+00 0. -1.
         11    1    3    3    0    0  0.31347057922E+01  0.10237996473E+01 -0.68050807418E+00  0.33671408675E+01  0.51100000000E-03 0. -1.
        -11    1    3    3    0    0  0.26083104140E+02 -0.31842037546E+02  0.64742020412E+01  0.41667240957E+02  0.51100000000E-03 0.  1.
        -12    1    3    3    0    0  0.13365898241E+01  0.10417439815E+01  0.21694922214E+01  0.27528892785E+01  0.00000000000E+00 0.  1.
</event>
<event>
 7    1  0.1418970E-010  0.4778727E+02  0.7816164E-02  0.1312668E+00
        -11   -1    0    0    0    0  0.00000000000E+00  0.00000000000E+00  0.45593999997E+02  0.45594000000E+02  0.51100000000E-03 0.  1.
         11   -1    0    0    0    0 -0.00000000000E+00 -0.00000000000E+00 -0.45593999997E+02  0.45594000000E+02  0.51100000000E-03 0. -1.
    9900012    2    1    2    0    0  0.25716907818E+02  0.27610522939E+02  0.21445818888E+02  0.47787268757E+02  0.19999989569E+02 0.  0.
         12    1    1    2    0    0 -0.25716907818E+02 -0.27610522939E+02 -0.21445818888E+02  0.43400731243E+02  0.00000000000E+00 0. -1.
         11    1    3    3    0    0  0.32884735162E+01  0.13424008249E+02  0.11361532238E+02  0.17891407731E+02  0.51100000000E-03 0. -1.
        -11    1    3    3    0    0  0.15817238255E+02  0.14370014424E+02  0.90255752834E+01  0.23197916933E+02  0.51100000000E-03 0.  1.
        -12    1    3    3    0    0  0.66111960464E+01 -0.18349973363E+00  0.10587113665E+01  0.66979440930E+01  0.00000000000E+00 0.  1.
</event>
<event>
 7    1  0.1418970E-010  0.4778727E+02  0.7816164E-02  0.1312668E+00
        -11   -1    0    0    0    0  0.00000000000E+00  0.00000000000E+00  0.45593999997E+02  0.45594000000E+02  0.51100000000E-03 0. -1.
         11   -1    0    0    0    0 -0.00000000000E+00 -0.00000000000E+00 -0.45593999997E+02  0.45594000000E+02  0.51100000000E-03 0.  1.
    9900012    2    1    2    0    0  0.13727745158E+02 -0.30132920252E+02 -0.28056722428E+02  0.47787267939E+02  0.19999985841E+02 0.  0.
         12    1    1    2    0    0 -0.13727745158E+02  0.30132920252E+02  0.28056722428E+02  0.43400732061E+02  0.00000000000E+00 0. -1.
         11    1    3    3    0    0  0.63771241372E+01 -0.45896591290E+01 -0.50588218026E+01  0.93447504768E+01  0.51100000000E-03 0. -1.
        -11    1    3    3    0    0  0.47648171120E+00 -0.17581191608E+02 -0.62498154820E+01  0.18665088454E+02  0.51100000000E-03 0.  1.
        -12    1    3    3    0    0  0.68741393099E+01 -0.79620695152E+01 -0.16748085143E+02  0.19777429008E+02  0.00000000000E+00 0.  1.
</event>
<event>
 7    1  0.1418970E-010  0.4778727E+02  0.7816164E-02  0.1312668E+00
        -11   -1    0    0    0    0  0.00000000000E+00  0.00000000000E+00  0.45593999997E+02  0.45594000000E+02  0.51100000000E-03 0. -1.
         11   -1    0    0    0    0 -0.00000000000E+00 -0.00000000000E+00 -0.45593999997E+02  0.45594000000E+02  0.51100000000E-03 0.  1.
    9900012    2    1    2    0    0  0.38681479877E+02  0.10197329109E+02  0.16833921502E+02  0.47787270518E+02  0.19999997599E+02 0.  0.
         12    1    1    2    0    0 -0.38681479877E+02 -0.10197329109E+02 -0.16833921502E+02  0.43400729482E+02  0.00000000000E+00 0. -1.
         11    1    3    3    0    0  0.16235839967E+02  0.20279573657E+01  0.71442532692E+01  0.17853724137E+02  0.51100000000E-03 0. -1.
        -11    1    3    3    0    0  0.85154885938E+01 -0.25556571577E+01  0.85201760404E+01  0.12314151596E+02  0.51100000000E-03 0.  1.
         12    1    3    3    0    0  0.13930151316E+02  0.10725028901E+02  0.11694921921E+01  0.17619394785E+02  0.00000000000E+00 0. -1.
</event>
<event>
 7    1  0.1418970E-010  0.4778727E+02  0.7816164E-02  0.1312668E+00
        -11   -1    0    0    0    0  0.00000000000E+00  0.00000000000E+00  0.45593999997E+02  0.45594000000E+02  0.51100000000E-03 0.  1.
         11   -1    0    0    0    0 -0.00000000000E+00 -0.00000000000E+00 -0.45593999997E+02  0.45594000000E+02  0.51100000000E-03 0. -1.
    9900012    2    1    2    0    0  0.16743125461E+02  0.21915071458E+02  0.33511495736E+02  0.47787274734E+02  0.20000016820E+02 0.  0.
         12    1    1    2    0    0 -0.16743125461E+02 -0.21915071458E+02 -0.33511495736E+02  0.43400725266E+02  0.00000000000E+00 0. -1.
         11    1    3    3    0    0  0.35559985102E+01 -0.15909590585E+00  0.10545216391E+02  0.11129781036E+02  0.51100000000E-03 0. -1.
        -11    1    3    3    0    0  0.41477958644E+00  0.75219477729E+01  0.13781392132E+01  0.76583946331E+01  0.51100000000E-03 0.  1.
        -12    1    3    3    0    0  0.12772347364E+02  0.14552219591E+02  0.21588140132E+02  0.28999099064E+02  0.00000000000E+00 0.  1.
</event>
<event>
 7    1  0.1418970E-010  0.4778728E+02  0.7816164E-02  0.1312668E+00
        -11   -1    0    0    0    0  0.00000000000E+00  0.00000000000E+00  0.45593999997E+02  0.45594000000E+02  0.51100000000E-03 0.  1.
         11   -1    0    0    0    0 -0.00000000000E+00 -0.00000000000E+00 -0.45593999997E+02  0.45594000000E+02  0.51100000000E-03 0. -1.
    9900012    2    1    2    0    0  0.46534714780E+01  0.31832135435E+02  0.29132165086E+02  0.47787277820E+02  0.20000030892E+02 0.  0.
         12    1    1    2    0    0 -0.46534714780E+01 -0.31832135435E+02 -0.29132165086E+02  0.43400722180E+02  0.00000000000E+00 0. -1.
         11    1    3    3    0    0  0.83427306182E+01  0.71873085130E+01  0.85735893037E+01  0.13955822858E+02  0.51100000000E-03 0.  1.
        -11    1    3    3    0    0 -0.35241204194E+01  0.32532642560E+01  0.70647983993E+01  0.85390005114E+01  0.51100000000E-03 0. -1.
         12    1    3    3    0    0 -0.16513872075E+00  0.21391562666E+02  0.13493777383E+02  0.25292454451E+02  0.00000000000E+00 0. -1.
</event>
<event>
 7    1  0.1418970E-010  0.4778727E+02  0.7816164E-02  0.1312668E+00
        -11   -1    0    0    0    0  0.00000000000E+00  0.00000000000E+00  0.45593999997E+02  0.45594000000E+02  0.51100000000E-03 0. -1.
         11   -1    0    0    0    0 -0.00000000000E+00 -0.00000000000E+00 -0.45593999997E+02  0.45594000000E+02  0.51100000000E-03 0.  1.
    9900012    2    1    2    0    0  0.18207455968E+02  0.13937810879E+02 -0.36849011614E+02  0.47787266345E+02  0.19999978572E+02 0.  0.
         12    1    1    2    0    0 -0.18207455968E+02 -0.13937810879E+02  0.36849011614E+02  0.43400733655E+02  0.00000000000E+00 0. -1.
         11    1    3    3    0    0  0.44819747928E+01 -0.12673624490E+01  0.84423802733E+00  0.47336078976E+01  0.51100000000E-03 0. -1.
        -11    1    3    3    0    0  0.62840537546E+01  0.48965051722E+01 -0.12283954661E+02  0.14641059964E+02  0.51100000000E-03 0.  1.
         12    1    3    3    0    0  0.74414274203E+01  0.10308668156E+02 -0.25409294980E+02  0.28412598483E+02  0.00000000000E+00 0. -1.
</event>
<event>
 7    1  0.1418970E-010  0.4778727E+02  0.7816164E-02  0.1312668E+00
        -11   -1    0    0    0    0  0.00000000000E+00  0.00000000000E+00  0.45593999997E+02  0.45594000000E+02  0.51100000000E-03 0. -1.
         11   -1    0    0    0    0 -0.00000000000E+00 -0.00000000000E+00 -0.45593999997E+02  0.45594000000E+02  0.51100000000E-03 0.  1.
    9900012    2    1    2    0    0  0.35030126555E+02  0.16110194962E+02 -0.19924241223E+02  0.47787268018E+02  0.19999986203E+02 0.  0.
         12    1    1    2    0    0 -0.35030126555E+02 -0.16110194962E+02  0.19924241223E+02  0.43400731982E+02  0.00000000000E+00 0. -1.
         11    1    3    3    0    0 -0.43610574334E+00  0.18779577180E+01  0.50620693201E+00  0.19932784875E+01  0.51100000000E-03 0. -1.
        -11    1    3    3    0    0  0.27677043852E+02  0.53662160127E+01 -0.18786534963E+02  0.33878443395E+02  0.51100000000E-03 0.  1.
         12    1    3    3    0    0  0.77891884465E+01  0.88660212318E+01 -0.16439131928E+01  0.11915546136E+02  0.00000000000E+00 0. -1.
</event>
<event>
 7    1  0.1418970E-010  0.4778729E+02  0.7816164E-02  0.1312668E+00
        -11   -1    0    0    0    0  0.00000000000E+00  0.00000000000E+00  0.45593999997E+02  0.45594000000E+02  0.51100000000E-03 0. -1.
         11   -1    0    0    0    0 -0.00000000000E+00 -0.00000000000E+00 -0.45593999997E+02  0.45594000000E+02  0.51100000000E-03 0.  1.
    9900012    2    1    2    0    0 -0.27292479420E+02  0.29092656780E+02 -0.17098526412E+02  0.47787288982E+02  0.20000081782E+02 0.  0.
         12    1    1    2    0    0  0.27292479420E+02 -0.29092656780E+02  0.17098526412E+02  0.43400711018E+02  0.00000000000E+00 0. -1.
         11    1    3    3    0    0 -0.98658673833E+00  0.90671774644E+01 -0.42162950027E+01  0.10048094564E+02  0.51100000000E-03 0. -1.
        -11    1    3    3    0    0 -0.26595330192E+02  0.20268887937E+02 -0.10098944297E+02  0.34930331840E+02  0.51100000000E-03 0.  1.
        -12    1    3    3    0    0  0.28943751054E+00 -0.24340862129E+00 -0.27832871125E+01  0.28088625776E+01  0.00000000000E+00 0.  1.
</event>
<event>
 7    1  0.1418970E-010  0.4778727E+02  0.7816164E-02  0.1312668E+00
        -11   -1    0    0    0    0  0.00000000000E+00  0.00000000000E+00  0.45593999997E+02  0.45594000000E+02  0.51100000000E-03 0.  1.
         11   -1    0    0    0    0 -0.00000000000E+00 -0.00000000000E+00 -0.45593999997E+02  0.45594000000E+02  0.51100000000E-03 0. -1.
    9900012    2    1    2    0    0  0.23404601694E+02 -0.16866134148E+02  0.32425010690E+02  0.47787272128E+02  0.20000004942E+02 0.  0.
         12    1    1    2    0    0 -0.23404601694E+02  0.16866134148E+02 -0.32425010690E+02  0.43400727872E+02  0.00000000000E+00 0. -1.
         11    1    3    3    0    0  0.10329272999E+01 -0.71466560018E+00  0.67683494808E+01  0.68839117283E+01  0.51100000000E-03 0. -1.
        -11    1    3    3    0    0  0.15823147063E+02 -0.87246355284E+01  0.62549360495E+01  0.19121074063E+02  0.51100000000E-03 0.  1.
        -12    1    3    3    0    0  0.65485273310E+01 -0.74268330196E+01  0.19401725159E+02  0.21782286337E+02  0.00000000000E+00 0.  1.
</event>
<event>
 7    1  0.1418970E-010  0.4778727E+02  0.7816164E-02  0.1312668E+00
        -11   -1    0    0    0    0  0.00000000000E+00  0.00000000000E+00  0.45593999997E+02  0.45594000000E+02  0.51100000000E-03 0. -1.
         11   -1    0    0    0    0 -0.00000000000E+00 -0.00000000000E+00 -0.45593999997E+02  0.45594000000E+02  0.51100000000E-03 0.  1.
    9900012    2    1    2    0    0  0.16923529857E+02 -0.38762521091E+02 -0.97305850150E+01  0.47787272024E+02  0.20000004465E+02 0.  0.
         12    1    1    2    0    0 -0.16923529857E+02  0.38762521091E+02  0.97305850150E+01  0.43400727976E+02  0.00000000000E+00 0. -1.
         11    1    3    3    0    0  0.12499616899E+02 -0.85403639646E+01  0.27036073922E+00  0.15141047997E+02  0.51100000000E-03 0. -1.
        -11    1    3    3    0    0 -0.11075775763E+01 -0.60907959965E+01 -0.32155396563E+01  0.69759744481E+01  0.51100000000E-03 0.  1.
         12    1    3    3    0    0  0.55314905341E+01 -0.24131361130E+02 -0.67854060979E+01  0.25670249578E+02  0.00000000000E+00 0. -1.
</event>
<event>
 7    1  0.1433299E-010  0.4778727E+02  0.7816164E-02  0.1312668E+00
        -11   -1    0    0    0    0  0.00000000000E+00  0.00000000000E+00  0.45593999997E+02  0.45594000000E+02  0.51100000000E-03 0.  1.
         11   -1    0    0    0    0 -0.00000000000E+00 -0.00000000000E+00 -0.45593999997E+02  0.45594000000E+02  0.51100000000E-03 0. -1.
    9900012    2    1    2    0    0  0.25694490339E+02 -0.32494071661E+02  0.12944179228E+02  0.47787270711E+02  0.19999998482E+02 0.  0.
         12    1    1    2    0    0 -0.25694490339E+02  0.32494071661E+02 -0.12944179228E+02  0.43400729289E+02  0.00000000000E+00 0. -1.
         11    1    3    3    0    0  0.10903435492E+02 -0.73752948488E+01 -0.13425069980E+01  0.13231863245E+02  0.51100000000E-03 0. -1.
        -11    1    3    3    0    0  0.14784104381E+02 -0.14550597846E+02  0.11048107289E+02  0.23502134264E+02  0.51100000000E-03 0.  1.
         12    1    3    3    0    0  0.69504666143E-02 -0.10568178966E+02  0.32385789372E+01  0.11053273203E+02  0.00000000000E+00 0. -1.
</event>
<event>
 7    1  0.1418970E-010  0.4778727E+02  0.7816164E-02  0.1312668E+00
        -11   -1    0    0    0    0  0.00000000000E+00  0.00000000000E+00  0.45593999997E+02  0.45594000000E+02  0.51100000000E-03 0.  1.
         11   -1    0    0    0    0 -0.00000000000E+00 -0.00000000000E+00 -0.45593999997E+02  0.45594000000E+02  0.51100000000E-03 0. -1.
    9900012    2    1    2    0    0 -0.15312841318E+02 -0.14413341214E+02  0.37965718572E+02  0.47787270734E+02  0.19999998583E+02 0.  0.
         12    1    1    2    0    0  0.15312841318E+02  0.14413341214E+02 -0.37965718572E+02  0.43400729266E+02  0.00000000000E+00 0. -1.
         11    1    3    3    0    0  0.33654463586E+01 -0.24421486302E+01  0.38587215024E+01  0.56727463383E+01  0.51100000000E-03 0. -1.
        -11    1    3    3    0    0 -0.76117068416E+01  0.86210289502E+00  0.12414130310E+02  0.14587389556E+02  0.51100000000E-03 0.  1.
         12    1    3    3    0    0 -0.11066580835E+02 -0.12833295479E+02  0.21692866759E+02  0.27527134839E+02  0.00000000000E+00 0. -1.
</event>
<event>
 7    1  0.1418970E-010  0.4778727E+02  0.7816164E-02  0.1312668E+00
        -11   -1    0    0    0    0  0.00000000000E+00  0.00000000000E+00  0.45593999997E+02  0.45594000000E+02  0.51100000000E-03 0.  1.
         11   -1    0    0    0    0 -0.00000000000E+00 -0.00000000000E+00 -0.45593999997E+02  0.45594000000E+02  0.51100000000E-03 0. -1.
    9900012    2    1    2    0    0  0.48690247907E+01 -0.48177658464E+01  0.42856794349E+02  0.47787273140E+02  0.20000009553E+02 0.  0.
         12    1    1    2    0    0 -0.48690247907E+01  0.48177658464E+01 -0.42856794349E+02  0.43400726860E+02  0.00000000000E+00 0. -1.
         11    1    3    3    0    0  0.82822607681E+00  0.25186166786E+01  0.34695672765E+02  0.34796825965E+02  0.51100000000E-03 0. -1.
        -11    1    3    3    0    0  0.40449750850E+01 -0.17617203199E+01  0.46087799353E+01  0.63801516186E+01  0.51100000000E-03 0.  1.
         12    1    3    3    0    0 -0.41763710519E-02 -0.55746622051E+01  0.35523416488E+01  0.66102955556E+01  0.00000000000E+00 0. -1.
</event>
<event>
 7    1  0.1418970E-010  0.4778727E+02  0.7816164E-02  0.1312668E+00
        -11   -1    0    0    0    0  0.00000000000E+00  0.00000000000E+00  0.45593999997E+02  0.45594000000E+02  0.51100000000E-03 0.  1.
         11   -1    0    0    0    0 -0.00000000000E+00 -0.00000000000E+00 -0.45593999997E+02  0.45594000000E+02  0.51100000000E-03 0. -1.
    9900012    2    1    2    0    0 -0.39273481346E+02 -0.14681218299E+02  0.11210644045E+02  0.47787273650E+02  0.20000011882E+02 0.  0.
         12    1    1    2    0    0  0.39273481346E+02  0.14681218299E+02 -0.11210644045E+02  0.43400726350E+02  0.00000000000E+00 0. -1.
         11    1    3    3    0    0 -0.16276614473E+02 -0.11245736328E+02 -0.27201225750E+01  0.19969823017E+02  0.51100000000E-03 0. -1.
        -11    1    3    3    0    0 -0.88651216668E+01  0.60867362111E+00  0.26012368853E+01  0.92589037871E+01  0.51100000000E-03 0.  1.
         12    1    3    3    0    0 -0.14131745207E+02 -0.40441555920E+01  0.11329529735E+02  0.18558546846E+02  0.00000000000E+00 0. -1.
</event>
<event>
 7    1  0.1418970E-010  0.4778727E+02  0.7816164E-02  0.1312668E+00
        -11   -1    0    0    0    0  0.00000000000E+00  0.00000000000E+00  0.45593999997E+02  0.45594000000E+02  0.51100000000E-03 0. -1.
         11   -1    0    0    0    0 -0.00000000000E+00 -0.00000000000E+00 -0.45593999997E+02  0.45594000000E+02  0.51100000000E-03 0.  1.
    9900012    2    1    2    0    0  0.21217087854E+02 -0.37525050094E+02  0.50327937835E+01  0.47787271725E+02  0.20000003103E+02 0.  0.
         12    1    1    2    0    0 -0.21217087854E+02  0.37525050094E+02 -0.50327937835E+01  0.43400728275E+02  0.00000000000E+00 0. -1.
         11    1    3    3    0    0  0.20950445283E+01 -0.18162598951E+02  0.32630977505E+01  0.18571941724E+02  0.51100000000E-03 0. -1.
        -11    1    3    3    0    0  0.42350712306E+00  0.12486601274E+01 -0.10877111125E+00  0.13230048424E+01  0.51100000000E-03 0.  1.
        -12    1    3    3    0    0  0.18698536202E+02 -0.20611111270E+02  0.18784671442E+01  0.27892325158E+02  0.00000000000E+00 0.  1.
</event>
<event>
 7    1  0.1418970E-010  0.4778728E+02  0.7816164E-02  0.1312668E+00
        -11   -1    0    0    0    0  0.00000000000E+00  0.00000000000E+00  0.45593999997E+02  0.45594000000E+02  0.51100000000E-03 0.  1.
         11   -1    0    0    0    0 -0.00000000000E+00 -0.00000000000E+00 -0.45593999997E+02  0.45594000000E+02  0.51100000000E-03 0. -1.
    9900012    2    1    2    0    0  0.12513572549E+02  0.38631048628E+02  0.15319108946E+02  0.47787279788E+02  0.20000039864E+02 0.  0.
         12    1    1    2    0    0 -0.12513572549E+02 -0.38631048628E+02 -0.15319108946E+02  0.43400720212E+02  0.00000000000E+00 0. -1.
         11    1    3    3    0    0 -0.33755952213E+00  0.30760696549E+01 -0.37879802818E+01  0.48913133031E+01  0.51100000000E-03 0. -1.
        -11    1    3    3    0    0  0.77171712818E+01  0.12350659745E+02  0.85835557832E+01  0.16904761426E+02  0.51100000000E-03 0.  1.
        -12    1    3    3    0    0  0.51339607889E+01  0.23204319228E+02  0.10523533444E+02  0.25991205058E+02  0.00000000000E+00 0.  1.
</event>
<event>
 7    1  0.1418970E-010  0.4778727E+02  0.7816164E-02  0.1312668E+00
        -11   -1    0    0    0    0  0.00000000000E+00  0.00000000000E+00  0.45593999997E+02  0.45594000000E+02  0.51100000000E-03 0.  1.
         11   -1    0    0    0    0 -0.00000000000E+00 -0.00000000000E+00 -0.45593999997E+02  0.45594000000E+02  0.51100000000E-03 0. -1.
    9900012    2    1    2    0    0 -0.28370710106E+02  0.25247259495E+02  0.21007189171E+02  0.47787270734E+02  0.19999998584E+02 0.  0.
         12    1    1    2    0    0  0.28370710106E+02 -0.25247259495E+02 -0.21007189171E+02  0.43400729266E+02  0.00000000000E+00 0. -1.
         11    1    3    3    0    0 -0.11629565228E+02  0.13098159369E+02  0.43445427428E+01  0.18046706574E+02  0.51100000000E-03 0. -1.
        -11    1    3    3    0    0 -0.15616661467E+02  0.14928276195E+02  0.14115761266E+02  0.25806748379E+02  0.51100000000E-03 0.  1.
         12    1    3    3    0    0 -0.11244834113E+01 -0.27791760692E+01  0.25468851628E+01  0.39338157810E+01  0.00000000000E+00 0. -1.
</event>
<event>
 7    1  0.1418970E-010  0.4778727E+02  0.7816164E-02  0.1312668E+00
        -11   -1    0    0    0    0  0.00000000000E+00  0.00000000000E+00  0.45593999997E+02  0.45594000000E+02  0.51100000000E-03 0. -1.
         11   -1    0    0    0    0 -0.00000000000E+00 -0.00000000000E+00 -0.45593999997E+02  0.45594000000E+02  0.51100000000E-03 0.  1.
    9900012    2    1    2    0    0  0.41440092443E+02  0.12799619519E+02 -0.15848315508E+01  0.47787271751E+02  0.20000003222E+02 0.  0.
         12    1    1    2    0    0 -0.41440092443E+02 -0.12799619519E+02  0.15848315508E+01  0.43400728249E+02  0.00000000000E+00 0. -1.
         11    1    3    3    0    0  0.35789807073E+01  0.27300564489E+01  0.48376981870E+01  0.66079978153E+01  0.51100000000E-03 0. -1.
        -11    1    3    3    0    0  0.21183176913E+02  0.10909489159E+02 -0.20390967323E+01  0.23914469544E+02  0.51100000000E-03 0.  1.
        -12    1    3    3    0    0  0.16677934823E+02 -0.83992608866E+00 -0.43834330055E+01  0.17264804392E+02  0.00000000000E+00 0.  1.
</event>
<event>
 7    1  0.1418970E-010  0.4778727E+02  0.7816164E-02  0.1312668E+00
        -11   -1    0    0    0    0  0.00000000000E+00  0.00000000000E+00  0.45593999997E+02  0.45594000000E+02  0.51100000000E-03 0.  1.
         11   -1    0    0    0    0 -0.00000000000E+00 -0.00000000000E+00 -0.45593999997E+02  0.45594000000E+02  0.51100000000E-03 0. -1.
    9900012    2    1    2    0    0  0.33595692704E+01 -0.77323179300E+01  0.42574026734E+02  0.47787271912E+02  0.20000003955E+02 0.  0.
         12    1    1    2    0    0 -0.33595692704E+01  0.77323179300E+01 -0.42574026734E+02  0.43400728088E+02  0.00000000000E+00 0. -1.
         11    1    3    3    0    0 -0.20433340637E+01  0.36798581244E+01  0.12301867886E+02  0.13002019984E+02  0.51100000000E-03 0. -1.
        -11    1    3    3    0    0 -0.21658549862E+01 -0.63950273398E+00  0.12306095658E+02  0.12511589914E+02  0.51100000000E-03 0.  1.
        -12    1    3    3    0    0  0.75687583202E+01 -0.10772673320E+02  0.17966063190E+02  0.22273662014E+02  0.00000000000E+00 0.  1.
</event>
<event>
 7    1  0.1418970E-010  0.4778727E+02  0.7816164E-02  0.1312668E+00
        -11   -1    0    0    0    0  0.00000000000E+00  0.00000000000E+00  0.45593999997E+02  0.45594000000E+02  0.51100000000E-03 0.  1.
         11   -1    0    0    0    0 -0.00000000000E+00 -0.00000000000E+00 -0.45593999997E+02  0.45594000000E+02  0.51100000000E-03 0. -1.
    9900012    2    1    2    0    0 -0.17787859578E+02 -0.39079927554E+01  0.39394704273E+02  0.47787273272E+02  0.20000010157E+02 0.  0.
         12    1    1    2    0    0  0.17787859578E+02  0.39079927554E+01 -0.39394704273E+02  0.43400726728E+02  0.00000000000E+00 0. -1.
         11    1    3    3    0    0  0.19902007007E+01 -0.41691385567E+01  0.47207868514E+01  0.66051831081E+01  0.51100000000E-03 0. -1.
        -11    1    3    3    0    0 -0.48992621542E+01  0.35899846706E+01  0.51894529600E+01  0.79888160497E+01  0.51100000000E-03 0.  1.
        -12    1    3    3    0    0 -0.14878798124E+02 -0.33288388693E+01  0.29484464462E+02  0.33193274114E+02  0.00000000000E+00 0.  1.
</event>
<event>
 7    1  0.1418970E-010  0.4778727E+02  0.7816164E-02  0.1312668E+00
        -11   -1    0    0    0    0  0.00000000000E+00  0.00000000000E+00  0.45593999997E+02  0.45594000000E+02  0.51100000000E-03 0.  1.
         11   -1    0    0    0    0 -0.00000000000E+00 -0.00000000000E+00 -0.45593999997E+02  0.45594000000E+02  0.51100000000E-03 0. -1.
    9900012    2    1    2    0    0  0.32663771365E+02 -0.24296925410E+02 -0.15045287747E+02  0.47787271579E+02  0.20000002435E+02 0.  0.
         12    1    1    2    0    0 -0.32663771365E+02  0.24296925410E+02  0.15045287747E+02  0.43400728421E+02  0.00000000000E+00 0. -1.
         11    1    3    3    0    0  0.73315855432E+01 -0.47433290525E+01 -0.85587709650E+01  0.12227177833E+02  0.51100000000E-03 0. -1.
        -11    1    3    3    0    0  0.47329501097E+01  0.84053821273E+00  0.22183796981E+01  0.52941977649E+01  0.51100000000E-03 0.  1.
        -12    1    3    3    0    0  0.20599235712E+02 -0.20394134570E+02 -0.87048964797E+01  0.30265895980E+02  0.00000000000E+00 0.  1.
</event>
<event>
 7    1  0.1418970E-010  0.4778727E+02  0.7816164E-02  0.1312668E+00
        -11   -1    0    0    0    0  0.00000000000E+00  0.00000000000E+00  0.45593999997E+02  0.45594000000E+02  0.51100000000E-03 0.  1.
         11   -1    0    0    0    0 -0.00000000000E+00 -0.00000000000E+00 -0.45593999997E+02  0.45594000000E+02  0.51100000000E-03 0. -1.
    9900012    2    1    2    0    0  0.25415263162E+02 -0.23027988213E+02  0.26596985774E+02  0.47787268497E+02  0.19999988384E+02 0.  0.
         12    1    1    2    0    0 -0.25415263162E+02  0.23027988213E+02 -0.26596985774E+02  0.43400731503E+02  0.00000000000E+00 0. -1.
         11    1    3    3    0    0  0.11248475768E+01 -0.59202338705E+01  0.51053983135E+01  0.78980721289E+01  0.51100000000E-03 0. -1.
        -11    1    3    3    0    0  0.13966308265E+02 -0.33452837434E+01  0.16708368339E+02  0.22032209664E+02  0.51100000000E-03 0.  1.
        -12    1    3    3    0    0  0.10324107320E+02 -0.13762470599E+02  0.47832191216E+01  0.17856986703E+02  0.00000000000E+00 0.  1.
</event>
<event>
 7    1  0.1418970E-010  0.4778727E+02  0.7816164E-02  0.1312668E+00
        -11   -1    0    0    0    0  0.00000000000E+00  0.00000000000E+00  0.45593999997E+02  0.45594000000E+02  0.51100000000E-03 0.  1.
         11   -1    0    0    0    0 -0.00000000000E+00 -0.00000000000E+00 -0.45593999997E+02  0.45594000000E+02  0.51100000000E-03 0. -1.
    9900012    2    1    2    0    0 -0.26622782105E+02  0.32441928986E+02 -0.11062197216E+02  0.47787268548E+02  0.19999988619E+02 0.  0.
         12    1    1    2    0    0  0.26622782105E+02 -0.32441928986E+02  0.11062197216E+02  0.43400731452E+02  0.00000000000E+00 0. -1.
         11    1    3    3    0    0 -0.83476815316E+01  0.10472782157E+01 -0.25920227583E+01  0.88033607704E+01  0.51100000000E-03 0. -1.
        -11    1    3    3    0    0 -0.16303394728E+02  0.31364727974E+02 -0.60513803843E+01  0.35863157214E+02  0.51100000000E-03 0.  1.
         12    1    3    3    0    0 -0.19717058449E+01  0.29922795885E-01 -0.24187940731E+01  0.31207505636E+01  0.00000000000E+00 0. -1.
</event>
<event>
 7    1  0.1418970E-010  0.4778727E+02  0.7816164E-02  0.1312668E+00
        -11   -1    0    0    0    0  0.00000000000E+00  0.00000000000E+00  0.45593999997E+02  0.45594000000E+02  0.51100000000E-03 0.  1.
         11   -1    0    0    0    0 -0.00000000000E+00 -0.00000000000E+00 -0.45593999997E+02  0.45594000000E+02  0.51100000000E-03 0. -1.
    9900012    2    1    2    0    0  0.62719130532E+01 -0.19346614432E+02  0.38340514378E+02  0.47787269290E+02  0.19999992003E+02 0.  0.
         12    1    1    2    0    0 -0.62719130532E+01  0.19346614432E+02 -0.38340514378E+02  0.43400730710E+02  0.00000000000E+00 0. -1.
         11    1    3    3    0    0 -0.15559210243E+01 -0.21759823910E+01 -0.97996265698E+00  0.28488798974E+01  0.51100000000E-03 0. -1.
        -11    1    3    3    0    0 -0.49973006010E+00 -0.36589431956E+01  0.17908573131E+02  0.18285365386E+02  0.51100000000E-03 0.  1.
        -12    1    3    3    0    0  0.83275641376E+01 -0.13511688846E+02  0.21411903904E+02  0.26653024007E+02  0.00000000000E+00 0.  1.
</event>
<event>
 7    1  0.1418970E-010  0.4778730E+02  0.7816164E-02  0.1312668E+00
        -11   -1    0    0    0    0  0.00000000000E+00  0.00000000000E+00  0.45593999997E+02  0.45594000000E+02  0.51100000000E-03 0. -1.
         11   -1    0    0    0    0 -0.00000000000E+00 -0.00000000000E+00 -0.45593999997E+02  0.45594000000E+02  0.51100000000E-03 0.  1.
    9900012    2    1    2    0    0 -0.34227477658E+02 -0.18052961250E+02 -0.19651747738E+02  0.47787299247E+02  0.20000128585E+02 0.  0.
         12    1    1    2    0    0  0.34227477658E+02  0.18052961250E+02  0.19651747738E+02  0.43400700753E+02  0.00000000000E+00 0. -1.
         11    1    3    3    0    0 -0.18472125025E+01  0.81542023740E+00 -0.41623243697E+01  0.46262348203E+01  0.51100000000E-03 0. -1.
        -11    1    3    3    0    0 -0.71616938872E+01  0.19722616893E+01 -0.43100285888E+01  0.85881326377E+01  0.51100000000E-03 0.  1.
        -12    1    3    3    0    0 -0.25218571269E+02 -0.20840643177E+02 -0.11179394779E+02  0.34572931789E+02  0.00000000000E+00 0.  1.
</event>
<event>
 7    1  0.1418970E-010  0.4778727E+02  0.7816164E-02  0.1312668E+00
        -11   -1    0    0    0    0  0.00000000000E+00  0.00000000000E+00  0.45593999997E+02  0.45594000000E+02  0.51100000000E-03 0. -1.
         11   -1    0    0    0    0 -0.00000000000E+00 -0.00000000000E+00 -0.45593999997E+02  0.45594000000E+02  0.51100000000E-03 0.  1.
    9900012    2    1    2    0    0  0.27808633054E+02  0.24769518414E+02 -0.22288437915E+02  0.47787267524E+02  0.19999983947E+02 0.  0.
         12    1    1    2    0    0 -0.27808633054E+02 -0.24769518414E+02  0.22288437915E+02  0.43400732476E+02  0.00000000000E+00 0. -1.
         11    1    3    3    0    0  0.86219962919E+00 -0.12160065126E+01 -0.41281246410E+01  0.43890173561E+01  0.51100000000E-03 0. -1.
        -11    1    3    3    0    0  0.93758868287E+01  0.17497582272E+02 -0.10264602014E+02  0.22348035573E+02  0.51100000000E-03 0.  1.
        -12    1    3    3    0    0  0.17570546596E+02  0.84879426547E+01 -0.78957112600E+01  0.21050214595E+02  0.00000000000E+00 0.  1.
</event>
<event>
 7    1  0.1418970E-010  0.4778730E+02  0.7816164E-02  0.1312668E+00
        -11   -1    0    0    0    0  0.00000000000E+00  0.00000000000E+00  0.45593999997E+02  0.45594000000E+02  0.51100000000E-03 0.  1.
         11   -1    0    0    0    0 -0.00000000000E+00 -0.00000000000E+00 -0.45593999997E+02  0.45594000000E+02  0.51100000000E-03 0. -1.
    9900012    2    1    2    0    0 -0.41935281855E+01 -0.33516661398E+02  0.27251940898E+02  0.47787302395E+02  0.20000142939E+02 0.  0.
         12    1    1    2    0    0  0.41935281855E+01  0.33516661398E+02 -0.27251940898E+02  0.43400697605E+02  0.00000000000E+00 0. -1.
         11    1    3    3    0    0 -0.18749458126E+01  0.57573240846E+00 -0.22255837334E+00  0.19739356871E+01  0.51100000000E-03 0. -1.
        -11    1    3    3    0    0 -0.66313077807E+01 -0.17911518043E+02  0.19394146166E+02  0.27220022543E+02  0.51100000000E-03 0.  1.
         12    1    3    3    0    0  0.43127254078E+01 -0.16180875764E+02  0.80803531044E+01  0.18593344165E+02  0.00000000000E+00 0. -1.
</event>
<event>
 7    1  0.1418970E-010  0.4778727E+02  0.7816164E-02  0.1312668E+00
        -11   -1    0    0    0    0  0.00000000000E+00  0.00000000000E+00  0.45593999997E+02  0.45594000000E+02  0.51100000000E-03 0. -1.
         11   -1    0    0    0    0 -0.00000000000E+00 -0.00000000000E+00 -0.45593999997E+02  0.45594000000E+02  0.51100000000E-03 0.  1.
    9900012    2    1    2    0    0 -0.37906745487E+02  0.19469478636E+02  0.82244494226E+01  0.47787268208E+02  0.19999987069E+02 0.  0.
         12    1    1    2    0    0  0.37906745487E+02 -0.19469478636E+02 -0.82244494226E+01  0.43400731792E+02  0.00000000000E+00 0. -1.
         11    1    3    3    0    0 -0.82695952286E+01  0.23350976799E+01 -0.77029502220E-01  0.85933008923E+01  0.51100000000E-03 0. -1.
        -11    1    3    3    0    0 -0.22004019652E+02  0.13947943753E+02 -0.18279880135E+01  0.26116346533E+02  0.51100000000E-03 0.  1.
         12    1    3    3    0    0 -0.76331306064E+01  0.31864372026E+01  0.10129466938E+02  0.13077620783E+02  0.00000000000E+00 0. -1.
</event>
<event>
 7    1  0.1418970E-010  0.4778729E+02  0.7816164E-02  0.1312668E+00
        -11   -1    0    0    0    0  0.00000000000E+00  0.00000000000E+00  0.45593999997E+02  0.45594000000E+02  0.51100000000E-03 0.  1.
         11   -1    0    0    0    0 -0.00000000000E+00 -0.00000000000E+00 -0.45593999997E+02  0.45594000000E+02  0.51100000000E-03 0. -1.
    9900012    2    1    2    0    0  0.54444444389E+01  0.17938519585E+02  0.39143192116E+02  0.47787286306E+02  0.20000069581E+02 0.  0.
         12    1    1    2    0    0 -0.54444444389E+01 -0.17938519585E+02 -0.39143192116E+02  0.43400713694E+02  0.00000000000E+00 0. -1.
         11    1    3    3    0    0 -0.45181552703E+01  0.34571066584E+01  0.16710314926E+02  0.17652193594E+02  0.51100000000E-03 0. -1.
        -11    1    3    3    0    0  0.33192910936E+01  0.12200672933E+02  0.17334043518E+02  0.21455609484E+02  0.51100000000E-03 0.  1.
         12    1    3    3    0    0  0.66433086156E+01  0.22807399940E+01  0.50988336716E+01  0.86794832273E+01  0.00000000000E+00 0. -1.
</event>
<event>
 7    1  0.1418970E-010  0.4778727E+02  0.7816164E-02  0.1312668E+00
        -11   -1    0    0    0    0  0.00000000000E+00  0.00000000000E+00  0.45593999997E+02  0.45594000000E+02  0.51100000000E-03 0. -1.
         11   -1    0    0    0    0 -0.00000000000E+00 -0.00000000000E+00 -0.45593999997E+02  0.45594000000E+02  0.51100000000E-03 0.  1.
    9900012    2    1    2    0    0 -0.33870518518E+02 -0.20630848337E+02 -0.17628931546E+02  0.47787272411E+02  0.20000006232E+02 0.  0.
         12    1    1    2    0    0  0.33870518518E+02  0.20630848337E+02  0.17628931546E+02  0.43400727589E+02  0.00000000000E+00 0. -1.
         11    1    3    3    0    0 -0.19767048420E+02 -0.74449494711E+01 -0.80560354454E+01  0.22606706599E+02  0.51100000000E-03 0. -1.
        -11    1    3    3    0    0 -0.98853240861E+01 -0.12898614843E+02 -0.18236232740E+01  0.16352966070E+02  0.51100000000E-03 0.  1.
        -12    1    3    3    0    0 -0.42181460115E+01 -0.28728402226E+00 -0.77492728264E+01  0.88275997429E+01  0.00000000000E+00 0.  1.
</event>
<event>
 7    1  0.1418970E-010  0.4778721E+02  0.7816164E-02  0.1312668E+00
        -11   -1    0    0    0    0  0.00000000000E+00  0.00000000000E+00  0.45593999997E+02  0.45594000000E+02  0.51100000000E-03 0.  1.
         11   -1    0    0    0    0 -0.00000000000E+00 -0.00000000000E+00 -0.45593999997E+02  0.45594000000E+02  0.51100000000E-03 0. -1.
    9900012    2    1    2    0    0  0.27641082131E+02 -0.33412931554E+02 -0.17818081303E+01  0.47787213640E+02  0.19999738270E+02 0.  0.
         12    1    1    2    0    0 -0.27641082131E+02  0.33412931554E+02  0.17818081303E+01  0.43400786360E+02  0.00000000000E+00 0. -1.
         11    1    3    3    0    0  0.56726433074E+01 -0.12868921276E+02  0.32805185144E+01  0.14441254062E+02  0.51100000000E-03 0. -1.
        -11    1    3    3    0    0  0.21321082972E+02 -0.22112304986E+02 -0.32906276043E+01  0.30892893053E+02  0.51100000000E-03 0.  1.
         12    1    3    3    0    0  0.64735585211E+00  0.15682947075E+01 -0.17716990404E+01  0.24530665256E+01  0.00000000000E+00 0. -1.
</event>
<event>
 7    1  0.1418970E-010  0.4778728E+02  0.7816164E-02  0.1312668E+00
        -11   -1    0    0    0    0  0.00000000000E+00  0.00000000000E+00  0.45593999997E+02  0.45594000000E+02  0.51100000000E-03 0. -1.
         11   -1    0    0    0    0 -0.00000000000E+00 -0.00000000000E+00 -0.45593999997E+02  0.45594000000E+02  0.51100000000E-03 0.  1.
    9900012    2    1    2    0    0 -0.13937204079E+02  0.71915180908E+01 -0.40468002997E+02  0.47787275852E+02  0.20000021921E+02 0.  0.
         12    1    1    2    0    0  0.13937204079E+02 -0.71915180908E+01  0.40468002997E+02  0.43400724148E+02  0.00000000000E+00 0. -1.
         11    1    3    3    0    0 -0.63722841425E+00  0.50442678413E+01 -0.13739524849E+02  0.14650093564E+02  0.51100000000E-03 0. -1.
        -11    1    3    3    0    0 -0.13157260906E+02 -0.26699083978E+01 -0.24249114469E+02  0.27717530160E+02  0.51100000000E-03 0.  1.
         12    1    3    3    0    0 -0.14271475879E+00  0.48171586472E+01 -0.24793636791E+01  0.54196521279E+01  0.00000000000E+00 0. -1.
</event>
<event>
 7    1  0.1418970E-010  0.4778727E+02  0.7816164E-02  0.1312668E+00
        -11   -1    0    0    0    0  0.00000000000E+00  0.00000000000E+00  0.45593999997E+02  0.45594000000E+02  0.51100000000E-03 0.  1.
         11   -1    0    0    0    0 -0.00000000000E+00 -0.00000000000E+00 -0.45593999997E+02  0.45594000000E+02  0.51100000000E-03 0. -1.
    9900012    2    1    2    0    0 -0.17508077510E+01 -0.39884785011E+02  0.17022392951E+02  0.47787271147E+02  0.20000000470E+02 0.  0.
         12    1    1    2    0    0  0.17508077510E+01  0.39884785011E+02 -0.17022392951E+02  0.43400728853E+02  0.00000000000E+00 0. -1.
         11    1    3    3    0    0 -0.77244536682E+01 -0.18469940561E+02  0.15658201742E+02  0.25416238330E+02  0.51100000000E-03 0.  1.
        -11    1    3    3    0    0  0.32737764057E+01 -0.84158784162E+01  0.10487332815E+01  0.90909000229E+01  0.51100000000E-03 0. -1.
        -12    1    3    3    0    0  0.26998695116E+01 -0.12998966034E+02  0.31545792704E+00  0.13280132794E+02  0.00000000000E+00 0.  1.
</event>
<event>
 7    1  0.1418970E-010  0.4778726E+02  0.7816164E-02  0.1312668E+00
        -11   -1    0    0    0    0  0.00000000000E+00  0.00000000000E+00  0.45593999997E+02  0.45594000000E+02  0.51100000000E-03 0. -1.
         11   -1    0    0    0    0 -0.00000000000E+00 -0.00000000000E+00 -0.45593999997E+02  0.45594000000E+02  0.51100000000E-03 0.  1.
    9900012    2    1    2    0    0  0.34846438853E+02 -0.25322447260E+02  0.53031512936E+01  0.47787262107E+02  0.19999959252E+02 0.  0.
         12    1    1    2    0    0 -0.34846438853E+02  0.25322447260E+02 -0.53031512936E+01  0.43400737893E+02  0.00000000000E+00 0. -1.
         11    1    3    3    0    0  0.91987027878E+01 -0.16261045351E+02  0.73988448923E+00  0.18697196533E+02  0.51100000000E-03 0. -1.
        -11    1    3    3    0    0  0.54958387776E-01 -0.15417483932E+01  0.16467106336E+01  0.22564717380E+01  0.51100000000E-03 0.  1.
        -12    1    3    3    0    0  0.25592777678E+02 -0.75196535158E+01  0.29165561707E+01  0.26833593836E+02  0.00000000000E+00 0.  1.
</event>
<event>
 7    1  0.1418970E-010  0.4778729E+02  0.7816164E-02  0.1312668E+00
        -11   -1    0    0    0    0  0.00000000000E+00  0.00000000000E+00  0.45593999997E+02  0.45594000000E+02  0.51100000000E-03 0.  1.
         11   -1    0    0    0    0 -0.00000000000E+00 -0.00000000000E+00 -0.45593999997E+02  0.45594000000E+02  0.51100000000E-03 0. -1.
    9900012    2    1    2    0    0  0.21747850022E+02 -0.27799218295E+02  0.25255808325E+02  0.47787292948E+02  0.20000099869E+02 0.  0.
         12    1    1    2    0    0 -0.21747850022E+02  0.27799218295E+02 -0.25255808325E+02  0.43400707052E+02  0.00000000000E+00 0. -1.
         11    1    3    3    0    0  0.36423721533E+01 -0.95011729263E+01  0.18428411037E+02  0.21051021246E+02  0.51100000000E-03 0. -1.
        -11    1    3    3    0    0  0.49351627652E+01 -0.51889146963E+01  0.82476333024E+00  0.72083910866E+01  0.51100000000E-03 0.  1.
         12    1    3    3    0    0  0.13170315104E+02 -0.13109130672E+02  0.60026339578E+01  0.19527880616E+02  0.00000000000E+00 0. -1.
</event>
<event>
 7    1  0.1418970E-010  0.4778728E+02  0.7816164E-02  0.1312668E+00
        -11   -1    0    0    0    0  0.00000000000E+00  0.00000000000E+00  0.45593999997E+02  0.45594000000E+02  0.51100000000E-03 0. -1.
         11   -1    0    0    0    0 -0.00000000000E+00 -0.00000000000E+00 -0.45593999997E+02  0.45594000000E+02  0.51100000000E-03 0.  1.
    9900012    2    1    2    0    0 -0.17419196453E+02  0.39188861649E+02 -0.66653866002E+01  0.47787278106E+02  0.20000032196E+02 0.  0.
         12    1    1    2    0    0  0.17419196453E+02 -0.39188861649E+02  0.66653866002E+01  0.43400721894E+02  0.00000000000E+00 0. -1.
         11    1    3    3    0    0 -0.53910467344E+01  0.45304907048E+01  0.27852783912E+01  0.75727476451E+01  0.51100000000E-03 0. -1.
        -11    1    3    3    0    0 -0.10496075470E+02  0.16294324282E+02  0.26138713974E+00  0.19384037958E+02  0.51100000000E-03 0.  1.
         12    1    3    3    0    0 -0.15320742492E+01  0.18364046662E+02 -0.97120521311E+01  0.20830492502E+02  0.00000000000E+00 0. -1.
</event>
<event>
 7    1  0.1418970E-010  0.4778727E+02  0.7816164E-02  0.1312668E+00
        -11   -1    0    0    0    0  0.00000000000E+00  0.00000000000E+00  0.45593999997E+02  0.45594000000E+02  0.51100000000E-03 0.  1.
         11   -1    0    0    0    0 -0.00000000000E+00 -0.00000000000E+00 -0.45593999997E+02  0.45594000000E+02  0.51100000000E-03 0. -1.
    9900012    2    1    2    0    0  0.21935735828E+02 -0.72741910833E+01  0.36735988935E+02  0.47787271374E+02  0.20000001503E+02 0.  0.
         12    1    1    2    0    0 -0.21935735828E+02  0.72741910833E+01 -0.36735988935E+02  0.43400728626E+02  0.00000000000E+00 0. -1.
         11    1    3    3    0    0 -0.21824063445E+01 -0.34346715146E+00  0.35707477532E+01  0.41989411659E+01  0.51100000000E-03 0.  1.
        -11    1    3    3    0    0  0.11607767805E+02 -0.85270001212E+01  0.11142556759E+02  0.18210067981E+02  0.51100000000E-03 0. -1.
        -12    1    3    3    0    0  0.12510374368E+02  0.15962761894E+01  0.22022684423E+02  0.25378262227E+02  0.00000000000E+00 0.  1.
</event>
<event>
 7    1  0.1418970E-010  0.4778727E+02  0.7816164E-02  0.1312668E+00
        -11   -1    0    0    0    0  0.00000000000E+00  0.00000000000E+00  0.45593999997E+02  0.45594000000E+02  0.51100000000E-03 0.  1.
         11   -1    0    0    0    0 -0.00000000000E+00 -0.00000000000E+00 -0.45593999997E+02  0.45594000000E+02  0.51100000000E-03 0. -1.
    9900012    2    1    2    0    0 -0.11657011749E+02 -0.22033813949E+02  0.35528136353E+02  0.47787270135E+02  0.19999995855E+02 0.  0.
         12    1    1    2    0    0  0.11657011749E+02  0.22033813949E+02 -0.35528136353E+02  0.43400729865E+02  0.00000000000E+00 0. -1.
         11    1    3    3    0    0 -0.38281002635E+01 -0.65943273469E+01  0.26491623638E+02  0.27567111348E+02  0.51100000000E-03 0. -1.
        -11    1    3    3    0    0 -0.26096113105E+01 -0.25526128822E+01  0.23208283361E-01  0.36505400428E+01  0.51100000000E-03 0.  1.
        -12    1    3    3    0    0 -0.52193001748E+01 -0.12886873720E+02  0.90133044315E+01  0.16569618745E+02  0.00000000000E+00 0.  1.
</event>
<event>
 7    1  0.1418970E-010  0.4778727E+02  0.7816164E-02  0.1312668E+00
        -11   -1    0    0    0    0  0.00000000000E+00  0.00000000000E+00  0.45593999997E+02  0.45594000000E+02  0.51100000000E-03 0. -1.
         11   -1    0    0    0    0 -0.00000000000E+00 -0.00000000000E+00 -0.45593999997E+02  0.45594000000E+02  0.51100000000E-03 0.  1.
    9900012    2    1    2    0    0 -0.29773494979E+01  0.60656379508E+01 -0.42871512485E+02  0.47787272396E+02  0.20000006161E+02 0.  0.
         12    1    1    2    0    0  0.29773494979E+01 -0.60656379508E+01  0.42871512485E+02  0.43400727604E+02  0.00000000000E+00 0. -1.
         11    1    3    3    0    0  0.50978423981E+01  0.21446278598E+01 -0.18539121670E+02  0.19346484392E+02  0.51100000000E-03 0. -1.
        -11    1    3    3    0    0 -0.15747597689E+00 -0.81016110993E+00 -0.15968239269E+02  0.15989553631E+02  0.51100000000E-03 0.  1.
         12    1    3    3    0    0 -0.79177159191E+01  0.47311712010E+01 -0.83641515460E+01  0.12451234372E+02  0.00000000000E+00 0. -1.
</event>
<event>
 7    1  0.1418970E-010  0.4778728E+02  0.7816164E-02  0.1312668E+00
        -11   -1    0    0    0    0  0.00000000000E+00  0.00000000000E+00  0.45593999997E+02  0.45594000000E+02  0.51100000000E-03 0.  1.
         11   -1    0    0    0    0 -0.00000000000E+00 -0.00000000000E+00 -0.45593999997E+02  0.45594000000E+02  0.51100000000E-03 0. -1.
    9900012    2    1    2    0    0  0.33766748847E+02  0.94119397311E+01  0.25589938803E+02  0.47787275292E+02  0.20000019367E+02 0.  0.
         12    1    1    2    0    0 -0.33766748847E+02 -0.94119397311E+01 -0.25589938803E+02  0.43400724708E+02  0.00000000000E+00 0. -1.
         11    1    3    3    0    0  0.14725208333E+02  0.10081941350E+02  0.66820977144E+01  0.19055910683E+02  0.51100000000E-03 0. -1.
        -11    1    3    3    0    0 -0.36859991337E+00  0.33298495044E+00  0.45253715121E+01  0.45525523014E+01  0.51100000000E-03 0.  1.
        -12    1    3    3    0    0  0.19410140428E+02 -0.10029865698E+01  0.14382469577E+02  0.24178812308E+02  0.00000000000E+00 0.  1.
</event>
<event>
 7    1  0.1418970E-010  0.4778727E+02  0.7816164E-02  0.1312668E+00
        -11   -1    0    0    0    0  0.00000000000E+00  0.00000000000E+00  0.45593999997E+02  0.45594000000E+02  0.51100000000E-03 0.  1.
         11   -1    0    0    0    0 -0.00000000000E+00 -0.00000000000E+00 -0.45593999997E+02  0.45594000000E+02  0.51100000000E-03 0. -1.
    9900012    2    1    2    0    0  0.29719656786E+02 -0.15345753675E+02  0.27656343214E+02  0.47787268724E+02  0.19999989418E+02 0.  0.
         12    1    1    2    0    0 -0.29719656786E+02  0.15345753675E+02 -0.27656343214E+02  0.43400731276E+02  0.00000000000E+00 0. -1.
         11    1    3    3    0    0  0.21600239448E+02 -0.85297542079E+01  0.68383365641E+01  0.24209293635E+02  0.51100000000E-03 0. -1.
        -11    1    3    3    0    0  0.35667711266E+01 -0.42067751915E+01  0.78988548221E+01  0.96338321318E+01  0.51100000000E-03 0.  1.
         12    1    3    3    0    0  0.45526462116E+01 -0.26092242751E+01  0.12919151828E+02  0.13944142957E+02  0.00000000000E+00 0. -1.
</event>
<event>
 7    1  0.1418970E-010  0.4778727E+02  0.7816164E-02  0.1312668E+00
        -11   -1    0    0    0    0  0.00000000000E+00  0.00000000000E+00  0.45593999997E+02  0.45594000000E+02  0.51100000000E-03 0.  1.
         11   -1    0    0    0    0 -0.00000000000E+00 -0.00000000000E+00 -0.45593999997E+02  0.45594000000E+02  0.51100000000E-03 0. -1.
    9900012    2    1    2    0    0  0.31175610538E+02  0.30186231358E+02 -0.70427118744E+00  0.47787271275E+02  0.20000001050E+02 0.  0.
         12    1    1    2    0    0 -0.31175610538E+02 -0.30186231358E+02  0.70427118744E+00  0.43400728725E+02  0.00000000000E+00 0. -1.
         11    1    3    3    0    0  0.64191630050E+01  0.99722056907E+01 -0.56752919316E+01  0.13147603538E+02  0.51100000000E-03 0. -1.
        -11    1    3    3    0    0  0.22203523609E+02  0.21008720844E+02  0.19853184382E+01  0.30631753161E+02  0.51100000000E-03 0.  1.
        -12    1    3    3    0    0  0.25529239239E+01 -0.79469517734E+00  0.29857023059E+01  0.40079145756E+01  0.00000000000E+00 0.  1.
</event>
<event>
 7    1  0.1418970E-010  0.4778727E+02  0.7816164E-02  0.1312668E+00
        -11   -1    0    0    0    0  0.00000000000E+00  0.00000000000E+00  0.45593999997E+02  0.45594000000E+02  0.51100000000E-03 0.  1.
         11   -1    0    0    0    0 -0.00000000000E+00 -0.00000000000E+00 -0.45593999997E+02  0.45594000000E+02  0.51100000000E-03 0. -1.
    9900012    2    1    2    0    0  0.31654923527E+02 -0.27569107012E+02  0.11024211015E+02  0.47787273354E+02  0.20000010528E+02 0.  0.
         12    1    1    2    0    0 -0.31654923527E+02  0.27569107012E+02 -0.11024211015E+02  0.43400726646E+02  0.00000000000E+00 0. -1.
         11    1    3    3    0    0  0.35655939428E+01 -0.57626241081E+01 -0.22483406352E+01  0.71397711902E+01  0.51100000000E-03 0.  1.
        -11    1    3    3    0    0  0.69296249386E+01 -0.99559969112E+01 -0.15431096525E+01  0.12227950112E+02  0.51100000000E-03 0. -1.
        -12    1    3    3    0    0  0.21159704645E+02 -0.11850485993E+02  0.14815661303E+02  0.28419552051E+02  0.00000000000E+00 0.  1.
</event>
<event>
 7    1  0.1418970E-010  0.4778727E+02  0.7816164E-02  0.1312668E+00
        -11   -1    0    0    0    0  0.00000000000E+00  0.00000000000E+00  0.45593999997E+02  0.45594000000E+02  0.51100000000E-03 0.  1.
         11   -1    0    0    0    0 -0.00000000000E+00 -0.00000000000E+00 -0.45593999997E+02  0.45594000000E+02  0.51100000000E-03 0. -1.
    9900012    2    1    2    0    0  0.18547563876E+02  0.12620991849E+02  0.37152681157E+02  0.47787270995E+02  0.19999999777E+02 0.  0.
         12    1    1    2    0    0 -0.18547563876E+02 -0.12620991849E+02 -0.37152681157E+02  0.43400729005E+02  0.00000000000E+00 0. -1.
         11    1    3    3    0    0 -0.13095457291E+01  0.54126394417E+01  0.87386566485E+01  0.10362224473E+02  0.51100000000E-03 0. -1.
        -11    1    3    3    0    0  0.14865302130E+02 -0.83672813001E+00  0.17489750033E+02  0.22968863225E+02  0.51100000000E-03 0.  1.
         12    1    3    3    0    0  0.49918074750E+01  0.80450805371E+01  0.10924274475E+02  0.14456183297E+02  0.00000000000E+00 0. -1.
</event>
<event>
 7    1  0.1418970E-010  0.4778727E+02  0.7816164E-02  0.1312668E+00
        -11   -1    0    0    0    0  0.00000000000E+00  0.00000000000E+00  0.45593999997E+02  0.45594000000E+02  0.51100000000E-03 0.  1.
         11   -1    0    0    0    0 -0.00000000000E+00 -0.00000000000E+00 -0.45593999997E+02  0.45594000000E+02  0.51100000000E-03 0. -1.
    9900012    2    1    2    0    0 -0.33364969440E+02 -0.20008428021E+02 -0.19237068804E+02  0.47787271967E+02  0.20000004207E+02 0.  0.
         12    1    1    2    0    0  0.33364969440E+02  0.20008428021E+02  0.19237068804E+02  0.43400728033E+02  0.00000000000E+00 0. -1.
         11    1    3    3    0    0  0.39298868768E+00 -0.21575301613E+00  0.12462480718E+01  0.13244334601E+01  0.51100000000E-03 0. -1.
        -11    1    3    3    0    0 -0.23628613587E+02 -0.13207380599E+02 -0.62282358169E+01  0.27776558534E+02  0.51100000000E-03 0.  1.
         12    1    3    3    0    0 -0.10129344541E+02 -0.65852944059E+01 -0.14255081059E+02  0.18686279973E+02  0.00000000000E+00 0. -1.
</event>
<event>
 7    1  0.1418970E-010  0.4778727E+02  0.7816164E-02  0.1312668E+00
        -11   -1    0    0    0    0  0.00000000000E+00  0.00000000000E+00  0.45593999997E+02  0.45594000000E+02  0.51100000000E-03 0.  1.
         11   -1    0    0    0    0 -0.00000000000E+00 -0.00000000000E+00 -0.45593999997E+02  0.45594000000E+02  0.51100000000E-03 0. -1.
    9900012    2    1    2    0    0  0.71026817537E+01  0.42588390261E+02 -0.44050037601E+01  0.47787272687E+02  0.20000007491E+02 0.  0.
         12    1    1    2    0    0 -0.71026817537E+01 -0.42588390261E+02  0.44050037601E+01  0.43400727313E+02  0.00000000000E+00 0. -1.
         11    1    3    3    0    0  0.53195603209E+01  0.18454802517E+02 -0.12003853439E+01  0.19243658259E+02  0.51100000000E-03 0. -1.
        -11    1    3    3    0    0  0.35767978277E+01  0.25196199309E+02 -0.94098067876E+00  0.25466200879E+02  0.51100000000E-03 0.  1.
        -12    1    3    3    0    0 -0.17936763949E+01 -0.10626115649E+01 -0.22636377374E+01  0.30774135493E+01  0.00000000000E+00 0.  1.
</event>
<event>
 7    1  0.1418970E-010  0.4778727E+02  0.7816164E-02  0.1312668E+00
        -11   -1    0    0    0    0  0.00000000000E+00  0.00000000000E+00  0.45593999997E+02  0.45594000000E+02  0.51100000000E-03 0. -1.
         11   -1    0    0    0    0 -0.00000000000E+00 -0.00000000000E+00 -0.45593999997E+02  0.45594000000E+02  0.51100000000E-03 0.  1.
    9900012    2    1    2    0    0 -0.23749130926E+02 -0.32550464584E+02 -0.16126665450E+02  0.47787270710E+02  0.19999998474E+02 0.  0.
         12    1    1    2    0    0  0.23749130926E+02  0.32550464584E+02  0.16126665450E+02  0.43400729290E+02  0.00000000000E+00 0. -1.
         11    1    3    3    0    0 -0.77272840205E+01 -0.13078559176E+01 -0.71742286498E+01  0.10625015878E+02  0.51100000000E-03 0. -1.
        -11    1    3    3    0    0 -0.72808754889E+01 -0.17483821302E+02 -0.87440773390E+01  0.20860346209E+02  0.51100000000E-03 0.  1.
         12    1    3    3    0    0 -0.87409714166E+01 -0.13758787365E+02 -0.20835946095E+00  0.16301908622E+02  0.00000000000E+00 0. -1.
</event>
<event>
 7    1  0.1418970E-010  0.4778727E+02  0.7816164E-02  0.1312668E+00
        -11   -1    0    0    0    0  0.00000000000E+00  0.00000000000E+00  0.45593999997E+02  0.45594000000E+02  0.51100000000E-03 0. -1.
         11   -1    0    0    0    0 -0.00000000000E+00 -0.00000000000E+00 -0.45593999997E+02  0.45594000000E+02  0.51100000000E-03 0.  1.
    9900012    2    1    2    0    0 -0.81634190443E+01  0.35968280235E+02 -0.22874979763E+02  0.47787270828E+02  0.19999999011E+02 0.  0.
         12    1    1    2    0    0  0.81634190443E+01 -0.35968280235E+02  0.22874979763E+02  0.43400729172E+02  0.00000000000E+00 0. -1.
         11    1    3    3    0    0 -0.25943348137E+01  0.79925965065E+01 -0.10715328612E+02  0.13617284589E+02  0.51100000000E-03 0. -1.
        -11    1    3    3    0    0 -0.79372503963E+01  0.28312801985E+02 -0.10358000251E+02  0.31175356767E+02  0.51100000000E-03 0.  1.
         12    1    3    3    0    0  0.23681661657E+01 -0.33711825679E+00 -0.18016509001E+01  0.29946294718E+01  0.00000000000E+00 0. -1.
</event>
<event>
 7    1  0.1418970E-010  0.4778727E+02  0.7816164E-02  0.1312668E+00
        -11   -1    0    0    0    0  0.00000000000E+00  0.00000000000E+00  0.45593999997E+02  0.45594000000E+02  0.51100000000E-03 0.  1.
         11   -1    0    0    0    0 -0.00000000000E+00 -0.00000000000E+00 -0.45593999997E+02  0.45594000000E+02  0.51100000000E-03 0. -1.
    9900012    2    1    2    0    0  0.29013033289E+01  0.19080380444E+02  0.38873449149E+02  0.47787268121E+02  0.19999986671E+02 0.  0.
         12    1    1    2    0    0 -0.29013033289E+01 -0.19080380444E+02 -0.38873449149E+02  0.43400731879E+02  0.00000000000E+00 0. -1.
         11    1    3    3    0    0  0.13774514762E+01 -0.18342554151E+01  0.14648208414E+01  0.27216843784E+01  0.51100000000E-03 0. -1.
        -11    1    3    3    0    0  0.55808855198E+00  0.11148664304E+02  0.31932822179E+02  0.33827641230E+02  0.51100000000E-03 0.  1.
        -12    1    3    3    0    0  0.96576330070E+00  0.97659715551E+01  0.54758061289E+01  0.11237942513E+02  0.00000000000E+00 0.  1.
</event>
<event>
 7    1  0.1418970E-010  0.4778727E+02  0.7816164E-02  0.1312668E+00
        -11   -1    0    0    0    0  0.00000000000E+00  0.00000000000E+00  0.45593999997E+02  0.45594000000E+02  0.51100000000E-03 0.  1.
         11   -1    0    0    0    0 -0.00000000000E+00 -0.00000000000E+00 -0.45593999997E+02  0.45594000000E+02  0.51100000000E-03 0. -1.
    9900012    2    1    2    0    0 -0.38706044929E+02  0.74847340879E+01  0.18150591531E+02  0.47787272686E+02  0.20000007486E+02 0.  0.
         12    1    1    2    0    0  0.38706044929E+02 -0.74847340879E+01 -0.18150591531E+02  0.43400727314E+02  0.00000000000E+00 0. -1.
         11    1    3    3    0    0 -0.13661300540E+02 -0.54473208116E+01  0.45552973469E+01  0.15396596073E+02  0.51100000000E-03 0. -1.
        -11    1    3    3    0    0  0.25315397203E+00 -0.43529958377E+00 -0.29632577610E+00  0.58427894699E+00  0.51100000000E-03 0.  1.
        -12    1    3    3    0    0 -0.25297898362E+02  0.13367354483E+02  0.13891619960E+02  0.31806397666E+02  0.00000000000E+00 0.  1.
</event>
<event>
 7    1  0.1418970E-010  0.4778726E+02  0.7816164E-02  0.1312668E+00
        -11   -1    0    0    0    0  0.00000000000E+00  0.00000000000E+00  0.45593999997E+02  0.45594000000E+02  0.51100000000E-03 0.  1.
         11   -1    0    0    0    0 -0.00000000000E+00 -0.00000000000E+00 -0.45593999997E+02  0.45594000000E+02  0.51100000000E-03 0. -1.
    9900012    2    1    2    0    0 -0.12123221687E+02  0.35546630932E+02  0.21750600529E+02  0.47787261550E+02  0.19999956709E+02 0.  0.
         12    1    1    2    0    0  0.12123221687E+02 -0.35546630932E+02 -0.21750600529E+02  0.43400738450E+02  0.00000000000E+00 0. -1.
         11    1    3    3    0    0 -0.23003027667E+01  0.14574906767E+02  0.12459683962E+02  0.19312250639E+02  0.51100000000E-03 0. -1.
        -11    1    3    3    0    0 -0.11598384699E+02  0.21479669651E+02  0.67374472475E+01  0.25323742449E+02  0.51100000000E-03 0.  1.
         12    1    3    3    0    0  0.17754657788E+01 -0.50794548583E+00  0.25534693200E+01  0.31512684615E+01  0.00000000000E+00 0. -1.
</event>
<event>
 7    1  0.1418970E-010  0.4778727E+02  0.7816164E-02  0.1312668E+00
        -11   -1    0    0    0    0  0.00000000000E+00  0.00000000000E+00  0.45593999997E+02  0.45594000000E+02  0.51100000000E-03 0.  1.
         11   -1    0    0    0    0 -0.00000000000E+00 -0.00000000000E+00 -0.45593999997E+02  0.45594000000E+02  0.51100000000E-03 0. -1.
    9900012    2    1    2    0    0 -0.28411082334E+02 -0.85017066026E+01  0.31688403226E+02  0.47787268283E+02  0.19999987411E+02 0.  0.
         12    1    1    2    0    0  0.28411082334E+02  0.85017066026E+01 -0.31688403226E+02  0.43400731717E+02  0.00000000000E+00 0. -1.
         11    1    3    3    0    0 -0.13422216488E+02 -0.22965165652E+01  0.42703770404E+01  0.14271159872E+02  0.51100000000E-03 0. -1.
        -11    1    3    3    0    0 -0.12397452848E+02 -0.88890200170E+01  0.19456402725E+02  0.24723735989E+02  0.51100000000E-03 0.  1.
        -12    1    3    3    0    0 -0.25914129986E+01  0.26838299796E+01  0.79616234604E+01  0.87923724224E+01  0.00000000000E+00 0.  1.
</event>
<event>
 7    1  0.1418970E-010  0.4778727E+02  0.7816164E-02  0.1312668E+00
        -11   -1    0    0    0    0  0.00000000000E+00  0.00000000000E+00  0.45593999997E+02  0.45594000000E+02  0.51100000000E-03 0. -1.
         11   -1    0    0    0    0 -0.00000000000E+00 -0.00000000000E+00 -0.45593999997E+02  0.45594000000E+02  0.51100000000E-03 0.  1.
    9900012    2    1    2    0    0  0.36045142160E+02  0.22053258033E+02 -0.99007463229E+01  0.47787271423E+02  0.20000001728E+02 0.  0.
         12    1    1    2    0    0 -0.36045142160E+02 -0.22053258033E+02  0.99007463229E+01  0.43400728577E+02  0.00000000000E+00 0. -1.
         11    1    3    3    0    0  0.10950521116E+01  0.34303303369E+01  0.11190146173E+01  0.37707425426E+01  0.51100000000E-03 0. -1.
        -11    1    3    3    0    0  0.31422582102E+02  0.18656417371E+02 -0.14259223238E+02  0.39227108263E+02  0.51100000000E-03 0.  1.
        -12    1    3    3    0    0  0.35275079467E+01 -0.33489675216E-01  0.32394622979E+01  0.47894206175E+01  0.00000000000E+00 0.  1.
</event>
<event>
 7    1  0.1418970E-010  0.4778727E+02  0.7816164E-02  0.1312668E+00
        -11   -1    0    0    0    0  0.00000000000E+00  0.00000000000E+00  0.45593999997E+02  0.45594000000E+02  0.51100000000E-03 0.  1.
         11   -1    0    0    0    0 -0.00000000000E+00 -0.00000000000E+00 -0.45593999997E+02  0.45594000000E+02  0.51100000000E-03 0. -1.
    9900012    2    1    2    0    0 -0.27442393540E+02  0.30880913816E+02 -0.13300672888E+02  0.47787266128E+02  0.19999977583E+02 0.  0.
         12    1    1    2    0    0  0.27442393540E+02 -0.30880913816E+02  0.13300672888E+02  0.43400733872E+02  0.00000000000E+00 0. -1.
         11    1    3    3    0    0 -0.27032745577E+01  0.38363053608E+01 -0.90535034443E+01  0.10197590746E+02  0.51100000000E-03 0. -1.
        -11    1    3    3    0    0 -0.82209780453E+01  0.10426205003E+02  0.17787197908E+01  0.13396046997E+02  0.51100000000E-03 0.  1.
        -12    1    3    3    0    0 -0.16518140937E+02  0.16618403453E+02 -0.60258892350E+01  0.24193628385E+02  0.00000000000E+00 0.  1.
</event>
<event>
 7    1  0.1418970E-010  0.4778728E+02  0.7816164E-02  0.1312668E+00
        -11   -1    0    0    0    0  0.00000000000E+00  0.00000000000E+00  0.45593999997E+02  0.45594000000E+02  0.51100000000E-03 0.  1.
         11   -1    0    0    0    0 -0.00000000000E+00 -0.00000000000E+00 -0.45593999997E+02  0.45594000000E+02  0.51100000000E-03 0. -1.
    9900012    2    1    2    0    0  0.28215328924E+02  0.32943134069E+02 -0.15059796788E+01  0.47787276004E+02  0.20000022612E+02 0.  0.
         12    1    1    2    0    0 -0.28215328924E+02 -0.32943134069E+02  0.15059796788E+01  0.43400723996E+02  0.00000000000E+00 0. -1.
         11    1    3    3    0    0  0.23135980081E+02  0.24527173958E+02  0.35030641253E+01  0.33898780144E+02  0.51100000000E-03 0.  1.
        -11    1    3    3    0    0  0.64304008834E+01  0.28651651224E+01 -0.39694780373E+01  0.80818304145E+01  0.51100000000E-03 0. -1.
        -12    1    3    3    0    0 -0.13510520401E+01  0.55507949880E+01 -0.10395657669E+01  0.58066654457E+01  0.00000000000E+00 0.  1.
</event>
<event>
 7    1  0.1418970E-010  0.4778727E+02  0.7816164E-02  0.1312668E+00
        -11   -1    0    0    0    0  0.00000000000E+00  0.00000000000E+00  0.45593999997E+02  0.45594000000E+02  0.51100000000E-03 0.  1.
         11   -1    0    0    0    0 -0.00000000000E+00 -0.00000000000E+00 -0.45593999997E+02  0.45594000000E+02  0.51100000000E-03 0. -1.
    9900012    2    1    2    0    0  0.23625117409E+02 -0.29469747542E+02  0.21377824447E+02  0.47787267623E+02  0.19999984400E+02 0.  0.
         12    1    1    2    0    0 -0.23625117409E+02  0.29469747542E+02 -0.21377824447E+02  0.43400732377E+02  0.00000000000E+00 0. -1.
         11    1    3    3    0    0  0.15570551503E+02 -0.19990939945E+02  0.14169335158E+02  0.29031875810E+02  0.51100000000E-03 0. -1.
        -11    1    3    3    0    0  0.81460536226E+01 -0.45428986344E+01  0.94994243580E+01  0.13312970406E+02  0.51100000000E-03 0.  1.
         12    1    3    3    0    0 -0.91487715988E-01 -0.49359089623E+01 -0.22909350685E+01  0.54424214073E+01  0.00000000000E+00 0. -1.
</event>
<event>
 7    1  0.1664591E-010  0.4778728E+02  0.7816164E-02  0.1312668E+00
        -11   -1    0    0    0    0  0.00000000000E+00  0.00000000000E+00  0.45593999997E+02  0.45594000000E+02  0.51100000000E-03 0.  1.
         11   -1    0    0    0    0 -0.00000000000E+00 -0.00000000000E+00 -0.45593999997E+02  0.45594000000E+02  0.51100000000E-03 0. -1.
    9900012    2    1    2    0    0 -0.27295320343E+02 -0.29687701321E+02  0.16038354149E+02  0.47787275050E+02  0.20000018264E+02 0.  0.
         12    1    1    2    0    0  0.27295320343E+02  0.29687701321E+02 -0.16038354149E+02  0.43400724950E+02  0.00000000000E+00 0. -1.
         11    1    3    3    0    0 -0.21110694779E+01  0.38306877707E+00  0.51239934599E+01  0.55550576295E+01  0.51100000000E-03 0. -1.
        -11    1    3    3    0    0 -0.72736851246E+01 -0.14175872954E+02  0.42032435507E-01  0.15933098766E+02  0.51100000000E-03 0.  1.
        -12    1    3    3    0    0 -0.17910565741E+02 -0.15894897144E+02  0.10872328253E+02  0.26299118655E+02  0.00000000000E+00 0.  1.
</event>
<event>
 7    1  0.1418970E-010  0.4778727E+02  0.7816164E-02  0.1312668E+00
        -11   -1    0    0    0    0  0.00000000000E+00  0.00000000000E+00  0.45593999997E+02  0.45594000000E+02  0.51100000000E-03 0.  1.
         11   -1    0    0    0    0 -0.00000000000E+00 -0.00000000000E+00 -0.45593999997E+02  0.45594000000E+02  0.51100000000E-03 0. -1.
    9900012    2    1    2    0    0 -0.34667642932E+02  0.76001754909E+01  0.24980293945E+02  0.47787271671E+02  0.20000002857E+02 0.  0.
         12    1    1    2    0    0  0.34667642932E+02 -0.76001754909E+01 -0.24980293945E+02  0.43400728329E+02  0.00000000000E+00 0. -1.
         11    1    3    3    0    0  0.90036227631E+00  0.11109119063E+00  0.41442072540E+01  0.42423398622E+01  0.51100000000E-03 0. -1.
        -11    1    3    3    0    0 -0.22590585194E+02  0.92537022790E+01  0.17479006800E+02  0.30024676922E+02  0.51100000000E-03 0.  1.
         12    1    3    3    0    0 -0.12977420014E+02 -0.17646179787E+01  0.33570798911E+01  0.13520254887E+02  0.00000000000E+00 0. -1.
</event>
<event>
 7    1  0.1418970E-010  0.4778727E+02  0.7816164E-02  0.1312668E+00
        -11   -1    0    0    0    0  0.00000000000E+00  0.00000000000E+00  0.45593999997E+02  0.45594000000E+02  0.51100000000E-03 0.  1.
         11   -1    0    0    0    0 -0.00000000000E+00 -0.00000000000E+00 -0.45593999997E+02  0.45594000000E+02  0.51100000000E-03 0. -1.
    9900012    2    1    2    0    0  0.73591680622E+01 -0.39053178038E+02  0.17444645234E+02  0.47787265942E+02  0.19999976734E+02 0.  0.
         12    1    1    2    0    0 -0.73591680622E+01  0.39053178038E+02 -0.17444645234E+02  0.43400734058E+02  0.00000000000E+00 0. -1.
         11    1    3    3    0    0 -0.12881458988E+01 -0.13663669596E+02  0.54140069043E+01  0.14753530347E+02  0.51100000000E-03 0. -1.
        -11    1    3    3    0    0 -0.86758566701E+00 -0.14056151949E+02  0.11574123382E+02  0.18228780672E+02  0.51100000000E-03 0.  1.
        -12    1    3    3    0    0  0.95148996280E+01 -0.11333356493E+02  0.45651494850E+00  0.14804954922E+02  0.00000000000E+00 0.  1.
</event>
<event>
 7    1  0.1418970E-010  0.4778727E+02  0.7816164E-02  0.1312668E+00
        -11   -1    0    0    0    0  0.00000000000E+00  0.00000000000E+00  0.45593999997E+02  0.45594000000E+02  0.51100000000E-03 0. -1.
         11   -1    0    0    0    0 -0.00000000000E+00 -0.00000000000E+00 -0.45593999997E+02  0.45594000000E+02  0.51100000000E-03 0.  1.
    9900012    2    1    2    0    0  0.25995323539E+02  0.34303859546E+02  0.55777908116E+01  0.47787269868E+02  0.19999994636E+02 0.  0.
         12    1    1    2    0    0 -0.25995323539E+02 -0.34303859546E+02 -0.55777908116E+01  0.43400730132E+02  0.00000000000E+00 0. -1.
         11    1    3    3    0    0  0.10227727407E+02  0.95346693258E+01  0.26130041546E+01  0.14224771283E+02  0.51100000000E-03 0. -1.
        -11    1    3    3    0    0  0.12171632971E+02  0.50317622669E+01 -0.60710031014E+00  0.13184682466E+02  0.51100000000E-03 0.  1.
         12    1    3    3    0    0  0.35959631609E+01  0.19737427954E+02  0.35718869671E+01  0.20377816119E+02  0.00000000000E+00 0. -1.
</event>
<event>
 7    1  0.1418970E-010  0.4778726E+02  0.7816164E-02  0.1312668E+00
        -11   -1    0    0    0    0  0.00000000000E+00  0.00000000000E+00  0.45593999997E+02  0.45594000000E+02  0.51100000000E-03 0.  1.
         11   -1    0    0    0    0 -0.00000000000E+00 -0.00000000000E+00 -0.45593999997E+02  0.45594000000E+02  0.51100000000E-03 0. -1.
    9900012    2    1    2    0    0  0.17147612267E+02 -0.21922747500E+02  0.33301296824E+02  0.47787264585E+02  0.19999970549E+02 0.  0.
         12    1    1    2    0    0 -0.17147612267E+02  0.21922747500E+02 -0.33301296824E+02  0.43400735415E+02  0.00000000000E+00 0. -1.
         11    1    3    3    0    0  0.53331866929E+00 -0.94480236799E+01  0.73065329570E+01  0.11955542831E+02  0.51100000000E-03 0.  1.
        -11    1    3    3    0    0  0.10138131431E+02 -0.10428330120E-01  0.75153706742E+01  0.12619929251E+02  0.51100000000E-03 0. -1.
         12    1    3    3    0    0  0.64761621667E+01 -0.12464295490E+02  0.18479393193E+02  0.23211792504E+02  0.00000000000E+00 0. -1.
</event>
<event>
 7    1  0.1418970E-010  0.4778727E+02  0.7816164E-02  0.1312668E+00
        -11   -1    0    0    0    0  0.00000000000E+00  0.00000000000E+00  0.45593999997E+02  0.45594000000E+02  0.51100000000E-03 0. -1.
         11   -1    0    0    0    0 -0.00000000000E+00 -0.00000000000E+00 -0.45593999997E+02  0.45594000000E+02  0.51100000000E-03 0.  1.
    9900012    2    1    2    0    0 -0.19701872399E+02 -0.37807344961E+02 -0.81279919247E+01  0.47787270032E+02  0.19999995383E+02 0.  0.
         12    1    1    2    0    0  0.19701872399E+02  0.37807344961E+02  0.81279919247E+01  0.43400729968E+02  0.00000000000E+00 0. -1.
         11    1    3    3    0    0 -0.78241996585E+01 -0.35555573695E+01 -0.26173756694E+01  0.89839158589E+01  0.51100000000E-03 0. -1.
        -11    1    3    3    0    0 -0.42641127027E+00 -0.11522838474E+02  0.30920212158E+01  0.11938099871E+02  0.51100000000E-03 0.  1.
         12    1    3    3    0    0 -0.11451261470E+02 -0.22728949118E+02 -0.86026374711E+01  0.26865254302E+02  0.00000000000E+00 0. -1.
</event>
<event>
 7    1  0.1418970E-010  0.4778727E+02  0.7816164E-02  0.1312668E+00
        -11   -1    0    0    0    0  0.00000000000E+00  0.00000000000E+00  0.45593999997E+02  0.45594000000E+02  0.51100000000E-03 0. -1.
         11   -1    0    0    0    0 -0.00000000000E+00 -0.00000000000E+00 -0.45593999997E+02  0.45594000000E+02  0.51100000000E-03 0.  1.
    9900012    2    1    2    0    0 -0.40996214531E+02 -0.50075811585E+01 -0.13336331412E+02  0.47787271775E+02  0.20000003331E+02 0.  0.
         12    1    1    2    0    0  0.40996214531E+02  0.50075811585E+01  0.13336331412E+02  0.43400728225E+02  0.00000000000E+00 0. -1.
         11    1    3    3    0    0 -0.13329781420E+02 -0.41450062554E+01  0.31316745256E+01  0.14306345975E+02  0.51100000000E-03 0. -1.
        -11    1    3    3    0    0 -0.18730909859E+02 -0.46464959461E+01 -0.93361792538E+01  0.21438310382E+02  0.51100000000E-03 0.  1.
        -12    1    3    3    0    0 -0.89355232519E+01  0.37839210430E+01 -0.71318266841E+01  0.12042615418E+02  0.00000000000E+00 0.  1.
</event>
<event>
 7    1  0.1418970E-010  0.4778727E+02  0.7816164E-02  0.1312668E+00
        -11   -1    0    0    0    0  0.00000000000E+00  0.00000000000E+00  0.45593999997E+02  0.45594000000E+02  0.51100000000E-03 0. -1.
         11   -1    0    0    0    0 -0.00000000000E+00 -0.00000000000E+00 -0.45593999997E+02  0.45594000000E+02  0.51100000000E-03 0.  1.
    9900012    2    1    2    0    0  0.22427230611E+02  0.36849035096E+02 -0.47740496780E+01  0.47787267164E+02  0.19999982308E+02 0.  0.
         12    1    1    2    0    0 -0.22427230611E+02 -0.36849035096E+02  0.47740496780E+01  0.43400732836E+02  0.00000000000E+00 0. -1.
         11    1    3    3    0    0  0.19732371757E+01  0.13222882062E+02 -0.50069993366E+01  0.14276145054E+02  0.51100000000E-03 0. -1.
        -11    1    3    3    0    0  0.14043261213E+02  0.22610454632E+02  0.22569755466E+01  0.26712165450E+02  0.51100000000E-03 0.  1.
         12    1    3    3    0    0  0.64107322221E+01  0.10156984012E+01 -0.20240258880E+01  0.67989566597E+01  0.00000000000E+00 0. -1.
</event>
<event>
 7    1  0.1418970E-010  0.4778727E+02  0.7816164E-02  0.1312668E+00
        -11   -1    0    0    0    0  0.00000000000E+00  0.00000000000E+00  0.45593999997E+02  0.45594000000E+02  0.51100000000E-03 0. -1.
         11   -1    0    0    0    0 -0.00000000000E+00 -0.00000000000E+00 -0.45593999997E+02  0.45594000000E+02  0.51100000000E-03 0.  1.
    9900012    2    1    2    0    0  0.12897642396E+02  0.39089270328E+02 -0.13758748492E+02  0.47787269658E+02  0.19999993677E+02 0.  0.
         12    1    1    2    0    0 -0.12897642396E+02 -0.39089270328E+02  0.13758748492E+02  0.43400730342E+02  0.00000000000E+00 0. -1.
         11    1    3    3    0    0 -0.23488646862E+01  0.17382931659E+01  0.10762607936E+01  0.31140272962E+01  0.51100000000E-03 0. -1.
        -11    1    3    3    0    0  0.13000200729E+02  0.16041201369E+02 -0.84975272364E+01  0.22327859946E+02  0.51100000000E-03 0.  1.
         12    1    3    3    0    0  0.22463063535E+01  0.21309775793E+02 -0.63374820491E+01  0.22345382416E+02  0.00000000000E+00 0. -1.
</event>
<event>
 7    1  0.1418970E-010  0.4778729E+02  0.7816164E-02  0.1312668E+00
        -11   -1    0    0    0    0  0.00000000000E+00  0.00000000000E+00  0.45593999997E+02  0.45594000000E+02  0.51100000000E-03 0.  1.
         11   -1    0    0    0    0 -0.00000000000E+00 -0.00000000000E+00 -0.45593999997E+02  0.45594000000E+02  0.51100000000E-03 0. -1.
    9900012    2    1    2    0    0 -0.62302122082E+01 -0.12973128315E+02  0.40945139181E+02  0.47787285432E+02  0.20000065599E+02 0.  0.
         12    1    1    2    0    0  0.62302122082E+01  0.12973128315E+02 -0.40945139181E+02  0.43400714568E+02  0.00000000000E+00 0. -1.
         11    1    3    3    0    0  0.25007273369E+00  0.60599701918E+00  0.18307891065E+00  0.68065182585E+00  0.51100000000E-03 0. -1.
        -11    1    3    3    0    0  0.30533869159E+01 -0.12864932447E+02  0.29540856003E+02  0.32364978482E+02  0.51100000000E-03 0.  1.
        -12    1    3    3    0    0 -0.95336718577E+01 -0.71419288654E+00  0.11221204268E+02  0.14741655124E+02  0.00000000000E+00 0.  1.
</event>
<event>
 7    1  0.1418970E-010  0.4778728E+02  0.7816164E-02  0.1312668E+00
        -11   -1    0    0    0    0  0.00000000000E+00  0.00000000000E+00  0.45593999997E+02  0.45594000000E+02  0.51100000000E-03 0.  1.
         11   -1    0    0    0    0 -0.00000000000E+00 -0.00000000000E+00 -0.45593999997E+02  0.45594000000E+02  0.51100000000E-03 0. -1.
    9900012    2    1    2    0    0  0.46092204187E+00  0.19206636279E+02  0.38916773003E+02  0.47787279416E+02  0.20000038169E+02 0.  0.
         12    1    1    2    0    0 -0.46092204187E+00 -0.19206636279E+02 -0.38916773003E+02  0.43400720584E+02  0.00000000000E+00 0. -1.
         11    1    3    3    0    0  0.26884964336E+01 -0.11247223314E+01  0.82035826068E+01  0.87058475316E+01  0.51100000000E-03 0. -1.
        -11    1    3    3    0    0 -0.69917009222E+01  0.66037749048E+01  0.11475337735E+02  0.14972544913E+02  0.51100000000E-03 0.  1.
         12    1    3    3    0    0  0.47641265305E+01  0.13727583705E+02  0.19237852662E+02  0.24108886972E+02  0.00000000000E+00 0. -1.
</event>
<event>
 7    1  0.1418970E-010  0.4778727E+02  0.7816164E-02  0.1312668E+00
        -11   -1    0    0    0    0  0.00000000000E+00  0.00000000000E+00  0.45593999997E+02  0.45594000000E+02  0.51100000000E-03 0.  1.
         11   -1    0    0    0    0 -0.00000000000E+00 -0.00000000000E+00 -0.45593999997E+02  0.45594000000E+02  0.51100000000E-03 0. -1.
    9900012    2    1    2    0    0 -0.12656567724E+01 -0.20406253562E+02  0.38283241894E+02  0.47787266349E+02  0.19999978593E+02 0.  0.
         12    1    1    2    0    0  0.12656567724E+01  0.20406253562E+02 -0.38283241894E+02  0.43400733651E+02  0.00000000000E+00 0. -1.
         11    1    3    3    0    0  0.35357760730E+01 -0.13829678470E+00  0.10914444866E+01  0.37029839005E+01  0.51100000000E-03 0. -1.
        -11    1    3    3    0    0  0.98153594098E+00 -0.14142978974E+02  0.16562747514E+02  0.21801648390E+02  0.51100000000E-03 0.  1.
         12    1    3    3    0    0 -0.57829687863E+01 -0.61249778035E+01  0.20629049894E+02  0.22282634059E+02  0.00000000000E+00 0. -1.
</event>
<event>
 7    1  0.1418970E-010  0.4778728E+02  0.7816164E-02  0.1312668E+00
        -11   -1    0    0    0    0  0.00000000000E+00  0.00000000000E+00  0.45593999997E+02  0.45594000000E+02  0.51100000000E-03 0.  1.
         11   -1    0    0    0    0 -0.00000000000E+00 -0.00000000000E+00 -0.45593999997E+02  0.45594000000E+02  0.51100000000E-03 0. -1.
    9900012    2    1    2    0    0  0.19606415126E+02  0.14965892227E+02  0.35710409812E+02  0.47787276352E+02  0.20000024199E+02 0.  0.
         12    1    1    2    0    0 -0.19606415126E+02 -0.14965892227E+02 -0.35710409812E+02  0.43400723648E+02  0.00000000000E+00 0. -1.
         11    1    3    3    0    0 -0.24881215996E+01 -0.15473323640E+01  0.32402205243E+01  0.43685255918E+01  0.51100000000E-03 0. -1.
        -11    1    3    3    0    0  0.80890672480E+01  0.92539194173E+01  0.19236957420E+02  0.22828240506E+02  0.51100000000E-03 0.  1.
        -12    1    3    3    0    0  0.14005469478E+02  0.72593051739E+01  0.13233231867E+02  0.20590510255E+02  0.00000000000E+00 0.  1.
</event>
<event>
 7    1  0.1418970E-010  0.4778726E+02  0.7816164E-02  0.1312668E+00
        -11   -1    0    0    0    0  0.00000000000E+00  0.00000000000E+00  0.45593999997E+02  0.45594000000E+02  0.51100000000E-03 0.  1.
         11   -1    0    0    0    0 -0.00000000000E+00 -0.00000000000E+00 -0.45593999997E+02  0.45594000000E+02  0.51100000000E-03 0. -1.
    9900012    2    1    2    0    0  0.21664901563E+02  0.32802874802E+02  0.18390957739E+02  0.47787264043E+02  0.19999968079E+02 0.  0.
         12    1    1    2    0    0 -0.21664901563E+02 -0.32802874802E+02 -0.18390957739E+02  0.43400735957E+02  0.00000000000E+00 0. -1.
         11    1    3    3    0    0  0.37424756082E+01  0.16818926796E+02  0.48930839027E+01  0.17911579846E+02  0.51100000000E-03 0. -1.
        -11    1    3    3    0    0  0.14937813053E+02  0.12848016849E+02  0.49828935067E+01  0.20323361526E+02  0.51100000000E-03 0.  1.
         12    1    3    3    0    0  0.29846129012E+01  0.31359311577E+01  0.85149803299E+01  0.95523226712E+01  0.00000000000E+00 0. -1.
</event>
<event>
 7    1  0.1418970E-010  0.4778727E+02  0.7816164E-02  0.1312668E+00
        -11   -1    0    0    0    0  0.00000000000E+00  0.00000000000E+00  0.45593999997E+02  0.45594000000E+02  0.51100000000E-03 0.  1.
         11   -1    0    0    0    0 -0.00000000000E+00 -0.00000000000E+00 -0.45593999997E+02  0.45594000000E+02  0.51100000000E-03 0. -1.
    9900012    2    1    2    0    0 -0.31734198606E+02  0.19237804977E+02  0.22504905780E+02  0.47787270908E+02  0.19999999379E+02 0.  0.
         12    1    1    2    0    0  0.31734198606E+02 -0.19237804977E+02 -0.22504905780E+02  0.43400729092E+02  0.00000000000E+00 0. -1.
         11    1    3    3    0    0 -0.63698032394E+01 -0.22164046120E+01 -0.13624846683E+01  0.68806400462E+01  0.51100000000E-03 0. -1.
        -11    1    3    3    0    0 -0.12179436370E+02  0.10306500860E+02  0.11306667086E+02  0.19555136183E+02  0.51100000000E-03 0.  1.
         12    1    3    3    0    0 -0.13184958997E+02  0.11147708729E+02  0.12560723363E+02  0.21351494679E+02  0.00000000000E+00 0. -1.
</event>
<event>
 7    1  0.1418970E-010  0.4778727E+02  0.7816164E-02  0.1312668E+00
        -11   -1    0    0    0    0  0.00000000000E+00  0.00000000000E+00  0.45593999997E+02  0.45594000000E+02  0.51100000000E-03 0.  1.
         11   -1    0    0    0    0 -0.00000000000E+00 -0.00000000000E+00 -0.45593999997E+02  0.45594000000E+02  0.51100000000E-03 0. -1.
    9900012    2    1    2    0    0 -0.10269210745E+02 -0.42137885833E+02  0.16016253613E+01  0.47787270564E+02  0.19999997809E+02 0.  0.
         12    1    1    2    0    0  0.10269210745E+02  0.42137885833E+02 -0.16016253613E+01  0.43400729436E+02  0.00000000000E+00 0. -1.
         11    1    3    3    0    0 -0.34182579356E+01 -0.13644712750E+02  0.79357382813E+01  0.16150498930E+02  0.51100000000E-03 0. -1.
        -11    1    3    3    0    0 -0.62958108111E+01 -0.26028797480E+02 -0.23012754595E+01  0.26878084028E+02  0.51100000000E-03 0.  1.
         12    1    3    3    0    0 -0.55514199833E+00 -0.24643756026E+01 -0.40328374604E+01  0.47586876060E+01  0.00000000000E+00 0. -1.
</event>
<event>
 7    1  0.1418970E-010  0.4778727E+02  0.7816164E-02  0.1312668E+00
        -11   -1    0    0    0    0  0.00000000000E+00  0.00000000000E+00  0.45593999997E+02  0.45594000000E+02  0.51100000000E-03 0.  1.
         11   -1    0    0    0    0 -0.00000000000E+00 -0.00000000000E+00 -0.45593999997E+02  0.45594000000E+02  0.51100000000E-03 0. -1.
    9900012    2    1    2    0    0 -0.24735568147E+02 -0.58305786806E+00  0.35657190160E+02  0.47787268460E+02  0.19999988218E+02 0.  0.
         12    1    1    2    0    0  0.24735568147E+02  0.58305786806E+00 -0.35657190160E+02  0.43400731540E+02  0.00000000000E+00 0. -1.
         11    1    3    3    0    0 -0.12946133941E+01 -0.50120617237E+01  0.71029638864E+01  0.87891343598E+01  0.51100000000E-03 0. -1.
        -11    1    3    3    0    0 -0.17414790176E+02 -0.22548307144E+01  0.19101462444E+02  0.25946580626E+02  0.51100000000E-03 0.  1.
         12    1    3    3    0    0 -0.60261645773E+01  0.66838345700E+01  0.94527638306E+01  0.13051553475E+02  0.00000000000E+00 0. -1.
</event>
<event>
 7    1  0.1418970E-010  0.4778727E+02  0.7816164E-02  0.1312668E+00
        -11   -1    0    0    0    0  0.00000000000E+00  0.00000000000E+00  0.45593999997E+02  0.45594000000E+02  0.51100000000E-03 0. -1.
         11   -1    0    0    0    0 -0.00000000000E+00 -0.00000000000E+00 -0.45593999997E+02  0.45594000000E+02  0.51100000000E-03 0.  1.
    9900012    2    1    2    0    0  0.57027979361E+01  0.35234963186E+02 -0.24690048957E+02  0.47787273594E+02  0.20000011626E+02 0.  0.
         12    1    1    2    0    0 -0.57027979361E+01 -0.35234963186E+02  0.24690048957E+02  0.43400726406E+02  0.00000000000E+00 0. -1.
         11    1    3    3    0    0  0.38977329675E+01  0.34362970096E+01 -0.66209959812E+01  0.84165341719E+01  0.51100000000E-03 0. -1.
        -11    1    3    3    0    0  0.14168184935E+01  0.27746342827E+02 -0.86311791474E+01  0.29092338659E+02  0.51100000000E-03 0.  1.
         12    1    3    3    0    0  0.38824647520E+00  0.40523233499E+01 -0.94378738283E+01  0.10278400764E+02  0.00000000000E+00 0. -1.
</event>
<event>
 7    1  0.1418970E-010  0.4778728E+02  0.7816164E-02  0.1312668E+00
        -11   -1    0    0    0    0  0.00000000000E+00  0.00000000000E+00  0.45593999997E+02  0.45594000000E+02  0.51100000000E-03 0.  1.
         11   -1    0    0    0    0 -0.00000000000E+00 -0.00000000000E+00 -0.45593999997E+02  0.45594000000E+02  0.51100000000E-03 0. -1.
    9900012    2    1    2    0    0 -0.40243505943E+02  0.10721485688E+02 -0.12211985210E+02  0.47787278708E+02  0.20000034939E+02 0.  0.
         12    1    1    2    0    0  0.40243505943E+02 -0.10721485688E+02  0.12211985210E+02  0.43400721292E+02  0.00000000000E+00 0. -1.
         11    1    3    3    0    0 -0.20366367573E+02  0.50127018394E+01  0.33636012127E+01  0.21242173175E+02  0.51100000000E-03 0. -1.
        -11    1    3    3    0    0 -0.12240955188E+02  0.60679964661E+00 -0.79550356374E+01  0.14611357979E+02  0.51100000000E-03 0.  1.
        -12    1    3    3    0    0 -0.76361831817E+01  0.51019842025E+01 -0.76205507857E+01  0.11933747553E+02  0.00000000000E+00 0.  1.
</event>
<event>
 7    1  0.1418970E-010  0.4778727E+02  0.7816164E-02  0.1312668E+00
        -11   -1    0    0    0    0  0.00000000000E+00  0.00000000000E+00  0.45593999997E+02  0.45594000000E+02  0.51100000000E-03 0.  1.
         11   -1    0    0    0    0 -0.00000000000E+00 -0.00000000000E+00 -0.45593999997E+02  0.45594000000E+02  0.51100000000E-03 0. -1.
    9900012    2    1    2    0    0  0.16909219960E+02 -0.38900844512E+02  0.91883575676E+01  0.47787270303E+02  0.19999996621E+02 0.  0.
         12    1    1    2    0    0 -0.16909219960E+02  0.38900844512E+02 -0.91883575676E+01  0.43400729697E+02  0.00000000000E+00 0. -1.
         11    1    3    3    0    0 -0.13176449949E+01 -0.22418453637E+01 -0.36533135803E+01  0.44842791332E+01  0.51100000000E-03 0. -1.
        -11    1    3    3    0    0  0.86053832309E+01 -0.14063906262E+02  0.25862078408E+01  0.16689354426E+02  0.51100000000E-03 0.  1.
         12    1    3    3    0    0  0.96214817238E+01 -0.22595092887E+02  0.10255463307E+02  0.26613636744E+02  0.00000000000E+00 0. -1.
</event>
<event>
 7    1  0.1418970E-010  0.4778727E+02  0.7816164E-02  0.1312668E+00
        -11   -1    0    0    0    0  0.00000000000E+00  0.00000000000E+00  0.45593999997E+02  0.45594000000E+02  0.51100000000E-03 0.  1.
         11   -1    0    0    0    0 -0.00000000000E+00 -0.00000000000E+00 -0.45593999997E+02  0.45594000000E+02  0.51100000000E-03 0. -1.
    9900012    2    1    2    0    0 -0.30083996446E+02  0.24360077455E+02  0.19625567617E+02  0.47787272816E+02  0.20000008078E+02 0.  0.
         12    1    1    2    0    0  0.30083996446E+02 -0.24360077455E+02 -0.19625567617E+02  0.43400727184E+02  0.00000000000E+00 0. -1.
         11    1    3    3    0    0 -0.50538013587E+01  0.15404441549E+01  0.10471697464E+02  0.11729037659E+02  0.51100000000E-03 0. -1.
        -11    1    3    3    0    0 -0.15594706642E+02  0.10171024119E+02  0.79101524557E+01  0.20229066192E+02  0.51100000000E-03 0.  1.
        -12    1    3    3    0    0 -0.94354884454E+01  0.12648609181E+02  0.12437176980E+01  0.15829168965E+02  0.00000000000E+00 0.  1.
</event>
<event>
 7    1  0.1418970E-010  0.4778727E+02  0.7816164E-02  0.1312668E+00
        -11   -1    0    0    0    0  0.00000000000E+00  0.00000000000E+00  0.45593999997E+02  0.45594000000E+02  0.51100000000E-03 0.  1.
         11   -1    0    0    0    0 -0.00000000000E+00 -0.00000000000E+00 -0.45593999997E+02  0.45594000000E+02  0.51100000000E-03 0. -1.
    9900012    2    1    2    0    0 -0.64852980641E+01  0.21274383460E+02  0.37268817358E+02  0.47787271552E+02  0.20000002314E+02 0.  0.
         12    1    1    2    0    0  0.64852980641E+01 -0.21274383460E+02 -0.37268817358E+02  0.43400728448E+02  0.00000000000E+00 0. -1.
         11    1    3    3    0    0 -0.88929878113E+01  0.12240862260E+02  0.96801903356E+01  0.17961904862E+02  0.51100000000E-03 0. -1.
        -11    1    3    3    0    0 -0.19200855221E+01  0.33633989648E+01  0.13343127506E+02  0.13893819954E+02  0.51100000000E-03 0.  1.
         12    1    3    3    0    0  0.43277752693E+01  0.56701222350E+01  0.14245499516E+02  0.15931546736E+02  0.00000000000E+00 0. -1.
</event>
<event>
 7    1  0.1418970E-010  0.4778727E+02  0.7816164E-02  0.1312668E+00
        -11   -1    0    0    0    0  0.00000000000E+00  0.00000000000E+00  0.45593999997E+02  0.45594000000E+02  0.51100000000E-03 0.  1.
         11   -1    0    0    0    0 -0.00000000000E+00 -0.00000000000E+00 -0.45593999997E+02  0.45594000000E+02  0.51100000000E-03 0. -1.
    9900012    2    1    2    0    0 -0.19218544722E+02  0.35004179359E+00  0.38912056683E+02  0.47787272520E+02  0.20000006727E+02 0.  0.
         12    1    1    2    0    0  0.19218544722E+02 -0.35004179359E+00 -0.38912056683E+02  0.43400727480E+02  0.00000000000E+00 0. -1.
         11    1    3    3    0    0 -0.34907834176E+01  0.38547062760E+01  0.25198426066E+02  0.25729457939E+02  0.51100000000E-03 0. -1.
        -11    1    3    3    0    0 -0.82084484998E+01  0.13400221402E+01  0.70620927885E+01  0.10910886349E+02  0.51100000000E-03 0.  1.
        -12    1    3    3    0    0 -0.75193128047E+01 -0.48446866226E+01  0.66515378286E+01  0.11146928232E+02  0.00000000000E+00 0.  1.
</event>
<event>
 7    1  0.1418970E-010  0.4778730E+02  0.7816164E-02  0.1312668E+00
        -11   -1    0    0    0    0  0.00000000000E+00  0.00000000000E+00  0.45593999997E+02  0.45594000000E+02  0.51100000000E-03 0.  1.
         11   -1    0    0    0    0 -0.00000000000E+00 -0.00000000000E+00 -0.45593999997E+02  0.45594000000E+02  0.51100000000E-03 0. -1.
    9900012    2    1    2    0    0  0.12943830391E+01 -0.38645215680E+02  0.19710225759E+02  0.47787295837E+02  0.20000113039E+02 0.  0.
         12    1    1    2    0    0 -0.12943830391E+01  0.38645215680E+02 -0.19710225759E+02  0.43400704163E+02  0.00000000000E+00 0. -1.
         11    1    3    3    0    0  0.33324571326E+01 -0.62568984778E+01  0.89393998906E+01  0.11409071819E+02  0.51100000000E-03 0. -1.
        -11    1    3    3    0    0 -0.65355871639E+01 -0.10282220108E+02  0.34929867571E+01  0.12674340483E+02  0.51100000000E-03 0.  1.
        -12    1    3    3    0    0  0.44975130705E+01 -0.22106097094E+02  0.72778391108E+01  0.23703883535E+02  0.00000000000E+00 0.  1.
</event>
<event>
 7    1  0.1418970E-010  0.4778727E+02  0.7816164E-02  0.1312668E+00
        -11   -1    0    0    0    0  0.00000000000E+00  0.00000000000E+00  0.45593999997E+02  0.45594000000E+02  0.51100000000E-03 0.  1.
         11   -1    0    0    0    0 -0.00000000000E+00 -0.00000000000E+00 -0.45593999997E+02  0.45594000000E+02  0.51100000000E-03 0. -1.
    9900012    2    1    2    0    0  0.34613176538E+02 -0.20208998922E+02  0.16647754777E+02  0.47787269976E+02  0.19999995130E+02 0.  0.
         12    1    1    2    0    0 -0.34613176538E+02  0.20208998922E+02 -0.16647754777E+02  0.43400730024E+02  0.00000000000E+00 0. -1.
         11    1    3    3    0    0  0.48965047264E+01 -0.10707991987E+02  0.19392542439E+01  0.11933044801E+02  0.51100000000E-03 0. -1.
        -11    1    3    3    0    0  0.23372028016E+02 -0.10833675565E+02  0.92239267109E+01  0.27362402016E+02  0.51100000000E-03 0.  1.
        -12    1    3    3    0    0  0.63446437948E+01  0.13326686298E+01  0.54845738225E+01  0.84918231596E+01  0.00000000000E+00 0.  1.
</event>
<event>
 7    1  0.1418970E-010  0.4778729E+02  0.7816164E-02  0.1312668E+00
        -11   -1    0    0    0    0  0.00000000000E+00  0.00000000000E+00  0.45593999997E+02  0.45594000000E+02  0.51100000000E-03 0.  1.
         11   -1    0    0    0    0 -0.00000000000E+00 -0.00000000000E+00 -0.45593999997E+02  0.45594000000E+02  0.51100000000E-03 0. -1.
    9900012    2    1    2    0    0 -0.24992892594E+02 -0.13202888105E+02  0.32934185132E+02  0.47787291655E+02  0.20000093973E+02 0.  0.
         12    1    1    2    0    0  0.24992892594E+02  0.13202888105E+02 -0.32934185132E+02  0.43400708345E+02  0.00000000000E+00 0. -1.
         11    1    3    3    0    0 -0.11283602873E+02 -0.21018357893E+01  0.64653141979E+01  0.13173370693E+02  0.51100000000E-03 0. -1.
        -11    1    3    3    0    0 -0.14690725781E+02 -0.13349037465E+02  0.23392248586E+02  0.30679170774E+02  0.51100000000E-03 0.  1.
         12    1    3    3    0    0  0.98143606031E+00  0.22479851489E+01  0.30766223482E+01  0.39347501882E+01  0.00000000000E+00 0. -1.
</event>
<event>
 7    1  0.1418970E-010  0.4778727E+02  0.7816164E-02  0.1312668E+00
        -11   -1    0    0    0    0  0.00000000000E+00  0.00000000000E+00  0.45593999997E+02  0.45594000000E+02  0.51100000000E-03 0.  1.
         11   -1    0    0    0    0 -0.00000000000E+00 -0.00000000000E+00 -0.45593999997E+02  0.45594000000E+02  0.51100000000E-03 0. -1.
    9900012    2    1    2    0    0  0.57530498414E+01 -0.40393638514E+02  0.14794575407E+02  0.47787273319E+02  0.20000010373E+02 0.  0.
         12    1    1    2    0    0 -0.57530498414E+01  0.40393638514E+02 -0.14794575407E+02  0.43400726681E+02  0.00000000000E+00 0. -1.
         11    1    3    3    0    0  0.28229192912E+01 -0.13173140064E+02  0.18254809008E+01  0.13595325419E+02  0.51100000000E-03 0.  1.
        -11    1    3    3    0    0  0.24954305459E+01 -0.44097235346E+01 -0.34091252560E+01  0.61069608263E+01  0.51100000000E-03 0. -1.
        -12    1    3    3    0    0  0.43470000422E+00 -0.22810774915E+02  0.16378219763E+02  0.28084987074E+02  0.00000000000E+00 0.  1.
</event>
<event>
 7    1  0.1418970E-010  0.4778727E+02  0.7816164E-02  0.1312668E+00
        -11   -1    0    0    0    0  0.00000000000E+00  0.00000000000E+00  0.45593999997E+02  0.45594000000E+02  0.51100000000E-03 0.  1.
         11   -1    0    0    0    0 -0.00000000000E+00 -0.00000000000E+00 -0.45593999997E+02  0.45594000000E+02  0.51100000000E-03 0. -1.
    9900012    2    1    2    0    0  0.80550468641E+00 -0.47095848781E+01  0.43136926210E+02  0.47787269242E+02  0.19999991781E+02 0.  0.
         12    1    1    2    0    0 -0.80550468641E+00  0.47095848781E+01 -0.43136926210E+02  0.43400730758E+02  0.00000000000E+00 0. -1.
         11    1    3    3    0    0  0.33639000518E+00 -0.45843798614E+01  0.15459096521E+01  0.48496942030E+01  0.51100000000E-03 0. -1.
        -11    1    3    3    0    0 -0.40386375988E+01 -0.32107408100E+01  0.22213514119E+02  0.22804816596E+02  0.51100000000E-03 0.  1.
         12    1    3    3    0    0  0.45077522800E+01  0.30855357933E+01  0.19377502439E+02  0.20132758443E+02  0.00000000000E+00 0. -1.
</event>
<event>
 7    1  0.1418970E-010  0.4778727E+02  0.7816164E-02  0.1312668E+00
        -11   -1    0    0    0    0  0.00000000000E+00  0.00000000000E+00  0.45593999997E+02  0.45594000000E+02  0.51100000000E-03 0. -1.
         11   -1    0    0    0    0 -0.00000000000E+00 -0.00000000000E+00 -0.45593999997E+02  0.45594000000E+02  0.51100000000E-03 0.  1.
    9900012    2    1    2    0    0  0.28294172421E+02 -0.32386068438E+02  0.58485638602E+01  0.47787270500E+02  0.19999997519E+02 0.  0.
         12    1    1    2    0    0 -0.28294172421E+02  0.32386068438E+02 -0.58485638602E+01  0.43400729500E+02  0.00000000000E+00 0. -1.
         11    1    3    3    0    0 -0.11446172099E+01 -0.24421021772E+01  0.45265003420E+01  0.52690812490E+01  0.51100000000E-03 0. -1.
        -11    1    3    3    0    0  0.13651992069E+02 -0.95990837967E+01  0.15982936743E+01  0.16765256936E+02  0.51100000000E-03 0.  1.
         12    1    3    3    0    0  0.15786797562E+02 -0.20344882465E+02 -0.27623015608E+00  0.25752932316E+02  0.00000000000E+00 0. -1.
</event>
<event>
 7    1  0.1418970E-010  0.4778727E+02  0.7816164E-02  0.1312668E+00
        -11   -1    0    0    0    0  0.00000000000E+00  0.00000000000E+00  0.45593999997E+02  0.45594000000E+02  0.51100000000E-03 0.  1.
         11   -1    0    0    0    0 -0.00000000000E+00 -0.00000000000E+00 -0.45593999997E+02  0.45594000000E+02  0.51100000000E-03 0. -1.
    9900012    2    1    2    0    0 -0.13386746084E+02  0.36837936164E+02  0.18638260753E+02  0.47787271027E+02  0.19999999918E+02 0.  0.
         12    1    1    2    0    0  0.13386746084E+02 -0.36837936164E+02 -0.18638260753E+02  0.43400728973E+02  0.00000000000E+00 0. -1.
         11    1    3    3    0    0 -0.94260391678E+01  0.11009191261E+02  0.59195796121E-01  0.14493309181E+02  0.51100000000E-03 0. -1.
        -11    1    3    3    0    0 -0.49413648683E+01  0.97635004417E+01  0.42318315558E+01  0.11732494458E+02  0.51100000000E-03 0.  1.
        -12    1    3    3    0    0  0.98065795202E+00  0.16065244461E+02  0.14347233402E+02  0.21561467387E+02  0.00000000000E+00 0.  1.
</event>
<event>
 7    1  0.1418970E-010  0.4778727E+02  0.7816164E-02  0.1312668E+00
        -11   -1    0    0    0    0  0.00000000000E+00  0.00000000000E+00  0.45593999997E+02  0.45594000000E+02  0.51100000000E-03 0.  1.
         11   -1    0    0    0    0 -0.00000000000E+00 -0.00000000000E+00 -0.45593999997E+02  0.45594000000E+02  0.51100000000E-03 0. -1.
    9900012    2    1    2    0    0  0.14588020492E+02  0.23374974458E+02  0.33532425577E+02  0.47787270307E+02  0.19999996638E+02 0.  0.
         12    1    1    2    0    0 -0.14588020492E+02 -0.23374974458E+02 -0.33532425577E+02  0.43400729693E+02  0.00000000000E+00 0. -1.
         11    1    3    3    0    0 -0.11013382835E+00 -0.11997552486E+01  0.43112683660E+01  0.44764469506E+01  0.51100000000E-03 0. -1.
        -11    1    3    3    0    0  0.48494350106E+01  0.10759275548E+02  0.31668413817E+01  0.12219161789E+02  0.51100000000E-03 0.  1.
         12    1    3    3    0    0  0.98487193094E+01  0.13815454159E+02  0.26054315830E+02  0.31091661567E+02  0.00000000000E+00 0. -1.
</event>
<event>
 7    1  0.1418970E-010  0.4778728E+02  0.7816164E-02  0.1312668E+00
        -11   -1    0    0    0    0  0.00000000000E+00  0.00000000000E+00  0.45593999997E+02  0.45594000000E+02  0.51100000000E-03 0.  1.
         11   -1    0    0    0    0 -0.00000000000E+00 -0.00000000000E+00 -0.45593999997E+02  0.45594000000E+02  0.51100000000E-03 0. -1.
    9900012    2    1    2    0    0 -0.37543117971E+02 -0.11949073628E+02  0.18203196625E+02  0.47787280710E+02  0.20000044068E+02 0.  0.
         12    1    1    2    0    0  0.37543117971E+02  0.11949073628E+02 -0.18203196625E+02  0.43400719290E+02  0.00000000000E+00 0. -1.
         11    1    3    3    0    0 -0.11410386093E+02 -0.62526112154E+01  0.16358046167E+02  0.20901620331E+02  0.51100000000E-03 0.  1.
        -11    1    3    3    0    0 -0.92206772085E+01 -0.12496134697E+01  0.12507241674E+01  0.93886491686E+01  0.51100000000E-03 0. -1.
        -12    1    3    3    0    0 -0.16912054670E+02 -0.44468489426E+01  0.59442629015E+00  0.17497011210E+02  0.00000000000E+00 0.  1.
</event>
<event>
 7    1  0.1418970E-010  0.4778721E+02  0.7816164E-02  0.1312668E+00
        -11   -1    0    0    0    0  0.00000000000E+00  0.00000000000E+00  0.45593999997E+02  0.45594000000E+02  0.51100000000E-03 0.  1.
         11   -1    0    0    0    0 -0.00000000000E+00 -0.00000000000E+00 -0.45593999997E+02  0.45594000000E+02  0.51100000000E-03 0. -1.
    9900012    2    1    2    0    0 -0.38829472933E+02 -0.93484867269E+01  0.16985475254E+02  0.47787210353E+02  0.19999723283E+02 0.  0.
         12    1    1    2    0    0  0.38829472933E+02  0.93484867269E+01 -0.16985475254E+02  0.43400789647E+02  0.00000000000E+00 0. -1.
         11    1    3    3    0    0 -0.11158073224E+02 -0.33197400347E+01 -0.12725622041E+01  0.11710793602E+02  0.51100000000E-03 0. -1.
        -11    1    3    3    0    0 -0.11903065912E+02  0.38403817128E+01  0.76805849051E+01  0.14677291799E+02  0.51100000000E-03 0.  1.
        -12    1    3    3    0    0 -0.15768333798E+02 -0.98691284051E+01  0.10577452553E+02  0.21399124953E+02  0.00000000000E+00 0.  1.
</event>
<event>
 7    1  0.1418970E-010  0.4778726E+02  0.7816164E-02  0.1312668E+00
        -11   -1    0    0    0    0  0.00000000000E+00  0.00000000000E+00  0.45593999997E+02  0.45594000000E+02  0.51100000000E-03 0.  1.
         11   -1    0    0    0    0 -0.00000000000E+00 -0.00000000000E+00 -0.45593999997E+02  0.45594000000E+02  0.51100000000E-03 0. -1.
    9900012    2    1    2    0    0  0.32740257516E+02 -0.28268941482E+02  0.35449375036E+01  0.47787261565E+02  0.19999956780E+02 0.  0.
         12    1    1    2    0    0 -0.32740257516E+02  0.28268941482E+02 -0.35449375036E+01  0.43400738435E+02  0.00000000000E+00 0. -1.
         11    1    3    3    0    0  0.22915223844E+01 -0.29529249725E-01 -0.45508724199E+01  0.50953299067E+01  0.51100000000E-03 0. -1.
        -11    1    3    3    0    0  0.80250182785E+01 -0.90470732567E+01  0.47282640131E+01  0.12984873265E+02  0.51100000000E-03 0.  1.
         12    1    3    3    0    0  0.22423716854E+02 -0.19192338976E+02  0.33675459104E+01  0.29707058393E+02  0.00000000000E+00 0. -1.
</event>
<event>
 7    1  0.1418970E-010  0.4778729E+02  0.7816164E-02  0.1312668E+00
        -11   -1    0    0    0    0  0.00000000000E+00  0.00000000000E+00  0.45593999997E+02  0.45594000000E+02  0.51100000000E-03 0.  1.
         11   -1    0    0    0    0 -0.00000000000E+00 -0.00000000000E+00 -0.45593999997E+02  0.45594000000E+02  0.51100000000E-03 0. -1.
    9900012    2    1    2    0    0  0.76827661307E+00  0.39487440880E+02  0.17993703490E+02  0.47787290311E+02  0.20000087845E+02 0.  0.
         12    1    1    2    0    0 -0.76827661307E+00 -0.39487440880E+02 -0.17993703490E+02  0.43400709689E+02  0.00000000000E+00 0. -1.
         11    1    3    3    0    0  0.41231878117E+00 -0.58117983990E+00  0.29847353594E+01  0.30686189419E+01  0.51100000000E-03 0. -1.
        -11    1    3    3    0    0  0.38188415526E+01  0.16386420304E+02  0.71404778659E+00  0.16840670583E+02  0.51100000000E-03 0.  1.
        -12    1    3    3    0    0 -0.34628837207E+01  0.23682200416E+02  0.14294920344E+02  0.27878000786E+02  0.00000000000E+00 0.  1.
</event>
<event>
 7    1  0.1418970E-010  0.4778727E+02  0.7816164E-02  0.1312668E+00
        -11   -1    0    0    0    0  0.00000000000E+00  0.00000000000E+00  0.45593999997E+02  0.45594000000E+02  0.51100000000E-03 0.  1.
         11   -1    0    0    0    0 -0.00000000000E+00 -0.00000000000E+00 -0.45593999997E+02  0.45594000000E+02  0.51100000000E-03 0. -1.
    9900012    2    1    2    0    0  0.22575787610E+02 -0.91127152306E+01  0.35929312599E+02  0.47787271101E+02  0.20000000259E+02 0.  0.
         12    1    1    2    0    0 -0.22575787610E+02  0.91127152306E+01 -0.35929312599E+02  0.43400728899E+02  0.00000000000E+00 0. -1.
         11    1    3    3    0    0 -0.14044603499E+01 -0.26289085080E+01  0.37139156901E+01  0.47620204569E+01  0.51100000000E-03 0. -1.
        -11    1    3    3    0    0  0.18935933502E+02 -0.89978658724E+01  0.30723650134E+02  0.37195078245E+02  0.51100000000E-03 0.  1.
         12    1    3    3    0    0  0.50443144580E+01  0.25140591498E+01  0.14917467750E+01  0.58301723989E+01  0.00000000000E+00 0. -1.
</event>
<event>
 7    1  0.1418970E-010  0.4778727E+02  0.7816164E-02  0.1312668E+00
        -11   -1    0    0    0    0  0.00000000000E+00  0.00000000000E+00  0.45593999997E+02  0.45594000000E+02  0.51100000000E-03 0.  1.
         11   -1    0    0    0    0 -0.00000000000E+00 -0.00000000000E+00 -0.45593999997E+02  0.45594000000E+02  0.51100000000E-03 0. -1.
    9900012    2    1    2    0    0  0.32054119189E+02  0.14126033195E+02  0.25624442752E+02  0.47787269163E+02  0.19999991423E+02 0.  0.
         12    1    1    2    0    0 -0.32054119189E+02 -0.14126033195E+02 -0.25624442752E+02  0.43400730837E+02  0.00000000000E+00 0. -1.
         11    1    3    3    0    0  0.68029409993E+01  0.73865622722E+01  0.43426218893E+01  0.10940734599E+02  0.51100000000E-03 0. -1.
        -11    1    3    3    0    0  0.59035228291E+01 -0.23268116102E+01  0.11951606758E+02  0.13531686459E+02  0.51100000000E-03 0.  1.
        -12    1    3    3    0    0  0.19347655361E+02  0.90662825327E+01  0.93302141046E+01  0.23314848105E+02  0.00000000000E+00 0.  1.
</event>
<event>
 7    1  0.1418970E-010  0.4778721E+02  0.7816164E-02  0.1312668E+00
        -11   -1    0    0    0    0  0.00000000000E+00  0.00000000000E+00  0.45593999997E+02  0.45594000000E+02  0.51100000000E-03 0. -1.
         11   -1    0    0    0    0 -0.00000000000E+00 -0.00000000000E+00 -0.45593999997E+02  0.45594000000E+02  0.51100000000E-03 0.  1.
    9900012    2    1    2    0    0  0.41121071710E+02  0.12692791157E+02 -0.56194918354E+01  0.47787214587E+02  0.19999742586E+02 0.  0.
         12    1    1    2    0    0 -0.41121071710E+02 -0.12692791157E+02  0.56194918354E+01  0.43400785413E+02  0.00000000000E+00 0. -1.
         11    1    3    3    0    0  0.33668219024E+00 -0.56071869520E+00 -0.18437214932E+01  0.19562897428E+01  0.51100000000E-03 0. -1.
        -11    1    3    3    0    0  0.25934956114E+02  0.87978612489E+01  0.52590426517E+01  0.27886947503E+02  0.51100000000E-03 0.  1.
        -12    1    3    3    0    0  0.14849433406E+02  0.44556486036E+01 -0.90348129939E+01  0.17943977341E+02  0.00000000000E+00 0.  1.
</event>
<event>
 7    1  0.1418970E-010  0.4778727E+02  0.7816164E-02  0.1312668E+00
        -11   -1    0    0    0    0  0.00000000000E+00  0.00000000000E+00  0.45593999997E+02  0.45594000000E+02  0.51100000000E-03 0.  1.
         11   -1    0    0    0    0 -0.00000000000E+00 -0.00000000000E+00 -0.45593999997E+02  0.45594000000E+02  0.51100000000E-03 0. -1.
    9900012    2    1    2    0    0 -0.33359906993E+01  0.23530367316E+02  0.36315508469E+02  0.47787272179E+02  0.20000005174E+02 0.  0.
         12    1    1    2    0    0  0.33359906993E+01 -0.23530367316E+02 -0.36315508469E+02  0.43400727821E+02  0.00000000000E+00 0. -1.
         11    1    3    3    0    0  0.36597737589E+01  0.15632683698E+02  0.12823324429E+02  0.20547807504E+02  0.51100000000E-03 0. -1.
        -11    1    3    3    0    0 -0.59614949470E+01  0.96681668090E+01  0.17117819293E+02  0.20543432261E+02  0.51100000000E-03 0.  1.
        -12    1    3    3    0    0 -0.10342695111E+01 -0.17704831910E+01  0.63743647477E+01  0.66960324139E+01  0.00000000000E+00 0.  1.
</event>
<event>
 7    1  0.1418970E-010  0.4778727E+02  0.7816164E-02  0.1312668E+00
        -11   -1    0    0    0    0  0.00000000000E+00  0.00000000000E+00  0.45593999997E+02  0.45594000000E+02  0.51100000000E-03 0.  1.
         11   -1    0    0    0    0 -0.00000000000E+00 -0.00000000000E+00 -0.45593999997E+02  0.45594000000E+02  0.51100000000E-03 0. -1.
    9900012    2    1    2    0    0 -0.21242616870E+02  0.53324116022E+01 -0.37469186173E+02  0.47787270773E+02  0.19999998762E+02 0.  0.
         12    1    1    2    0    0  0.21242616870E+02 -0.53324116022E+01  0.37469186173E+02  0.43400729227E+02  0.00000000000E+00 0. -1.
         11    1    3    3    0    0 -0.21505468904E+01  0.66390464668E+00 -0.14203963601E+02  0.14381175318E+02  0.51100000000E-03 0. -1.
        -11    1    3    3    0    0 -0.87008792113E+00  0.28539769234E+01  0.87210871847E+00  0.31085062566E+01  0.51100000000E-03 0.  1.
        -12    1    3    3    0    0 -0.18221982058E+02  0.18145300322E+01 -0.24137331291E+02  0.30297589198E+02  0.00000000000E+00 0.  1.
</event>
<event>
 7    1  0.1418970E-010  0.4778726E+02  0.7816164E-02  0.1312668E+00
        -11   -1    0    0    0    0  0.00000000000E+00  0.00000000000E+00  0.45593999997E+02  0.45594000000E+02  0.51100000000E-03 0.  1.
         11   -1    0    0    0    0 -0.00000000000E+00 -0.00000000000E+00 -0.45593999997E+02  0.45594000000E+02  0.51100000000E-03 0. -1.
    9900012    2    1    2    0    0 -0.40940767326E+02 -0.10731908286E+02  0.96074903542E+01  0.47787260887E+02  0.19999953687E+02 0.  0.
         12    1    1    2    0    0  0.40940767326E+02  0.10731908286E+02 -0.96074903542E+01  0.43400739113E+02  0.00000000000E+00 0. -1.
         11    1    3    3    0    0  0.82167258371E+00 -0.22875592537E+01  0.10179904597E+01  0.26352187786E+01  0.51100000000E-03 0. -1.
        -11    1    3    3    0    0 -0.14016888596E+02 -0.67714333076E+01 -0.13669559217E+01  0.15626709305E+02  0.51100000000E-03 0.  1.
        -12    1    3    3    0    0 -0.27745551313E+02 -0.16729157247E+01  0.99564558162E+01  0.29525332803E+02  0.00000000000E+00 0.  1.
</event>
<event>
 7    1  0.1418970E-010  0.4778729E+02  0.7816164E-02  0.1312668E+00
        -11   -1    0    0    0    0  0.00000000000E+00  0.00000000000E+00  0.45593999997E+02  0.45594000000E+02  0.51100000000E-03 0.  1.
         11   -1    0    0    0    0 -0.00000000000E+00 -0.00000000000E+00 -0.45593999997E+02  0.45594000000E+02  0.51100000000E-03 0. -1.
    9900012    2    1    2    0    0 -0.19497406235E+02  0.19934623307E+02  0.33257840329E+02  0.47787285725E+02  0.20000066934E+02 0.  0.
         12    1    1    2    0    0  0.19497406235E+02 -0.19934623307E+02 -0.33257840329E+02  0.43400714275E+02  0.00000000000E+00 0. -1.
         11    1    3    3    0    0 -0.87752520060E+01  0.27707363671E+01  0.34532834083E+01  0.98288958863E+01  0.51100000000E-03 0. -1.
        -11    1    3    3    0    0 -0.10303285373E+02  0.16708563898E+02  0.19615974986E+02  0.27751040917E+02  0.51100000000E-03 0.  1.
         12    1    3    3    0    0 -0.41886885565E+00  0.45532304135E+00  0.10188581934E+02  0.10207348922E+02  0.00000000000E+00 0. -1.
</event>
<event>
 7    1  0.1418970E-010  0.4778727E+02  0.7816164E-02  0.1312668E+00
        -11   -1    0    0    0    0  0.00000000000E+00  0.00000000000E+00  0.45593999997E+02  0.45594000000E+02  0.51100000000E-03 0.  1.
         11   -1    0    0    0    0 -0.00000000000E+00 -0.00000000000E+00 -0.45593999997E+02  0.45594000000E+02  0.51100000000E-03 0. -1.
    9900012    2    1    2    0    0 -0.84903500406E+00 -0.43389273923E+02 -0.52289784651E+00  0.47787269889E+02  0.19999994731E+02 0.  0.
         12    1    1    2    0    0  0.84903500406E+00  0.43389273923E+02  0.52289784651E+00  0.43400730111E+02  0.00000000000E+00 0. -1.
         11    1    3    3    0    0  0.15377690512E+01 -0.18747203304E+02  0.44836305074E+01  0.19337148398E+02  0.51100000000E-03 0.  1.
        -11    1    3    3    0    0  0.20008982537E+01 -0.14025312421E+02  0.29563150511E+01  0.14472483590E+02  0.51100000000E-03 0. -1.
        -12    1    3    3    0    0 -0.43877023089E+01 -0.10616758198E+02 -0.79628434050E+01  0.13977637901E+02  0.00000000000E+00 0.  1.
</event>
<event>
 7    1  0.1418970E-010  0.4778727E+02  0.7816164E-02  0.1312668E+00
        -11   -1    0    0    0    0  0.00000000000E+00  0.00000000000E+00  0.45593999997E+02  0.45594000000E+02  0.51100000000E-03 0.  1.
         11   -1    0    0    0    0 -0.00000000000E+00 -0.00000000000E+00 -0.45593999997E+02  0.45594000000E+02  0.51100000000E-03 0. -1.
    9900012    2    1    2    0    0 -0.62052046077E+01 -0.11840523624E+02  0.41290687894E+02  0.47787268777E+02  0.19999989664E+02 0.  0.
         12    1    1    2    0    0  0.62052046077E+01  0.11840523624E+02 -0.41290687894E+02  0.43400731223E+02  0.00000000000E+00 0. -1.
         11    1    3    3    0    0 -0.21787016817E+00 -0.10092241790E+01 -0.11815831551E+01  0.15691207306E+01  0.51100000000E-03 0.  1.
        -11    1    3    3    0    0  0.15705985409E+01 -0.27987104688E+01  0.10869384292E+01  0.33883617686E+01  0.51100000000E-03 0. -1.
        -12    1    3    3    0    0 -0.75579329805E+01 -0.80325889766E+01  0.41385332620E+02  0.42829786278E+02  0.00000000000E+00 0.  1.
</event>
<event>
 7    1  0.1418970E-010  0.4778726E+02  0.7816164E-02  0.1312668E+00
        -11   -1    0    0    0    0  0.00000000000E+00  0.00000000000E+00  0.45593999997E+02  0.45594000000E+02  0.51100000000E-03 0.  1.
         11   -1    0    0    0    0 -0.00000000000E+00 -0.00000000000E+00 -0.45593999997E+02  0.45594000000E+02  0.51100000000E-03 0. -1.
    9900012    2    1    2    0    0 -0.39489206730E+02 -0.11503733522E+02  0.13852460315E+02  0.47787262796E+02  0.19999962391E+02 0.  0.
         12    1    1    2    0    0  0.39489206730E+02  0.11503733522E+02 -0.13852460315E+02  0.43400737204E+02  0.00000000000E+00 0. -1.
         11    1    3    3    0    0 -0.13255805838E+02  0.32561016663E+01  0.81493830582E+01  0.15897516503E+02  0.51100000000E-03 0. -1.
        -11    1    3    3    0    0 -0.18261796549E+02 -0.81068612997E+01  0.75204508609E+01  0.21348807806E+02  0.51100000000E-03 0.  1.
        -12    1    3    3    0    0 -0.79716043426E+01 -0.66529738885E+01 -0.18173736045E+01  0.10540938486E+02  0.00000000000E+00 0.  1.
</event>
<event>
 7    1  0.1418970E-010  0.4778727E+02  0.7816164E-02  0.1312668E+00
        -11   -1    0    0    0    0  0.00000000000E+00  0.00000000000E+00  0.45593999997E+02  0.45594000000E+02  0.51100000000E-03 0.  1.
         11   -1    0    0    0    0 -0.00000000000E+00 -0.00000000000E+00 -0.45593999997E+02  0.45594000000E+02  0.51100000000E-03 0. -1.
    9900012    2    1    2    0    0 -0.35175944434E+02 -0.10204151662E+02  0.23284149471E+02  0.47787269654E+02  0.19999993660E+02 0.  0.
         12    1    1    2    0    0  0.35175944434E+02  0.10204151662E+02 -0.23284149471E+02  0.43400730346E+02  0.00000000000E+00 0. -1.
         11    1    3    3    0    0 -0.48437773296E+01  0.30508534454E+01 -0.51298058157E+00  0.57474372465E+01  0.51100000000E-03 0. -1.
        -11    1    3    3    0    0 -0.12804250814E+02 -0.44506533239E+01  0.15901774978E+02  0.20895540233E+02  0.51100000000E-03 0.  1.
         12    1    3    3    0    0 -0.17527916290E+02 -0.88043517833E+01  0.78953550751E+01  0.21144292175E+02  0.00000000000E+00 0. -1.
</event>
<event>
 7    1  0.1418970E-010  0.4778727E+02  0.7816164E-02  0.1312668E+00
        -11   -1    0    0    0    0  0.00000000000E+00  0.00000000000E+00  0.45593999997E+02  0.45594000000E+02  0.51100000000E-03 0.  1.
         11   -1    0    0    0    0 -0.00000000000E+00 -0.00000000000E+00 -0.45593999997E+02  0.45594000000E+02  0.51100000000E-03 0. -1.
    9900012    2    1    2    0    0  0.14098250317E+02  0.97916436767E+00  0.41035397058E+02  0.47787271474E+02  0.20000001959E+02 0.  0.
         12    1    1    2    0    0 -0.14098250317E+02 -0.97916436767E+00 -0.41035397058E+02  0.43400728526E+02  0.00000000000E+00 0. -1.
         11    1    3    3    0    0 -0.88322679621E+00 -0.24473923976E+01  0.30307484054E+01  0.39944029941E+01  0.51100000000E-03 0. -1.
        -11    1    3    3    0    0  0.76005092279E+01  0.91124026846E+01  0.16198889700E+02  0.20080031150E+02  0.51100000000E-03 0.  1.
        -12    1    3    3    0    0  0.73809678858E+01 -0.56858459193E+01  0.21805758953E+02  0.23712837330E+02  0.00000000000E+00 0.  1.
</event>
<event>
 7    1  0.1600501E-010  0.4778727E+02  0.7816164E-02  0.1312668E+00
        -11   -1    0    0    0    0  0.00000000000E+00  0.00000000000E+00  0.45593999997E+02  0.45594000000E+02  0.51100000000E-03 0. -1.
         11   -1    0    0    0    0 -0.00000000000E+00 -0.00000000000E+00 -0.45593999997E+02  0.45594000000E+02  0.51100000000E-03 0.  1.
    9900012    2    1    2    0    0 -0.11283338592E+02 -0.38389912640E+02 -0.16808454884E+02  0.47787270999E+02  0.19999999792E+02 0.  0.
         12    1    1    2    0    0  0.11283338592E+02  0.38389912640E+02  0.16808454884E+02  0.43400729001E+02  0.00000000000E+00 0. -1.
         11    1    3    3    0    0  0.41450208190E+01 -0.70892988218E+01 -0.50700536154E+00  0.82277828163E+01  0.51100000000E-03 0. -1.
        -11    1    3    3    0    0 -0.87005323745E+01 -0.81032440864E+01 -0.51931148352E+01  0.12974215594E+02  0.51100000000E-03 0.  1.
        -12    1    3    3    0    0 -0.67278270369E+01 -0.23197369731E+02 -0.11108334687E+02  0.26585272589E+02  0.00000000000E+00 0.  1.
</event>
<event>
 7    1  0.1418970E-010  0.4778726E+02  0.7816164E-02  0.1312668E+00
        -11   -1    0    0    0    0  0.00000000000E+00  0.00000000000E+00  0.45593999997E+02  0.45594000000E+02  0.51100000000E-03 0.  1.
         11   -1    0    0    0    0 -0.00000000000E+00 -0.00000000000E+00 -0.45593999997E+02  0.45594000000E+02  0.51100000000E-03 0. -1.
    9900012    2    1    2    0    0 -0.28500055854E+02 -0.24743875594E+02  0.21426884068E+02  0.47787263555E+02  0.19999965852E+02 0.  0.
         12    1    1    2    0    0  0.28500055854E+02  0.24743875594E+02 -0.21426884068E+02  0.43400736445E+02  0.00000000000E+00 0. -1.
         11    1    3    3    0    0 -0.81946243633E+01  0.20318638686E+01  0.76903429632E+01  0.11420232677E+02  0.51100000000E-03 0. -1.
        -11    1    3    3    0    0 -0.77742074858E+01 -0.94411734063E+01  0.59863823929E+01  0.13616564608E+02  0.51100000000E-03 0.  1.
         12    1    3    3    0    0 -0.12531224005E+02 -0.17334566057E+02  0.77501587121E+01  0.22750466270E+02  0.00000000000E+00 0. -1.
</event>
<event>
 7    1  0.1418970E-010  0.4778727E+02  0.7816164E-02  0.1312668E+00
        -11   -1    0    0    0    0  0.00000000000E+00  0.00000000000E+00  0.45593999997E+02  0.45594000000E+02  0.51100000000E-03 0.  1.
         11   -1    0    0    0    0 -0.00000000000E+00 -0.00000000000E+00 -0.45593999997E+02  0.45594000000E+02  0.51100000000E-03 0. -1.
    9900012    2    1    2    0    0  0.13863362702E+02 -0.11300878386E+02  0.39543909295E+02  0.47787269130E+02  0.19999991271E+02 0.  0.
         12    1    1    2    0    0 -0.13863362702E+02  0.11300878386E+02 -0.39543909295E+02  0.43400730870E+02  0.00000000000E+00 0. -1.
         11    1    3    3    0    0  0.88299760481E-01 -0.42046719635E+01  0.77369699336E+01  0.88061210067E+01  0.51100000000E-03 0. -1.
        -11    1    3    3    0    0  0.63767729877E+01  0.49664527782E+01  0.14742119426E+02  0.16812464792E+02  0.51100000000E-03 0.  1.
        -12    1    3    3    0    0  0.73982899537E+01 -0.12062659201E+02  0.17064819935E+02  0.22168683331E+02  0.00000000000E+00 0.  1.
</event>
<event>
 7    1  0.1418970E-010  0.4778727E+02  0.7816164E-02  0.1312668E+00
        -11   -1    0    0    0    0  0.00000000000E+00  0.00000000000E+00  0.45593999997E+02  0.45594000000E+02  0.51100000000E-03 0.  1.
         11   -1    0    0    0    0 -0.00000000000E+00 -0.00000000000E+00 -0.45593999997E+02  0.45594000000E+02  0.51100000000E-03 0. -1.
    9900012    2    1    2    0    0 -0.94537006296E+01  0.32169522419E+02  0.27556717073E+02  0.47787270926E+02  0.19999999461E+02 0.  0.
         12    1    1    2    0    0  0.94537006296E+01 -0.32169522419E+02 -0.27556717073E+02  0.43400729074E+02  0.00000000000E+00 0. -1.
         11    1    3    3    0    0 -0.65362160741E+01  0.10700837410E+02  0.50851865622E+01  0.13531044471E+02  0.51100000000E-03 0. -1.
        -11    1    3    3    0    0 -0.29143196579E+01  0.20794118030E+02  0.24413136628E+02  0.32200773966E+02  0.51100000000E-03 0.  1.
         12    1    3    3    0    0 -0.31648976617E-02  0.67456697906E+00 -0.19416061166E+01  0.20554524898E+01  0.00000000000E+00 0. -1.
</event>
<event>
 7    1  0.1418970E-010  0.4778728E+02  0.7816164E-02  0.1312668E+00
        -11   -1    0    0    0    0  0.00000000000E+00  0.00000000000E+00  0.45593999997E+02  0.45594000000E+02  0.51100000000E-03 0. -1.
         11   -1    0    0    0    0 -0.00000000000E+00 -0.00000000000E+00 -0.45593999997E+02  0.45594000000E+02  0.51100000000E-03 0.  1.
    9900012    2    1    2    0    0  0.39723046396E+02 -0.98218934090E+01  0.14464884656E+02  0.47787275430E+02  0.20000019995E+02 0.  0.
         12    1    1    2    0    0 -0.39723046396E+02  0.98218934090E+01 -0.14464884656E+02  0.43400724570E+02  0.00000000000E+00 0. -1.
         11    1    3    3    0    0  0.21075187688E+02 -0.20225500789E+00  0.53540626936E+01  0.21745584167E+02  0.51100000000E-03 0. -1.
        -11    1    3    3    0    0  0.18566374774E+02 -0.11525766898E+02  0.98824744167E+01  0.23983679361E+02  0.51100000000E-03 0.  1.
         12    1    3    3    0    0  0.81483933942E-01  0.19061284970E+01 -0.77165245401E+00  0.20580119019E+01  0.00000000000E+00 0. -1.
</event>
<event>
 7    1  0.1418970E-010  0.4778727E+02  0.7816164E-02  0.1312668E+00
        -11   -1    0    0    0    0  0.00000000000E+00  0.00000000000E+00  0.45593999997E+02  0.45594000000E+02  0.51100000000E-03 0.  1.
         11   -1    0    0    0    0 -0.00000000000E+00 -0.00000000000E+00 -0.45593999997E+02  0.45594000000E+02  0.51100000000E-03 0. -1.
    9900012    2    1    2    0    0  0.15977131530E+02  0.38205269020E+02 -0.12988925328E+02  0.47787268508E+02  0.19999988438E+02 0.  0.
         12    1    1    2    0    0 -0.15977131530E+02 -0.38205269020E+02  0.12988925328E+02  0.43400731492E+02  0.00000000000E+00 0. -1.
         11    1    3    3    0    0 -0.18543049967E+01  0.17228797595E+02 -0.82008340053E+01  0.19170904836E+02  0.51100000000E-03 0. -1.
        -11    1    3    3    0    0  0.10379243923E+02  0.15929469253E+02 -0.48275759993E+01  0.19615865655E+02  0.51100000000E-03 0.  1.
         12    1    3    3    0    0  0.74521926032E+01  0.50470021718E+01  0.39484676513E-01  0.90004980172E+01  0.00000000000E+00 0. -1.
</event>
<event>
 7    1  0.1418970E-010  0.4778728E+02  0.7816164E-02  0.1312668E+00
        -11   -1    0    0    0    0  0.00000000000E+00  0.00000000000E+00  0.45593999997E+02  0.45594000000E+02  0.51100000000E-03 0.  1.
         11   -1    0    0    0    0 -0.00000000000E+00 -0.00000000000E+00 -0.45593999997E+02  0.45594000000E+02  0.51100000000E-03 0. -1.
    9900012    2    1    2    0    0 -0.46688757630E+01  0.19559403533E+02  0.38461069909E+02  0.47787279200E+02  0.20000037183E+02 0.  0.
         12    1    1    2    0    0  0.46688757630E+01 -0.19559403533E+02 -0.38461069909E+02  0.43400720800E+02  0.00000000000E+00 0. -1.
         11    1    3    3    0    0 -0.10396470615E+02  0.14114861875E+02  0.18248313291E+02  0.25304483106E+02  0.51100000000E-03 0. -1.
        -11    1    3    3    0    0  0.29007820314E+01  0.62621228204E+01  0.14038799190E+02  0.15643420392E+02  0.51100000000E-03 0.  1.
        -12    1    3    3    0    0  0.28268128208E+01 -0.81758116169E+00  0.61739574276E+01  0.68393757023E+01  0.00000000000E+00 0.  1.
</event>
<event>
 7    1  0.1418970E-010  0.4778727E+02  0.7816164E-02  0.1312668E+00
        -11   -1    0    0    0    0  0.00000000000E+00  0.00000000000E+00  0.45593999997E+02  0.45594000000E+02  0.51100000000E-03 0. -1.
         11   -1    0    0    0    0 -0.00000000000E+00 -0.00000000000E+00 -0.45593999997E+02  0.45594000000E+02  0.51100000000E-03 0.  1.
    9900012    2    1    2    0    0 -0.23588652569E+02 -0.31582155750E+02 -0.18159467111E+02  0.47787270310E+02  0.19999996652E+02 0.  0.
         12    1    1    2    0    0  0.23588652569E+02  0.31582155750E+02  0.18159467111E+02  0.43400729690E+02  0.00000000000E+00 0. -1.
         11    1    3    3    0    0 -0.23641372789E+02 -0.27348272322E+02 -0.15942719289E+02  0.39509654579E+02  0.51100000000E-03 0. -1.
        -11    1    3    3    0    0  0.70534737134E+00 -0.37680674382E+01 -0.44683870027E+01  0.58874722759E+01  0.51100000000E-03 0.  1.
         12    1    3    3    0    0 -0.65262715207E+00 -0.46581598956E+00  0.22516391809E+01  0.23901434553E+01  0.00000000000E+00 0. -1.
</event>
<event>
 7    1  0.1418970E-010  0.4778728E+02  0.7816164E-02  0.1312668E+00
        -11   -1    0    0    0    0  0.00000000000E+00  0.00000000000E+00  0.45593999997E+02  0.45594000000E+02  0.51100000000E-03 0.  1.
         11   -1    0    0    0    0 -0.00000000000E+00 -0.00000000000E+00 -0.45593999997E+02  0.45594000000E+02  0.51100000000E-03 0. -1.
    9900012    2    1    2    0    0  0.27351455383E+02  0.12698367190E+02  0.31213325299E+02  0.47787282067E+02  0.20000050257E+02 0.  0.
         12    1    1    2    0    0 -0.27351455383E+02 -0.12698367190E+02 -0.31213325299E+02  0.43400717933E+02  0.00000000000E+00 0. -1.
         11    1    3    3    0    0 -0.57271203278E+00  0.29450366817E+01  0.62316450625E+01  0.69162591460E+01  0.51100000000E-03 0. -1.
        -11    1    3    3    0    0  0.13869894470E+02  0.68439789835E+01  0.49714361681E+01  0.16245897906E+02  0.51100000000E-03 0.  1.
         12    1    3    3    0    0  0.14054272946E+02  0.29093515249E+01  0.20010244068E+02  0.24625125015E+02  0.00000000000E+00 0. -1.
</event>
<event>
 7    1  0.1418970E-010  0.4778728E+02  0.7816164E-02  0.1312668E+00
        -11   -1    0    0    0    0  0.00000000000E+00  0.00000000000E+00  0.45593999997E+02  0.45594000000E+02  0.51100000000E-03 0. -1.
         11   -1    0    0    0    0 -0.00000000000E+00 -0.00000000000E+00 -0.45593999997E+02  0.45594000000E+02  0.51100000000E-03 0.  1.
    9900012    2    1    2    0    0  0.67991570251E+01  0.33324385499E+02 -0.26960704888E+02  0.47787276352E+02  0.20000024198E+02 0.  0.
         12    1    1    2    0    0 -0.67991570251E+01 -0.33324385499E+02  0.26960704888E+02  0.43400723648E+02  0.00000000000E+00 0. -1.
         11    1    3    3    0    0  0.63688499271E+01  0.13326936335E+02 -0.44883124295E+01  0.15437435998E+02  0.51100000000E-03 0. -1.
        -11    1    3    3    0    0  0.47296193498E+01  0.60120946147E+01 -0.12459862214E+02  0.14620627466E+02  0.51100000000E-03 0.  1.
        -12    1    3    3    0    0 -0.42993122518E+01  0.13985354549E+02 -0.10012530245E+02  0.17729212887E+02  0.00000000000E+00 0.  1.
</event>
<event>
 7    1  0.1418970E-010  0.4778727E+02  0.7816164E-02  0.1312668E+00
        -11   -1    0    0    0    0  0.00000000000E+00  0.00000000000E+00  0.45593999997E+02  0.45594000000E+02  0.51100000000E-03 0.  1.
         11   -1    0    0    0    0 -0.00000000000E+00 -0.00000000000E+00 -0.45593999997E+02  0.45594000000E+02  0.51100000000E-03 0. -1.
    9900012    2    1    2    0    0  0.12146513787E+02  0.10838767847E+02  0.40231907886E+02  0.47787273074E+02  0.20000009251E+02 0.  0.
         12    1    1    2    0    0 -0.12146513787E+02 -0.10838767847E+02 -0.40231907886E+02  0.43400726926E+02  0.00000000000E+00 0. -1.
         11    1    3    3    0    0 -0.17003288728E+01 -0.38385061232E+00  0.39642571944E+01  0.43305651978E+01  0.51100000000E-03 0. -1.
        -11    1    3    3    0    0  0.14119117159E+02  0.13333830198E+02  0.36470124739E+02  0.41318403839E+02  0.51100000000E-03 0.  1.
        -12    1    3    3    0    0 -0.27227449961E+00 -0.21112117394E+01 -0.20247404727E+00  0.21383040363E+01  0.00000000000E+00 0.  1.
</event>
<event>
 7    1  0.1418970E-010  0.4778727E+02  0.7816164E-02  0.1312668E+00
        -11   -1    0    0    0    0  0.00000000000E+00  0.00000000000E+00  0.45593999997E+02  0.45594000000E+02  0.51100000000E-03 0. -1.
         11   -1    0    0    0    0 -0.00000000000E+00 -0.00000000000E+00 -0.45593999997E+02  0.45594000000E+02  0.51100000000E-03 0.  1.
    9900012    2    1    2    0    0  0.25996566767E+02 -0.28122439668E+02  0.20418863876E+02  0.47787273065E+02  0.20000009213E+02 0.  0.
         12    1    1    2    0    0 -0.25996566767E+02  0.28122439668E+02 -0.20418863876E+02  0.43400726935E+02  0.00000000000E+00 0. -1.
         11    1    3    3    0    0  0.46679538431E+00 -0.26816516934E+01 -0.81326793596E+00  0.28408728821E+01  0.51100000000E-03 0. -1.
        -11    1    3    3    0    0  0.26624279183E+02 -0.18507101864E+02  0.15794090988E+02  0.36066859744E+02  0.51100000000E-03 0.  1.
        -12    1    3    3    0    0 -0.10945078006E+01 -0.69336861107E+01  0.54380408240E+01  0.88795404391E+01  0.00000000000E+00 0.  1.
</event>
<event>
 7    1  0.1418970E-010  0.4778727E+02  0.7816164E-02  0.1312668E+00
        -11   -1    0    0    0    0  0.00000000000E+00  0.00000000000E+00  0.45593999997E+02  0.45594000000E+02  0.51100000000E-03 0.  1.
         11   -1    0    0    0    0 -0.00000000000E+00 -0.00000000000E+00 -0.45593999997E+02  0.45594000000E+02  0.51100000000E-03 0. -1.
    9900012    2    1    2    0    0 -0.14242080363E+02  0.26507899043E+02  0.31274880815E+02  0.47787265735E+02  0.19999975792E+02 0.  0.
         12    1    1    2    0    0  0.14242080363E+02 -0.26507899043E+02 -0.31274880815E+02  0.43400734265E+02  0.00000000000E+00 0. -1.
         11    1    3    3    0    0  0.20000060915E+01  0.27368744562E+01  0.53410639920E+01  0.63259363720E+01  0.51100000000E-03 0. -1.
        -11    1    3    3    0    0 -0.17592787142E+02  0.21966535409E+02  0.26970783802E+02  0.38980225967E+02  0.51100000000E-03 0.  1.
        -12    1    3    3    0    0  0.13507006880E+01  0.18044891783E+01 -0.10369669794E+01  0.24811033956E+01  0.00000000000E+00 0.  1.
</event>
<event>
 7    1  0.1418970E-010  0.4778727E+02  0.7816164E-02  0.1312668E+00
        -11   -1    0    0    0    0  0.00000000000E+00  0.00000000000E+00  0.45593999997E+02  0.45594000000E+02  0.51100000000E-03 0.  1.
         11   -1    0    0    0    0 -0.00000000000E+00 -0.00000000000E+00 -0.45593999997E+02  0.45594000000E+02  0.51100000000E-03 0. -1.
    9900012    2    1    2    0    0 -0.50738617324E+01 -0.42352833588E+02  0.80072959111E+01  0.47787269896E+02  0.19999994762E+02 0.  0.
         12    1    1    2    0    0  0.50738617324E+01  0.42352833588E+02 -0.80072959111E+01  0.43400730104E+02  0.00000000000E+00 0. -1.
         11    1    3    3    0    0  0.37605284978E+01 -0.11273756812E+02 -0.18587987246E+00  0.11885862141E+02  0.51100000000E-03 0. -1.
        -11    1    3    3    0    0  0.56161920559E+00  0.12029569603E+01  0.42575081413E+00  0.13941971156E+01  0.51100000000E-03 0.  1.
        -12    1    3    3    0    0 -0.93960094358E+01 -0.32282033736E+02  0.77674249695E+01  0.34507210639E+02  0.00000000000E+00 0.  1.
</event>
<event>
 7    1  0.1418970E-010  0.4778726E+02  0.7816164E-02  0.1312668E+00
        -11   -1    0    0    0    0  0.00000000000E+00  0.00000000000E+00  0.45593999997E+02  0.45594000000E+02  0.51100000000E-03 0.  1.
         11   -1    0    0    0    0 -0.00000000000E+00 -0.00000000000E+00 -0.45593999997E+02  0.45594000000E+02  0.51100000000E-03 0. -1.
    9900012    2    1    2    0    0  0.13396992024E+02 -0.15166018035E+02  0.38394491341E+02  0.47787257338E+02  0.19999937506E+02 0.  0.
         12    1    1    2    0    0 -0.13396992024E+02  0.15166018035E+02 -0.38394491341E+02  0.43400742662E+02  0.00000000000E+00 0. -1.
         11    1    3    3    0    0  0.57694583625E+01 -0.86908694993E+01  0.65247032645E+01  0.12304048740E+02  0.51100000000E-03 0. -1.
        -11    1    3    3    0    0  0.52831814684E+01 -0.48391609901E+01  0.56934287506E+01  0.91512084838E+01  0.51100000000E-03 0.  1.
        -12    1    3    3    0    0  0.23443521933E+01 -0.16359875457E+01  0.26176359325E+02  0.26332000114E+02  0.00000000000E+00 0.  1.
</event>
<event>
 7    1  0.1418970E-010  0.4778727E+02  0.7816164E-02  0.1312668E+00
        -11   -1    0    0    0    0  0.00000000000E+00  0.00000000000E+00  0.45593999997E+02  0.45594000000E+02  0.51100000000E-03 0. -1.
         11   -1    0    0    0    0 -0.00000000000E+00 -0.00000000000E+00 -0.45593999997E+02  0.45594000000E+02  0.51100000000E-03 0.  1.
    9900012    2    1    2    0    0 -0.29417809536E+01 -0.39228691453E+02 -0.18332456343E+02  0.47787271160E+02  0.20000000527E+02 0.  0.
         12    1    1    2    0    0  0.29417809536E+01  0.39228691453E+02  0.18332456343E+02  0.43400728840E+02  0.00000000000E+00 0. -1.
         11    1    3    3    0    0 -0.78702571300E+00  0.72048852942E+00  0.14930549544E+01  0.18351366575E+01  0.51100000000E-03 0. -1.
        -11    1    3    3    0    0 -0.46266160675E+00 -0.21645820002E+02 -0.47176605485E+01  0.22158788339E+02  0.51100000000E-03 0.  1.
         12    1    3    3    0    0 -0.16920936339E+01 -0.18303359980E+02 -0.15107850749E+02  0.23793346164E+02  0.00000000000E+00 0. -1.
</event>
<event>
 7    1  0.1418970E-010  0.4778727E+02  0.7816164E-02  0.1312668E+00
        -11   -1    0    0    0    0  0.00000000000E+00  0.00000000000E+00  0.45593999997E+02  0.45594000000E+02  0.51100000000E-03 0. -1.
         11   -1    0    0    0    0 -0.00000000000E+00 -0.00000000000E+00 -0.45593999997E+02  0.45594000000E+02  0.51100000000E-03 0.  1.
    9900012    2    1    2    0    0  0.22083744096E+02 -0.27916162566E+02 -0.24831824036E+02  0.47787269929E+02  0.19999994915E+02 0.  0.
         12    1    1    2    0    0 -0.22083744096E+02  0.27916162566E+02  0.24831824036E+02  0.43400730071E+02  0.00000000000E+00 0. -1.
         11    1    3    3    0    0  0.15718646685E+02 -0.14165422979E+02 -0.56517356968E+01  0.21901533701E+02  0.51100000000E-03 0. -1.
        -11    1    3    3    0    0  0.53653845145E+01 -0.12709235493E+02 -0.11181072683E+02  0.17757488685E+02  0.51100000000E-03 0.  1.
         12    1    3    3    0    0  0.99971289623E+00 -0.10415040944E+01 -0.79990156567E+01  0.81282475436E+01  0.00000000000E+00 0. -1.
</event>
<event>
 7    1  0.1418970E-010  0.4778727E+02  0.7816164E-02  0.1312668E+00
        -11   -1    0    0    0    0  0.00000000000E+00  0.00000000000E+00  0.45593999997E+02  0.45594000000E+02  0.51100000000E-03 0.  1.
         11   -1    0    0    0    0 -0.00000000000E+00 -0.00000000000E+00 -0.45593999997E+02  0.45594000000E+02  0.51100000000E-03 0. -1.
    9900012    2    1    2    0    0 -0.37348882887E+00 -0.91624969013E+01  0.42420896894E+02  0.47787270322E+02  0.19999996704E+02 0.  0.
         12    1    1    2    0    0  0.37348882887E+00  0.91624969013E+01 -0.42420896894E+02  0.43400729678E+02  0.00000000000E+00 0. -1.
         11    1    3    3    0    0  0.44532198691E+01 -0.15184296050E+01  0.30931375490E+02  0.31287166469E+02  0.51100000000E-03 0. -1.
        -11    1    3    3    0    0  0.79554245085E+00 -0.58858156333E+01  0.61453483660E+01  0.85464039374E+01  0.51100000000E-03 0.  1.
         12    1    3    3    0    0 -0.56222511489E+01 -0.17582516630E+01  0.53441730374E+01  0.79536999154E+01  0.00000000000E+00 0. -1.
</event>
<event>
 7    1  0.1418970E-010  0.4778727E+02  0.7816164E-02  0.1312668E+00
        -11   -1    0    0    0    0  0.00000000000E+00  0.00000000000E+00  0.45593999997E+02  0.45594000000E+02  0.51100000000E-03 0. -1.
         11   -1    0    0    0    0 -0.00000000000E+00 -0.00000000000E+00 -0.45593999997E+02  0.45594000000E+02  0.51100000000E-03 0.  1.
    9900012    2    1    2    0    0 -0.24352503276E+02 -0.33250400727E+02 -0.13601090799E+02  0.47787271489E+02  0.20000002028E+02 0.  0.
         12    1    1    2    0    0  0.24352503276E+02  0.33250400727E+02  0.13601090799E+02  0.43400728511E+02  0.00000000000E+00 0. -1.
         11    1    3    3    0    0 -0.16726052268E+02 -0.14371588087E+02  0.76337044869E+00  0.22065495764E+02  0.51100000000E-03 0. -1.
        -11    1    3    3    0    0 -0.40458193644E+01 -0.13052104891E+02 -0.60179445118E+01  0.14931234136E+02  0.51100000000E-03 0.  1.
         12    1    3    3    0    0 -0.35806316441E+01 -0.58267077502E+01 -0.83465167361E+01  0.10790541590E+02  0.00000000000E+00 0. -1.
</event>
<event>
 7    1  0.1418970E-010  0.4778727E+02  0.7816164E-02  0.1312668E+00
        -11   -1    0    0    0    0  0.00000000000E+00  0.00000000000E+00  0.45593999997E+02  0.45594000000E+02  0.51100000000E-03 0.  1.
         11   -1    0    0    0    0 -0.00000000000E+00 -0.00000000000E+00 -0.45593999997E+02  0.45594000000E+02  0.51100000000E-03 0. -1.
    9900012    2    1    2    0    0  0.71409368079E+01 -0.15069294385E+02  0.40069273926E+02  0.47787270459E+02  0.19999997331E+02 0.  0.
         12    1    1    2    0    0 -0.71409368079E+01  0.15069294385E+02 -0.40069273926E+02  0.43400729541E+02  0.00000000000E+00 0. -1.
         11    1    3    3    0    0 -0.99961633793E+00  0.22949639874E+01  0.17799691889E+01  0.30715440907E+01  0.51100000000E-03 0. -1.
        -11    1    3    3    0    0  0.61329280273E+01 -0.14736681260E+02  0.17584919682E+02  0.23748936423E+02  0.51100000000E-03 0.  1.
         12    1    3    3    0    0  0.20076251185E+01 -0.26275771118E+01  0.20704385055E+02  0.20966789945E+02  0.00000000000E+00 0. -1.
</event>
<event>
 7    1  0.1418970E-010  0.4778727E+02  0.7816164E-02  0.1312668E+00
        -11   -1    0    0    0    0  0.00000000000E+00  0.00000000000E+00  0.45593999997E+02  0.45594000000E+02  0.51100000000E-03 0.  1.
         11   -1    0    0    0    0 -0.00000000000E+00 -0.00000000000E+00 -0.45593999997E+02  0.45594000000E+02  0.51100000000E-03 0. -1.
    9900012    2    1    2    0    0  0.21089642429E+02  0.58835137560E+01  0.37473116559E+02  0.47787271705E+02  0.20000003013E+02 0.  0.
         12    1    1    2    0    0 -0.21089642429E+02 -0.58835137560E+01 -0.37473116559E+02  0.43400728295E+02  0.00000000000E+00 0. -1.
         11    1    3    3    0    0  0.13158781676E+00  0.55700424371E+01  0.12463450148E+02  0.13652116244E+02  0.51100000000E-03 0. -1.
        -11    1    3    3    0    0  0.10655983717E+02 -0.13507747607E+01  0.19672567351E+02  0.22413935127E+02  0.51100000000E-03 0.  1.
         12    1    3    3    0    0  0.10302070895E+02  0.16642460797E+01  0.53370990598E+01  0.11721220334E+02  0.00000000000E+00 0. -1.
</event>
<event>
 7    1  0.1418970E-010  0.4778728E+02  0.7816164E-02  0.1312668E+00
        -11   -1    0    0    0    0  0.00000000000E+00  0.00000000000E+00  0.45593999997E+02  0.45594000000E+02  0.51100000000E-03 0.  1.
         11   -1    0    0    0    0 -0.00000000000E+00 -0.00000000000E+00 -0.45593999997E+02  0.45594000000E+02  0.51100000000E-03 0. -1.
    9900012    2    1    2    0    0  0.19097885747E+02  0.22733508620E+02  0.31655665928E+02  0.47787276048E+02  0.20000022813E+02 0.  0.
         12    1    1    2    0    0 -0.19097885747E+02 -0.22733508620E+02 -0.31655665928E+02  0.43400723952E+02  0.00000000000E+00 0. -1.
         11    1    3    3    0    0  0.50765720674E+01  0.98145387884E+01  0.84581512543E+01  0.13915354055E+02  0.51100000000E-03 0.  1.
        -11    1    3    3    0    0  0.11439604325E+02  0.37620897246E+00  0.78275938529E+01  0.13866409272E+02  0.51100000000E-03 0. -1.
         12    1    3    3    0    0  0.25817093544E+01  0.12542760860E+02  0.15369920821E+02  0.20005512721E+02  0.00000000000E+00 0. -1.
</event>
<event>
 7    1  0.1418970E-010  0.4778727E+02  0.7816164E-02  0.1312668E+00
        -11   -1    0    0    0    0  0.00000000000E+00  0.00000000000E+00  0.45593999997E+02  0.45594000000E+02  0.51100000000E-03 0.  1.
         11   -1    0    0    0    0 -0.00000000000E+00 -0.00000000000E+00 -0.45593999997E+02  0.45594000000E+02  0.51100000000E-03 0. -1.
    9900012    2    1    2    0    0  0.98693072982E+01  0.22240180976E+02  0.35938759541E+02  0.47787270585E+02  0.19999997904E+02 0.  0.
         12    1    1    2    0    0 -0.98693072982E+01 -0.22240180976E+02 -0.35938759541E+02  0.43400729415E+02  0.00000000000E+00 0. -1.
         11    1    3    3    0    0 -0.87439669602E+00  0.56636435251E+01  0.15608633082E+02  0.16627412742E+02  0.51100000000E-03 0. -1.
        -11    1    3    3    0    0  0.20599580493E+01  0.12792242572E+02  0.67707090147E+01  0.14619418525E+02  0.51100000000E-03 0.  1.
        -12    1    3    3    0    0  0.86837459449E+01  0.37842948791E+01  0.13559417445E+02  0.16540439317E+02  0.00000000000E+00 0.  1.
</event>
<event>
 7    1  0.1596827E-010  0.4778727E+02  0.7816164E-02  0.1312668E+00
        -11   -1    0    0    0    0  0.00000000000E+00  0.00000000000E+00  0.45593999997E+02  0.45594000000E+02  0.51100000000E-03 0.  1.
         11   -1    0    0    0    0 -0.00000000000E+00 -0.00000000000E+00 -0.45593999997E+02  0.45594000000E+02  0.51100000000E-03 0. -1.
    9900012    2    1    2    0    0  0.30033073489E+02 -0.24363030481E+02  0.19699752506E+02  0.47787274128E+02  0.20000014058E+02 0.  0.
         12    1    1    2    0    0 -0.30033073489E+02  0.24363030481E+02 -0.19699752506E+02  0.43400725872E+02  0.00000000000E+00 0. -1.
         11    1    3    3    0    0  0.61748510062E+01 -0.13868109768E+01 -0.18584776275E+01  0.65959054713E+01  0.51100000000E-03 0. -1.
        -11    1    3    3    0    0  0.40075143893E+01 -0.11310241267E+02  0.61200899489E+01  0.13469863784E+02  0.51100000000E-03 0.  1.
        -12    1    3    3    0    0  0.19850708094E+02 -0.11665978237E+02  0.15438140185E+02  0.27721504873E+02  0.00000000000E+00 0.  1.
</event>
<event>
 7    1  0.1418970E-010  0.4778727E+02  0.7816164E-02  0.1312668E+00
        -11   -1    0    0    0    0  0.00000000000E+00  0.00000000000E+00  0.45593999997E+02  0.45594000000E+02  0.51100000000E-03 0.  1.
         11   -1    0    0    0    0 -0.00000000000E+00 -0.00000000000E+00 -0.45593999997E+02  0.45594000000E+02  0.51100000000E-03 0. -1.
    9900012    2    1    2    0    0 -0.36375454873E+02  0.53809134100E+01  0.23054184878E+02  0.47787269745E+02  0.19999994074E+02 0.  0.
         12    1    1    2    0    0  0.36375454873E+02 -0.53809134100E+01 -0.23054184878E+02  0.43400730255E+02  0.00000000000E+00 0. -1.
         11    1    3    3    0    0 -0.15264334684E+02  0.76922731132E+01  0.28564025772E+01  0.17330032168E+02  0.51100000000E-03 0. -1.
        -11    1    3    3    0    0 -0.64522358074E+01  0.24362388577E+01  0.34920981760E+01  0.77305469806E+01  0.51100000000E-03 0.  1.
        -12    1    3    3    0    0 -0.14658884381E+02 -0.47475985608E+01  0.16705684124E+02  0.22726690596E+02  0.00000000000E+00 0.  1.
</event>
<event>
 7    1  0.1418970E-010  0.4778728E+02  0.7816164E-02  0.1312668E+00
        -11   -1    0    0    0    0  0.00000000000E+00  0.00000000000E+00  0.45593999997E+02  0.45594000000E+02  0.51100000000E-03 0.  1.
         11   -1    0    0    0    0 -0.00000000000E+00 -0.00000000000E+00 -0.45593999997E+02  0.45594000000E+02  0.51100000000E-03 0. -1.
    9900012    2    1    2    0    0  0.15559988562E+02 -0.25411781970E+02  0.31555515547E+02  0.47787280325E+02  0.20000042312E+02 0.  0.
         12    1    1    2    0    0 -0.15559988562E+02  0.25411781970E+02 -0.31555515547E+02  0.43400719675E+02  0.00000000000E+00 0. -1.
         11    1    3    3    0    0 -0.40444434261E+01 -0.34856650813E+01  0.29854834098E+01  0.61172293677E+01  0.51100000000E-03 0. -1.
        -11    1    3    3    0    0  0.72902603844E+01 -0.85922344802E+01  0.61946094211E+01  0.12858754838E+02  0.51100000000E-03 0.  1.
        -12    1    3    3    0    0  0.12314171604E+02 -0.13333882408E+02  0.22375422716E+02  0.28811296119E+02  0.00000000000E+00 0.  1.
</event>
<event>
 7    1  0.1418970E-010  0.4778728E+02  0.7816164E-02  0.1312668E+00
        -11   -1    0    0    0    0  0.00000000000E+00  0.00000000000E+00  0.45593999997E+02  0.45594000000E+02  0.51100000000E-03 0.  1.
         11   -1    0    0    0    0 -0.00000000000E+00 -0.00000000000E+00 -0.45593999997E+02  0.45594000000E+02  0.51100000000E-03 0. -1.
    9900012    2    1    2    0    0 -0.10920103486E+02 -0.41287711150E+02  0.77265000970E+01  0.47787279316E+02  0.20000037712E+02 0.  0.
         12    1    1    2    0    0  0.10920103486E+02  0.41287711150E+02 -0.77265000970E+01  0.43400720684E+02  0.00000000000E+00 0. -1.
         11    1    3    3    0    0  0.24659061434E+01 -0.24383664978E+01 -0.79199937809E-01  0.34688034215E+01  0.51100000000E-03 0. -1.
        -11    1    3    3    0    0  0.20207800235E+01 -0.13904746337E+02  0.30003580580E+00  0.14054022355E+02  0.51100000000E-03 0.  1.
         12    1    3    3    0    0 -0.15406789653E+02 -0.24944598315E+02  0.75056642290E+01  0.30264453539E+02  0.00000000000E+00 0. -1.
</event>
<event>
 7    1  0.1418970E-010  0.4778727E+02  0.7816164E-02  0.1312668E+00
        -11   -1    0    0    0    0  0.00000000000E+00  0.00000000000E+00  0.45593999997E+02  0.45594000000E+02  0.51100000000E-03 0. -1.
         11   -1    0    0    0    0 -0.00000000000E+00 -0.00000000000E+00 -0.45593999997E+02  0.45594000000E+02  0.51100000000E-03 0.  1.
    9900012    2    1    2    0    0 -0.32680997082E+02 -0.21872917282E+02 -0.18361673384E+02  0.47787272700E+02  0.20000007547E+02 0.  0.
         12    1    1    2    0    0  0.32680997082E+02  0.21872917282E+02  0.18361673384E+02  0.43400727300E+02  0.00000000000E+00 0. -1.
         11    1    3    3    0    0  0.30190009524E+00  0.10955506156E+01 -0.31424395681E+01  0.33416016398E+01  0.51100000000E-03 0.  1.
        -11    1    3    3    0    0 -0.17065638448E+02 -0.18475317262E+02 -0.10420979121E+02  0.27224440668E+02  0.51100000000E-03 0. -1.
         12    1    3    3    0    0 -0.15917258730E+02 -0.44931506356E+01 -0.47982546951E+01  0.17221230392E+02  0.00000000000E+00 0. -1.
</event>
<event>
 7    1  0.1494868E-010  0.4778727E+02  0.7816164E-02  0.1312668E+00
        -11   -1    0    0    0    0  0.00000000000E+00  0.00000000000E+00  0.45593999997E+02  0.45594000000E+02  0.51100000000E-03 0.  1.
         11   -1    0    0    0    0 -0.00000000000E+00 -0.00000000000E+00 -0.45593999997E+02  0.45594000000E+02  0.51100000000E-03 0. -1.
    9900012    2    1    2    0    0  0.21341802485E+01 -0.28423484825E+02  0.32728796729E+02  0.47787270164E+02  0.19999995987E+02 0.  0.
         12    1    1    2    0    0 -0.21341802485E+01  0.28423484825E+02 -0.32728796729E+02  0.43400729836E+02  0.00000000000E+00 0. -1.
         11    1    3    3    0    0  0.69404350148E+01 -0.62945483576E+01  0.91724589831E+01  0.13112016675E+02  0.51100000000E-03 0. -1.
        -11    1    3    3    0    0 -0.30560302672E+01 -0.61635292974E+01  0.95076106923E+00  0.69449522148E+01  0.51100000000E-03 0.  1.
        -12    1    3    3    0    0 -0.17502244992E+01 -0.15965407170E+02  0.22605576676E+02  0.27730301275E+02  0.00000000000E+00 0.  1.
</event>
<event>
 7    1  0.1418970E-010  0.4778727E+02  0.7816164E-02  0.1312668E+00
        -11   -1    0    0    0    0  0.00000000000E+00  0.00000000000E+00  0.45593999997E+02  0.45594000000E+02  0.51100000000E-03 0. -1.
         11   -1    0    0    0    0 -0.00000000000E+00 -0.00000000000E+00 -0.45593999997E+02  0.45594000000E+02  0.51100000000E-03 0.  1.
    9900012    2    1    2    0    0 -0.11494819075E+02  0.21615486431E+02 -0.35836619209E+02  0.47787269643E+02  0.19999993609E+02 0.  0.
         12    1    1    2    0    0  0.11494819075E+02 -0.21615486431E+02  0.35836619209E+02  0.43400730357E+02  0.00000000000E+00 0. -1.
         11    1    3    3    0    0  0.31640384485E+01  0.17717229590E+01 -0.23998969336E+01  0.43485224042E+01  0.51100000000E-03 0. -1.
        -11    1    3    3    0    0 -0.88808213847E+01  0.19610197331E+02 -0.29164156584E+02  0.36248818703E+02  0.51100000000E-03 0.  1.
         12    1    3    3    0    0 -0.57780361387E+01  0.23356614097E+00 -0.42725656917E+01  0.71899285360E+01  0.00000000000E+00 0. -1.
</event>
<event>
 7    1  0.1418970E-010  0.4778726E+02  0.7816164E-02  0.1312668E+00
        -11   -1    0    0    0    0  0.00000000000E+00  0.00000000000E+00  0.45593999997E+02  0.45594000000E+02  0.51100000000E-03 0.  1.
         11   -1    0    0    0    0 -0.00000000000E+00 -0.00000000000E+00 -0.45593999997E+02  0.45594000000E+02  0.51100000000E-03 0. -1.
    9900012    2    1    2    0    0 -0.39238139344E+02 -0.16736619579E+02  0.79923857792E+01  0.47787259861E+02  0.19999949011E+02 0.  0.
         12    1    1    2    0    0  0.39238139344E+02  0.16736619579E+02 -0.79923857792E+01  0.43400740139E+02  0.00000000000E+00 0. -1.
         11    1    3    3    0    0 -0.16067319173E+02 -0.13982856239E+02  0.16342475651E+01  0.21362344894E+02  0.51100000000E-03 0. -1.
        -11    1    3    3    0    0 -0.12465225776E+02 -0.42139846951E+01  0.81425016840E+01  0.15473844209E+02  0.51100000000E-03 0.  1.
        -12    1    3    3    0    0 -0.10705594396E+02  0.14602213549E+01 -0.17843634700E+01  0.10951070759E+02  0.00000000000E+00 0.  1.
</event>
<event>
 7    1  0.1418970E-010  0.4778727E+02  0.7816164E-02  0.1312668E+00
        -11   -1    0    0    0    0  0.00000000000E+00  0.00000000000E+00  0.45593999997E+02  0.45594000000E+02  0.51100000000E-03 0.  1.
         11   -1    0    0    0    0 -0.00000000000E+00 -0.00000000000E+00 -0.45593999997E+02  0.45594000000E+02  0.51100000000E-03 0. -1.
    9900012    2    1    2    0    0  0.92517392637E+01  0.30749055028E+02  0.29198013384E+02  0.47787273622E+02  0.20000011753E+02 0.  0.
         12    1    1    2    0    0 -0.92517392637E+01 -0.30749055028E+02 -0.29198013384E+02  0.43400726378E+02  0.00000000000E+00 0. -1.
         11    1    3    3    0    0 -0.27878089031E+01  0.37126029053E+00  0.34550789719E+00  0.28335646546E+01  0.51100000000E-03 0. -1.
        -11    1    3    3    0    0  0.33234614698E+01  0.21515338306E+02  0.21016098725E+02  0.30259404893E+02  0.51100000000E-03 0.  1.
         12    1    3    3    0    0  0.87160866970E+01  0.88624564313E+01  0.78364067615E+01  0.14694304075E+02  0.00000000000E+00 0. -1.
</event>
<event>
 7    1  0.1418970E-010  0.4778727E+02  0.7816164E-02  0.1312668E+00
        -11   -1    0    0    0    0  0.00000000000E+00  0.00000000000E+00  0.45593999997E+02  0.45594000000E+02  0.51100000000E-03 0.  1.
         11   -1    0    0    0    0 -0.00000000000E+00 -0.00000000000E+00 -0.45593999997E+02  0.45594000000E+02  0.51100000000E-03 0. -1.
    9900012    2    1    2    0    0 -0.36316585368E+02  0.51633257432E+01  0.23196310939E+02  0.47787272510E+02  0.20000006683E+02 0.  0.
         12    1    1    2    0    0  0.36316585368E+02 -0.51633257432E+01 -0.23196310939E+02  0.43400727490E+02  0.00000000000E+00 0. -1.
         11    1    3    3    0    0 -0.48520582272E+01 -0.21972817650E+00  0.85830595113E+01  0.98620312485E+01  0.51100000000E-03 0. -1.
        -11    1    3    3    0    0 -0.66123381365E+01 -0.20524130979E+01  0.90501724344E+01  0.11394781108E+02  0.51100000000E-03 0.  1.
         12    1    3    3    0    0 -0.24852189004E+02  0.74354670176E+01  0.55630789930E+01  0.26530460153E+02  0.00000000000E+00 0. -1.
</event>
<event>
 7    1  0.1418970E-010  0.4778727E+02  0.7816164E-02  0.1312668E+00
        -11   -1    0    0    0    0  0.00000000000E+00  0.00000000000E+00  0.45593999997E+02  0.45594000000E+02  0.51100000000E-03 0. -1.
         11   -1    0    0    0    0 -0.00000000000E+00 -0.00000000000E+00 -0.45593999997E+02  0.45594000000E+02  0.51100000000E-03 0.  1.
    9900012    2    1    2    0    0  0.87836669957E+01  0.26991441120E+02 -0.32831881904E+02  0.47787272253E+02  0.20000005510E+02 0.  0.
         12    1    1    2    0    0 -0.87836669957E+01 -0.26991441120E+02  0.32831881904E+02  0.43400727747E+02  0.00000000000E+00 0. -1.
         11    1    3    3    0    0  0.63748481087E+01  0.38533787926E+01 -0.94190128330E+01  0.12008539442E+02  0.51100000000E-03 0. -1.
        -11    1    3    3    0    0 -0.47700147787E+01  0.30953960398E+01 -0.60892560782E+01  0.83314799093E+01  0.51100000000E-03 0.  1.
        -12    1    3    3    0    0  0.71788336657E+01  0.20042666287E+02 -0.17323612993E+02  0.27447252901E+02  0.00000000000E+00 0.  1.
</event>
<event>
 7    1  0.1418970E-010  0.4778726E+02  0.7816164E-02  0.1312668E+00
        -11   -1    0    0    0    0  0.00000000000E+00  0.00000000000E+00  0.45593999997E+02  0.45594000000E+02  0.51100000000E-03 0.  1.
         11   -1    0    0    0    0 -0.00000000000E+00 -0.00000000000E+00 -0.45593999997E+02  0.45594000000E+02  0.51100000000E-03 0. -1.
    9900012    2    1    2    0    0 -0.39755888247E+02 -0.12744800101E+02  0.11860153236E+02  0.47787264813E+02  0.19999971590E+02 0.  0.
         12    1    1    2    0    0  0.39755888247E+02  0.12744800101E+02 -0.11860153236E+02  0.43400735187E+02  0.00000000000E+00 0. -1.
         11    1    3    3    0    0 -0.51887782347E+00  0.20046498559E+01 -0.10908287557E+00  0.20735849573E+01  0.51100000000E-03 0. -1.
        -11    1    3    3    0    0 -0.25328009018E+02 -0.16238237620E+02  0.72147492071E+01  0.30939311696E+02  0.51100000000E-03 0.  1.
        -12    1    3    3    0    0 -0.13909001406E+02  0.14887876631E+01  0.47544869045E+01  0.14774368160E+02  0.00000000000E+00 0.  1.
</event>
<event>
 7    1  0.1418970E-010  0.4778726E+02  0.7816164E-02  0.1312668E+00
        -11   -1    0    0    0    0  0.00000000000E+00  0.00000000000E+00  0.45593999997E+02  0.45594000000E+02  0.51100000000E-03 0.  1.
         11   -1    0    0    0    0 -0.00000000000E+00 -0.00000000000E+00 -0.45593999997E+02  0.45594000000E+02  0.51100000000E-03 0. -1.
    9900012    2    1    2    0    0 -0.15627364611E+02 -0.38498096326E+01  0.40306185015E+02  0.47787261420E+02  0.19999956116E+02 0.  0.
         12    1    1    2    0    0  0.15627364611E+02  0.38498096326E+01 -0.40306185015E+02  0.43400738580E+02  0.00000000000E+00 0. -1.
         11    1    3    3    0    0 -0.58137499633E+01 -0.57099238272E+00 -0.30970437042E+00  0.58499263239E+01  0.51100000000E-03 0. -1.
        -11    1    3    3    0    0 -0.25667885697E+01 -0.15068479882E+01  0.12331322041E+02  0.12685444334E+02  0.51100000000E-03 0.  1.
         12    1    3    3    0    0 -0.72468260776E+01 -0.17719692617E+01  0.28284567345E+02  0.29251890762E+02  0.00000000000E+00 0. -1.
</event>
<event>
 7    1  0.1418970E-010  0.4778727E+02  0.7816164E-02  0.1312668E+00
        -11   -1    0    0    0    0  0.00000000000E+00  0.00000000000E+00  0.45593999997E+02  0.45594000000E+02  0.51100000000E-03 0.  1.
         11   -1    0    0    0    0 -0.00000000000E+00 -0.00000000000E+00 -0.45593999997E+02  0.45594000000E+02  0.51100000000E-03 0. -1.
    9900012    2    1    2    0    0 -0.16779052168E+02 -0.30502906853E+01  0.39909677201E+02  0.47787271904E+02  0.20000003921E+02 0.  0.
         12    1    1    2    0    0  0.16779052168E+02  0.30502906853E+01 -0.39909677201E+02  0.43400728096E+02  0.00000000000E+00 0. -1.
         11    1    3    3    0    0 -0.61668423997E+01 -0.15013619541E+01  0.71769077443E+01  0.95808161412E+01  0.51100000000E-03 0. -1.
        -11    1    3    3    0    0  0.39599233014E+01  0.50172654199E+00  0.12946169384E+02  0.13547546791E+02  0.51100000000E-03 0.  1.
        -12    1    3    3    0    0 -0.14572133070E+02 -0.20506552732E+01  0.19786600073E+02  0.24658908972E+02  0.00000000000E+00 0.  1.
</event>
<event>
 7    1  0.1418970E-010  0.4778728E+02  0.7816164E-02  0.1312668E+00
        -11   -1    0    0    0    0  0.00000000000E+00  0.00000000000E+00  0.45593999997E+02  0.45594000000E+02  0.51100000000E-03 0.  1.
         11   -1    0    0    0    0 -0.00000000000E+00 -0.00000000000E+00 -0.45593999997E+02  0.45594000000E+02  0.51100000000E-03 0. -1.
    9900012    2    1    2    0    0 -0.34102115478E+01  0.32905092084E+02  0.28093558688E+02  0.47787278029E+02  0.20000031844E+02 0.  0.
         12    1    1    2    0    0  0.34102115478E+01 -0.32905092084E+02 -0.28093558688E+02  0.43400721971E+02  0.00000000000E+00 0. -1.
         11    1    3    3    0    0 -0.33230736123E+01  0.21169294655E+01  0.81742182483E+01  0.90742521911E+01  0.51100000000E-03 0. -1.
        -11    1    3    3    0    0  0.13446075745E+01  0.10668882634E+02  0.57920976083E+00  0.10768867647E+02  0.51100000000E-03 0.  1.
        -12    1    3    3    0    0 -0.14317455099E+01  0.20119279985E+02  0.19340130679E+02  0.27944158191E+02  0.00000000000E+00 0.  1.
</event>
<event>
 7    1  0.1418970E-010  0.4778730E+02  0.7816164E-02  0.1312668E+00
        -11   -1    0    0    0    0  0.00000000000E+00  0.00000000000E+00  0.45593999997E+02  0.45594000000E+02  0.51100000000E-03 0. -1.
         11   -1    0    0    0    0 -0.00000000000E+00 -0.00000000000E+00 -0.45593999997E+02  0.45594000000E+02  0.51100000000E-03 0.  1.
    9900012    2    1    2    0    0  0.77295515931E+00  0.13652952930E+02 -0.41190054716E+02  0.47787295041E+02  0.20000109410E+02 0.  0.
         12    1    1    2    0    0 -0.77295515931E+00 -0.13652952930E+02  0.41190054716E+02  0.43400704959E+02  0.00000000000E+00 0. -1.
         11    1    3    3    0    0 -0.80652048374E+01  0.30656443897E+01 -0.98441585400E+01  0.13090193360E+02  0.51100000000E-03 0. -1.
        -11    1    3    3    0    0  0.34561337298E+01  0.58231535183E+00 -0.79791413390E+01  0.87149669131E+01  0.51100000000E-03 0.  1.
         12    1    3    3    0    0  0.53820262669E+01  0.10004993189E+02 -0.23366754837E+02  0.25982134767E+02  0.00000000000E+00 0. -1.
</event>
<event>
 7    1  0.1776868E-010  0.4778727E+02  0.7816164E-02  0.1312668E+00
        -11   -1    0    0    0    0  0.00000000000E+00  0.00000000000E+00  0.45593999997E+02  0.45594000000E+02  0.51100000000E-03 0. -1.
         11   -1    0    0    0    0 -0.00000000000E+00 -0.00000000000E+00 -0.45593999997E+02  0.45594000000E+02  0.51100000000E-03 0.  1.
    9900012    2    1    2    0    0  0.32320197333E+02 -0.22218969716E+02 -0.18583484500E+02  0.47787266515E+02  0.19999979349E+02 0.  0.
         12    1    1    2    0    0 -0.32320197333E+02  0.22218969716E+02  0.18583484500E+02  0.43400733485E+02  0.00000000000E+00 0. -1.
         11    1    3    3    0    0  0.12524807488E+02 -0.18442569751E+01 -0.26446567714E+01  0.12933147185E+02  0.51100000000E-03 0. -1.
        -11    1    3    3    0    0  0.57752253202E+01 -0.51911164444E+01 -0.11237586414E+02  0.13659585137E+02  0.51100000000E-03 0.  1.
        -12    1    3    3    0    0  0.14020164524E+02 -0.15183596297E+02 -0.47012413145E+01  0.21194534194E+02  0.00000000000E+00 0.  1.
</event>
<event>
 7    1  0.1418970E-010  0.4778727E+02  0.7816164E-02  0.1312668E+00
        -11   -1    0    0    0    0  0.00000000000E+00  0.00000000000E+00  0.45593999997E+02  0.45594000000E+02  0.51100000000E-03 0. -1.
         11   -1    0    0    0    0 -0.00000000000E+00 -0.00000000000E+00 -0.45593999997E+02  0.45594000000E+02  0.51100000000E-03 0.  1.
    9900012    2    1    2    0    0 -0.32474366162E+02 -0.27570949896E+02 -0.82995069358E+01  0.47787267851E+02  0.19999985438E+02 0.  0.
         12    1    1    2    0    0  0.32474366162E+02  0.27570949896E+02  0.82995069358E+01  0.43400732149E+02  0.00000000000E+00 0. -1.
         11    1    3    3    0    0 -0.33504203460E+02 -0.24932441837E+02 -0.10768754728E+02  0.43129159325E+02  0.51100000000E-03 0. -1.
        -11    1    3    3    0    0 -0.14097138197E+00  0.40733452576E+00  0.98121835425E+00  0.10717201436E+01  0.51100000000E-03 0.  1.
         12    1    3    3    0    0  0.11708086807E+01 -0.30458425842E+01  0.14880294380E+01  0.35863883814E+01  0.00000000000E+00 0. -1.
</event>
<event>
 7    1  0.1418970E-010  0.4778726E+02  0.7816164E-02  0.1312668E+00
        -11   -1    0    0    0    0  0.00000000000E+00  0.00000000000E+00  0.45593999997E+02  0.45594000000E+02  0.51100000000E-03 0. -1.
         11   -1    0    0    0    0 -0.00000000000E+00 -0.00000000000E+00 -0.45593999997E+02  0.45594000000E+02  0.51100000000E-03 0.  1.
    9900012    2    1    2    0    0  0.10629238341E+02  0.33774238124E+02 -0.25098684703E+02  0.47787264495E+02  0.19999970138E+02 0.  0.
         12    1    1    2    0    0 -0.10629238341E+02 -0.33774238124E+02  0.25098684703E+02  0.43400735505E+02  0.00000000000E+00 0. -1.
         11    1    3    3    0    0  0.33716976966E+00  0.19942650100E+02 -0.61019972668E+01  0.20858028367E+02  0.51100000000E-03 0. -1.
        -11    1    3    3    0    0  0.80839767323E+01  0.60512077416E+01 -0.63854107493E+01  0.11947437618E+02  0.51100000000E-03 0.  1.
        -12    1    3    3    0    0  0.22080918387E+01  0.77803802828E+01 -0.12611276687E+02  0.14981798510E+02  0.00000000000E+00 0.  1.
</event>
<event>
 7    1  0.1418970E-010  0.4778727E+02  0.7816164E-02  0.1312668E+00
        -11   -1    0    0    0    0  0.00000000000E+00  0.00000000000E+00  0.45593999997E+02  0.45594000000E+02  0.51100000000E-03 0.  1.
         11   -1    0    0    0    0 -0.00000000000E+00 -0.00000000000E+00 -0.45593999997E+02  0.45594000000E+02  0.51100000000E-03 0. -1.
    9900012    2    1    2    0    0 -0.41364154263E+02  0.22245153470E+01  0.12949189058E+02  0.47787271623E+02  0.20000002637E+02 0.  0.
         12    1    1    2    0    0  0.41364154263E+02 -0.22245153470E+01 -0.12949189058E+02  0.43400728377E+02  0.00000000000E+00 0. -1.
         11    1    3    3    0    0 -0.18568214680E+02  0.35226643073E+01  0.76491116183E+00  0.18914884339E+02  0.51100000000E-03 0.  1.
        -11    1    3    3    0    0 -0.22125286509E+01  0.27534173995E+01 -0.14870439996E+01  0.38324783789E+01  0.51100000000E-03 0. -1.
        -12    1    3    3    0    0 -0.20583410932E+02 -0.40515663598E+01  0.13671321896E+02  0.25039908905E+02  0.00000000000E+00 0.  1.
</event>
<event>
 7    1  0.1418970E-010  0.4778727E+02  0.7816164E-02  0.1312668E+00
        -11   -1    0    0    0    0  0.00000000000E+00  0.00000000000E+00  0.45593999997E+02  0.45594000000E+02  0.51100000000E-03 0. -1.
         11   -1    0    0    0    0 -0.00000000000E+00 -0.00000000000E+00 -0.45593999997E+02  0.45594000000E+02  0.51100000000E-03 0.  1.
    9900012    2    1    2    0    0 -0.87228268134E+00  0.10835946412E+02 -0.42017192480E+02  0.47787273328E+02  0.20000010412E+02 0.  0.
         12    1    1    2    0    0  0.87228268134E+00 -0.10835946412E+02  0.42017192480E+02  0.43400726672E+02  0.00000000000E+00 0. -1.
         11    1    3    3    0    0  0.24220666767E+01 -0.21331424765E+01 -0.36603533480E+01  0.48800502769E+01  0.51100000000E-03 0. -1.
        -11    1    3    3    0    0 -0.48779702531E+01  0.15225204392E+02 -0.28563812745E+02  0.32733665260E+02  0.51100000000E-03 0.  1.
         12    1    3    3    0    0  0.15836208951E+01 -0.22561155039E+01 -0.97930263871E+01  0.10173557791E+02  0.00000000000E+00 0. -1.
</event>
<event>
 7    1  0.1418970E-010  0.4778728E+02  0.7816164E-02  0.1312668E+00
        -11   -1    0    0    0    0  0.00000000000E+00  0.00000000000E+00  0.45593999997E+02  0.45594000000E+02  0.51100000000E-03 0.  1.
         11   -1    0    0    0    0 -0.00000000000E+00 -0.00000000000E+00 -0.45593999997E+02  0.45594000000E+02  0.51100000000E-03 0. -1.
    9900012    2    1    2    0    0 -0.22768810447E+01  0.24954463635E+02  0.35436046322E+02  0.47787276255E+02  0.20000023759E+02 0.  0.
         12    1    1    2    0    0  0.22768810447E+01 -0.24954463635E+02 -0.35436046322E+02  0.43400723745E+02  0.00000000000E+00 0. -1.
         11    1    3    3    0    0 -0.99834152220E+01  0.14263211442E+02  0.17220811221E+02  0.24488040336E+02  0.51100000000E-03 0. -1.
        -11    1    3    3    0    0  0.29489351648E+01  0.46906111822E+01  0.30852469916E+01  0.63416717929E+01  0.51100000000E-03 0.  1.
        -12    1    3    3    0    0  0.47575990124E+01  0.60006410108E+01  0.15129988110E+02  0.16957564127E+02  0.00000000000E+00 0.  1.
</event>
<event>
 7    1  0.1418970E-010  0.4778727E+02  0.7816164E-02  0.1312668E+00
        -11   -1    0    0    0    0  0.00000000000E+00  0.00000000000E+00  0.45593999997E+02  0.45594000000E+02  0.51100000000E-03 0.  1.
         11   -1    0    0    0    0 -0.00000000000E+00 -0.00000000000E+00 -0.45593999997E+02  0.45594000000E+02  0.51100000000E-03 0. -1.
    9900012    2    1    2    0    0  0.11145376009E+02 -0.40426586505E+02  0.11184595626E+02  0.47787268645E+02  0.19999989061E+02 0.  0.
         12    1    1    2    0    0 -0.11145376009E+02  0.40426586505E+02 -0.11184595626E+02  0.43400731355E+02  0.00000000000E+00 0. -1.
         11    1    3    3    0    0  0.28491361967E+01 -0.15231422524E+02 -0.29797023633E+01  0.15779494149E+02  0.51100000000E-03 0. -1.
        -11    1    3    3    0    0  0.10067591385E+02 -0.24430504476E+02  0.11752769364E+02  0.28919431758E+02  0.51100000000E-03 0.  1.
         12    1    3    3    0    0 -0.17713515728E+01 -0.76465950514E+00  0.24115286260E+01  0.30883427379E+01  0.00000000000E+00 0. -1.
</event>
<event>
 7    1  0.1418970E-010  0.4778727E+02  0.7816164E-02  0.1312668E+00
        -11   -1    0    0    0    0  0.00000000000E+00  0.00000000000E+00  0.45593999997E+02  0.45594000000E+02  0.51100000000E-03 0.  1.
         11   -1    0    0    0    0 -0.00000000000E+00 -0.00000000000E+00 -0.45593999997E+02  0.45594000000E+02  0.51100000000E-03 0. -1.
    9900012    2    1    2    0    0 -0.93378336386E+01 -0.27692609784E+02  0.32086558353E+02  0.47787274192E+02  0.20000014351E+02 0.  0.
         12    1    1    2    0    0  0.93378336386E+01  0.27692609784E+02 -0.32086558353E+02  0.43400725808E+02  0.00000000000E+00 0. -1.
         11    1    3    3    0    0 -0.16633119959E+01  0.12770299736E+01 -0.27741778402E+00  0.21152714335E+01  0.51100000000E-03 0. -1.
        -11    1    3    3    0    0 -0.82615850413E+01 -0.12998337772E+02  0.21083648372E+02  0.26109975127E+02  0.51100000000E-03 0.  1.
        -12    1    3    3    0    0  0.58706339866E+00 -0.15971301985E+02  0.11280327766E+02  0.19562027631E+02  0.00000000000E+00 0.  1.
</event>
<event>
 7    1  0.1418970E-010  0.4778727E+02  0.7816164E-02  0.1312668E+00
        -11   -1    0    0    0    0  0.00000000000E+00  0.00000000000E+00  0.45593999997E+02  0.45594000000E+02  0.51100000000E-03 0. -1.
         11   -1    0    0    0    0 -0.00000000000E+00 -0.00000000000E+00 -0.45593999997E+02  0.45594000000E+02  0.51100000000E-03 0.  1.
    9900012    2    1    2    0    0 -0.44229394782E+01  0.31718124311E+02 -0.29292004198E+02  0.47787270589E+02  0.19999997924E+02 0.  0.
         12    1    1    2    0    0  0.44229394782E+01 -0.31718124311E+02  0.29292004198E+02  0.43400729411E+02  0.00000000000E+00 0. -1.
         11    1    3    3    0    0  0.39787316720E+01  0.80243351099E+01 -0.18838169269E+01  0.91525420594E+01  0.51100000000E-03 0. -1.
        -11    1    3    3    0    0 -0.45892906013E+01  0.21299091777E+02 -0.18217265917E+02  0.28400381626E+02  0.51100000000E-03 0.  1.
        -12    1    3    3    0    0 -0.38123805490E+01  0.23946974241E+01 -0.91909213544E+01  0.10234346904E+02  0.00000000000E+00 0.  1.
</event>
<event>
 7    1  0.1418970E-010  0.4778727E+02  0.7816164E-02  0.1312668E+00
        -11   -1    0    0    0    0  0.00000000000E+00  0.00000000000E+00  0.45593999997E+02  0.45594000000E+02  0.51100000000E-03 0.  1.
         11   -1    0    0    0    0 -0.00000000000E+00 -0.00000000000E+00 -0.45593999997E+02  0.45594000000E+02  0.51100000000E-03 0. -1.
    9900012    2    1    2    0    0 -0.20178728855E+01 -0.22601682754E+02  0.36996154725E+02  0.47787270297E+02  0.19999996592E+02 0.  0.
         12    1    1    2    0    0  0.20178728855E+01  0.22601682754E+02 -0.36996154725E+02  0.43400729703E+02  0.00000000000E+00 0. -1.
         11    1    3    3    0    0 -0.34453171549E+01 -0.27154083592E+01  0.40207077978E+01  0.59506087345E+01  0.51100000000E-03 0. -1.
        -11    1    3    3    0    0  0.16321087109E+01 -0.14218418095E+02  0.33207598331E+02  0.36160361989E+02  0.51100000000E-03 0.  1.
         12    1    3    3    0    0 -0.20466444154E+00 -0.56678563002E+01 -0.23215140417E+00  0.56762995735E+01  0.00000000000E+00 0. -1.
</event>
<event>
 7    1  0.1418970E-010  0.4778727E+02  0.7816164E-02  0.1312668E+00
        -11   -1    0    0    0    0  0.00000000000E+00  0.00000000000E+00  0.45593999997E+02  0.45594000000E+02  0.51100000000E-03 0. -1.
         11   -1    0    0    0    0 -0.00000000000E+00 -0.00000000000E+00 -0.45593999997E+02  0.45594000000E+02  0.51100000000E-03 0.  1.
    9900012    2    1    2    0    0 -0.32722060068E+02 -0.17227044057E+02  0.22718247250E+02  0.47787273967E+02  0.20000013326E+02 0.  0.
         12    1    1    2    0    0  0.32722060068E+02  0.17227044057E+02 -0.22718247250E+02  0.43400726033E+02  0.00000000000E+00 0. -1.
         11    1    3    3    0    0 -0.10632383892E+02 -0.30493291403E+01  0.53705115751E+01  0.12295868830E+02  0.51100000000E-03 0. -1.
        -11    1    3    3    0    0  0.76648014028E+00 -0.59759010010E+01  0.65989796976E+01  0.89356263289E+01  0.51100000000E-03 0.  1.
        -12    1    3    3    0    0 -0.22856156316E+02 -0.82018139155E+01  0.10748755978E+02  0.26555778808E+02  0.00000000000E+00 0.  1.
</event>
<event>
 7    1  0.1418970E-010  0.4778727E+02  0.7816164E-02  0.1312668E+00
        -11   -1    0    0    0    0  0.00000000000E+00  0.00000000000E+00  0.45593999997E+02  0.45594000000E+02  0.51100000000E-03 0.  1.
         11   -1    0    0    0    0 -0.00000000000E+00 -0.00000000000E+00 -0.45593999997E+02  0.45594000000E+02  0.51100000000E-03 0. -1.
    9900012    2    1    2    0    0  0.30341599746E+02  0.71678876658E+01  0.30193250181E+02  0.47787266766E+02  0.19999980493E+02 0.  0.
         12    1    1    2    0    0 -0.30341599746E+02 -0.71678876658E+01 -0.30193250181E+02  0.43400733234E+02  0.00000000000E+00 0. -1.
         11    1    3    3    0    0  0.23517954462E+02  0.87024791966E+01  0.15615562367E+02  0.29541041189E+02  0.51100000000E-03 0.  1.
        -11    1    3    3    0    0 -0.11229954476E+01  0.10759733402E+01  0.14125904418E+00  0.15616631464E+01  0.51100000000E-03 0. -1.
        -12    1    3    3    0    0  0.79466407323E+01 -0.26105648710E+01  0.14436428770E+02  0.16684562431E+02  0.00000000000E+00 0.  1.
</event>
<event>
 7    1  0.1418970E-010  0.4778727E+02  0.7816164E-02  0.1312668E+00
        -11   -1    0    0    0    0  0.00000000000E+00  0.00000000000E+00  0.45593999997E+02  0.45594000000E+02  0.51100000000E-03 0.  1.
         11   -1    0    0    0    0 -0.00000000000E+00 -0.00000000000E+00 -0.45593999997E+02  0.45594000000E+02  0.51100000000E-03 0. -1.
    9900012    2    1    2    0    0  0.42256847127E+02  0.45679137100E+01  0.87815912544E+01  0.47787270632E+02  0.19999998118E+02 0.  0.
         12    1    1    2    0    0 -0.42256847127E+02 -0.45679137100E+01 -0.87815912544E+01  0.43400729368E+02  0.00000000000E+00 0. -1.
         11    1    3    3    0    0  0.33600610037E+02 -0.10070837145E+01 -0.76999027516E+00  0.33624516320E+02  0.51100000000E-03 0. -1.
        -11    1    3    3    0    0  0.22852416653E+01  0.11042006007E+01  0.33959276555E+01  0.42395652298E+01  0.51100000000E-03 0.  1.
         12    1    3    3    0    0  0.63709954244E+01  0.44707968237E+01  0.61556538740E+01  0.99231890818E+01  0.00000000000E+00 0. -1.
</event>
<event>
 7    1  0.1418970E-010  0.4778727E+02  0.7816164E-02  0.1312668E+00
        -11   -1    0    0    0    0  0.00000000000E+00  0.00000000000E+00  0.45593999997E+02  0.45594000000E+02  0.51100000000E-03 0.  1.
         11   -1    0    0    0    0 -0.00000000000E+00 -0.00000000000E+00 -0.45593999997E+02  0.45594000000E+02  0.51100000000E-03 0. -1.
    9900012    2    1    2    0    0 -0.36278171277E+01 -0.35166659502E+02  0.25174749082E+02  0.47787274326E+02  0.20000014964E+02 0.  0.
         12    1    1    2    0    0  0.36278171277E+01  0.35166659502E+02 -0.25174749082E+02  0.43400725674E+02  0.00000000000E+00 0. -1.
         11    1    3    3    0    0  0.56144156105E+01 -0.46473131554E+01  0.32015095725E+00  0.72953189861E+01  0.51100000000E-03 0. -1.
        -11    1    3    3    0    0 -0.41047042231E+01 -0.13127583118E+02  0.12122301701E+02  0.18333909405E+02  0.51100000000E-03 0.  1.
         12    1    3    3    0    0 -0.51375285151E+01 -0.17391763229E+02  0.12732296424E+02  0.22158045935E+02  0.00000000000E+00 0. -1.
</event>
<event>
 7    1  0.1418970E-010  0.4778727E+02  0.7816164E-02  0.1312668E+00
        -11   -1    0    0    0    0  0.00000000000E+00  0.00000000000E+00  0.45593999997E+02  0.45594000000E+02  0.51100000000E-03 0. -1.
         11   -1    0    0    0    0 -0.00000000000E+00 -0.00000000000E+00 -0.45593999997E+02  0.45594000000E+02  0.51100000000E-03 0.  1.
    9900012    2    1    2    0    0 -0.42332876032E+02  0.56761233588E+01 -0.77027641458E+01  0.47787270225E+02  0.19999996264E+02 0.  0.
         12    1    1    2    0    0  0.42332876032E+02 -0.56761233588E+01  0.77027641458E+01  0.43400729775E+02  0.00000000000E+00 0. -1.
         11    1    3    3    0    0 -0.97360724406E+01  0.25073560884E+01 -0.13661119421E+01  0.10146142283E+02  0.51100000000E-03 0. -1.
        -11    1    3    3    0    0 -0.29725737039E+02 -0.33438201449E+01 -0.60442888098E+01  0.30517765369E+02  0.51100000000E-03 0.  1.
         12    1    3    3    0    0 -0.28710665523E+01  0.65125874153E+01 -0.29236339392E+00  0.71233625728E+01  0.00000000000E+00 0. -1.
</event>
<event>
 7    1  0.1418970E-010  0.4778727E+02  0.7816164E-02  0.1312668E+00
        -11   -1    0    0    0    0  0.00000000000E+00  0.00000000000E+00  0.45593999997E+02  0.45594000000E+02  0.51100000000E-03 0.  1.
         11   -1    0    0    0    0 -0.00000000000E+00 -0.00000000000E+00 -0.45593999997E+02  0.45594000000E+02  0.51100000000E-03 0. -1.
    9900012    2    1    2    0    0 -0.35099413704E+02 -0.24772311087E+02 -0.61633570057E+01  0.47787271797E+02  0.20000003432E+02 0.  0.
         12    1    1    2    0    0  0.35099413704E+02  0.24772311087E+02  0.61633570057E+01  0.43400728203E+02  0.00000000000E+00 0. -1.
         11    1    3    3    0    0 -0.54459224928E+01  0.16008510242E+01 -0.28865307870E+01  0.63681124397E+01  0.51100000000E-03 0. -1.
        -11    1    3    3    0    0 -0.52528152697E+01 -0.78830024368E+01  0.34362500898E+01  0.10076785728E+02  0.51100000000E-03 0.  1.
         12    1    3    3    0    0 -0.24400675942E+02 -0.18490159674E+02 -0.67130763085E+01  0.31342373629E+02  0.00000000000E+00 0. -1.
</event>
<event>
 7    1  0.1418970E-010  0.4778727E+02  0.7816164E-02  0.1312668E+00
        -11   -1    0    0    0    0  0.00000000000E+00  0.00000000000E+00  0.45593999997E+02  0.45594000000E+02  0.51100000000E-03 0.  1.
         11   -1    0    0    0    0 -0.00000000000E+00 -0.00000000000E+00 -0.45593999997E+02  0.45594000000E+02  0.51100000000E-03 0. -1.
    9900012    2    1    2    0    0 -0.39231402419E+02 -0.14131571698E+02  0.12034086955E+02  0.47787268401E+02  0.19999987949E+02 0.  0.
         12    1    1    2    0    0  0.39231402419E+02  0.14131571698E+02 -0.12034086955E+02  0.43400731599E+02  0.00000000000E+00 0. -1.
         11    1    3    3    0    0 -0.20617576837E+02 -0.53825140839E+01 -0.19666731768E+01  0.21399152697E+02  0.51100000000E-03 0. -1.
        -11    1    3    3    0    0 -0.15595045944E+02 -0.97297287689E+01  0.90032362037E+01  0.20467812348E+02  0.51100000000E-03 0.  1.
        -12    1    3    3    0    0 -0.30187796379E+01  0.98067115482E+00  0.49975239282E+01  0.59203033562E+01  0.00000000000E+00 0.  1.
</event>
<event>
 7    1  0.1418970E-010  0.4778727E+02  0.7816164E-02  0.1312668E+00
        -11   -1    0    0    0    0  0.00000000000E+00  0.00000000000E+00  0.45593999997E+02  0.45594000000E+02  0.51100000000E-03 0.  1.
         11   -1    0    0    0    0 -0.00000000000E+00 -0.00000000000E+00 -0.45593999997E+02  0.45594000000E+02  0.51100000000E-03 0. -1.
    9900012    2    1    2    0    0 -0.19431333273E+02 -0.29900764794E+02  0.24738454584E+02  0.47787267480E+02  0.19999983750E+02 0.  0.
         12    1    1    2    0    0  0.19431333273E+02  0.29900764794E+02 -0.24738454584E+02  0.43400732520E+02  0.00000000000E+00 0. -1.
         11    1    3    3    0    0  0.17419254343E+01  0.14475499099E+01 -0.24396264555E+00  0.22779866097E+01  0.51100000000E-03 0. -1.
        -11    1    3    3    0    0 -0.82890301585E+00 -0.30637913810E+01  0.16512301608E+01  0.35777729304E+01  0.51100000000E-03 0.  1.
         12    1    3    3    0    0 -0.20344355691E+02 -0.28284523323E+02  0.23331187069E+02  0.41931507940E+02  0.00000000000E+00 0. -1.
</event>
<event>
 7    1  0.1418970E-010  0.4778728E+02  0.7816164E-02  0.1312668E+00
        -11   -1    0    0    0    0  0.00000000000E+00  0.00000000000E+00  0.45593999997E+02  0.45594000000E+02  0.51100000000E-03 0.  1.
         11   -1    0    0    0    0 -0.00000000000E+00 -0.00000000000E+00 -0.45593999997E+02  0.45594000000E+02  0.51100000000E-03 0. -1.
    9900012    2    1    2    0    0  0.31468508092E+02 -0.98713962623E+01  0.28211898585E+02  0.47787277800E+02  0.20000030802E+02 0.  0.
         12    1    1    2    0    0 -0.31468508092E+02  0.98713962623E+01 -0.28211898585E+02  0.43400722200E+02  0.00000000000E+00 0. -1.
         11    1    3    3    0    0  0.58764255973E+01  0.32451200112E-01  0.11807820172E+02  0.13189315689E+02  0.51100000000E-03 0. -1.
        -11    1    3    3    0    0  0.18914286711E+02 -0.74732686183E+01  0.18174067864E+02  0.27274470272E+02  0.51100000000E-03 0.  1.
        -12    1    3    3    0    0  0.66777957842E+01 -0.24305788441E+01 -0.17699894516E+01  0.73234918387E+01  0.00000000000E+00 0.  1.
</event>
<event>
 7    1  0.1418970E-010  0.4778727E+02  0.7816164E-02  0.1312668E+00
        -11   -1    0    0    0    0  0.00000000000E+00  0.00000000000E+00  0.45593999997E+02  0.45594000000E+02  0.51100000000E-03 0.  1.
         11   -1    0    0    0    0 -0.00000000000E+00 -0.00000000000E+00 -0.45593999997E+02  0.45594000000E+02  0.51100000000E-03 0. -1.
    9900012    2    1    2    0    0  0.10002732667E+02  0.20394755646E+02  0.36981380392E+02  0.47787271730E+02  0.20000003124E+02 0.  0.
         12    1    1    2    0    0 -0.10002732667E+02 -0.20394755646E+02 -0.36981380392E+02  0.43400728270E+02  0.00000000000E+00 0. -1.
         11    1    3    3    0    0  0.43993560608E+01  0.64757635332E+01  0.29144601980E+01  0.83536773695E+01  0.51100000000E-03 0. -1.
        -11    1    3    3    0    0  0.62353786331E+01  0.15930447917E+02  0.32746620929E+02  0.36945910465E+02  0.51100000000E-03 0.  1.
         12    1    3    3    0    0 -0.63200202650E+00 -0.20114558042E+01  0.13202992653E+01  0.24876838955E+01  0.00000000000E+00 0. -1.
</event>
<event>
 7    1  0.1418970E-010  0.4778727E+02  0.7816164E-02  0.1312668E+00
        -11   -1    0    0    0    0  0.00000000000E+00  0.00000000000E+00  0.45593999997E+02  0.45594000000E+02  0.51100000000E-03 0. -1.
         11   -1    0    0    0    0 -0.00000000000E+00 -0.00000000000E+00 -0.45593999997E+02  0.45594000000E+02  0.51100000000E-03 0.  1.
    9900012    2    1    2    0    0  0.14853634546E+02 -0.20315575390E+02 -0.35359159013E+02  0.47787272025E+02  0.20000004470E+02 0.  0.
         12    1    1    2    0    0 -0.14853634546E+02  0.20315575390E+02  0.35359159013E+02  0.43400727975E+02  0.00000000000E+00 0. -1.
         11    1    3    3    0    0  0.11859273821E+02 -0.65773814450E+01 -0.16416256140E+02  0.21293139462E+02  0.51100000000E-03 0.  1.
        -11    1    3    3    0    0  0.14368938283E+01 -0.66131509613E+01 -0.17887504095E+02  0.19124885163E+02  0.51100000000E-03 0. -1.
         12    1    3    3    0    0  0.15574668972E+01 -0.71250429838E+01 -0.10553987786E+01  0.73692473998E+01  0.00000000000E+00 0. -1.
</event>
<event>
 7    1  0.1418970E-010  0.4778729E+02  0.7816164E-02  0.1312668E+00
        -11   -1    0    0    0    0  0.00000000000E+00  0.00000000000E+00  0.45593999997E+02  0.45594000000E+02  0.51100000000E-03 0. -1.
         11   -1    0    0    0    0 -0.00000000000E+00 -0.00000000000E+00 -0.45593999997E+02  0.45594000000E+02  0.51100000000E-03 0.  1.
    9900012    2    1    2    0    0  0.17295244439E+02  0.38463640299E+02 -0.10249136902E+02  0.47787286728E+02  0.20000071507E+02 0.  0.
         12    1    1    2    0    0 -0.17295244439E+02 -0.38463640299E+02  0.10249136902E+02  0.43400713272E+02  0.00000000000E+00 0. -1.
         11    1    3    3    0    0 -0.31843652061E+01  0.77697663248E+01  0.73556650804E+00  0.84291463895E+01  0.51100000000E-03 0. -1.
        -11    1    3    3    0    0  0.36474471832E+01  0.11863156373E+02 -0.21222569382E+01  0.12591359135E+02  0.51100000000E-03 0.  1.
        -12    1    3    3    0    0  0.16832162462E+02  0.18830717602E+02 -0.88624464721E+01  0.26766781204E+02  0.00000000000E+00 0.  1.
</event>
<event>
 7    1  0.1418970E-010  0.4778730E+02  0.7816164E-02  0.1312668E+00
        -11   -1    0    0    0    0  0.00000000000E+00  0.00000000000E+00  0.45593999997E+02  0.45594000000E+02  0.51100000000E-03 0.  1.
         11   -1    0    0    0    0 -0.00000000000E+00 -0.00000000000E+00 -0.45593999997E+02  0.45594000000E+02  0.51100000000E-03 0. -1.
    9900012    2    1    2    0    0  0.11268326113E+02 -0.12654427502E+02  0.39956368939E+02  0.47787295771E+02  0.20000112738E+02 0.  0.
         12    1    1    2    0    0 -0.11268326113E+02  0.12654427502E+02 -0.39956368939E+02  0.43400704229E+02  0.00000000000E+00 0. -1.
         11    1    3    3    0    0  0.97203191305E+00  0.15733100027E+00 -0.15402939401E+00  0.99665661036E+00  0.51100000000E-03 0. -1.
        -11    1    3    3    0    0 -0.90905108134E+00 -0.11774055005E+02  0.13727400566E+02  0.18107906331E+02  0.51100000000E-03 0.  1.
         12    1    3    3    0    0  0.11205345281E+02 -0.10377034972E+01  0.26382997767E+02  0.28682732830E+02  0.00000000000E+00 0. -1.
</event>
<event>
 7    1  0.1418970E-010  0.4778727E+02  0.7816164E-02  0.1312668E+00
        -11   -1    0    0    0    0  0.00000000000E+00  0.00000000000E+00  0.45593999997E+02  0.45594000000E+02  0.51100000000E-03 0. -1.
         11   -1    0    0    0    0 -0.00000000000E+00 -0.00000000000E+00 -0.45593999997E+02  0.45594000000E+02  0.51100000000E-03 0.  1.
    9900012    2    1    2    0    0  0.26533590355E+01 -0.41267024513E+02 -0.13176326804E+02  0.47787271729E+02  0.20000003123E+02 0.  0.
         12    1    1    2    0    0 -0.26533590355E+01  0.41267024513E+02  0.13176326804E+02  0.43400728271E+02  0.00000000000E+00 0. -1.
         11    1    3    3    0    0 -0.44698624963E+01 -0.19386518789E+02 -0.62899341833E+01  0.20865762717E+02  0.51100000000E-03 0. -1.
        -11    1    3    3    0    0  0.73772574261E+01 -0.15017950442E+02 -0.98786528184E+01  0.19430659905E+02  0.51100000000E-03 0.  1.
         12    1    3    3    0    0 -0.25403589434E+00 -0.68625552833E+01  0.29922601976E+01  0.74908491069E+01  0.00000000000E+00 0. -1.
</event>
<event>
 7    1  0.1418970E-010  0.4778727E+02  0.7816164E-02  0.1312668E+00
        -11   -1    0    0    0    0  0.00000000000E+00  0.00000000000E+00  0.45593999997E+02  0.45594000000E+02  0.51100000000E-03 0.  1.
         11   -1    0    0    0    0 -0.00000000000E+00 -0.00000000000E+00 -0.45593999997E+02  0.45594000000E+02  0.51100000000E-03 0. -1.
    9900012    2    1    2    0    0 -0.17335405805E+02 -0.11919356192E+02  0.37960980655E+02  0.47787269606E+02  0.19999993443E+02 0.  0.
         12    1    1    2    0    0  0.17335405805E+02  0.11919356192E+02 -0.37960980655E+02  0.43400730394E+02  0.00000000000E+00 0. -1.
         11    1    3    3    0    0 -0.80656027502E+01  0.17563546212E+01  0.17381255022E+02  0.19241797101E+02  0.51100000000E-03 0. -1.
        -11    1    3    3    0    0 -0.10225736769E+02 -0.69461525371E+01  0.96834936208E+01  0.15703018070E+02  0.51100000000E-03 0.  1.
        -12    1    3    3    0    0  0.95593371469E+00 -0.67295582763E+01  0.10896232012E+02  0.12842454435E+02  0.00000000000E+00 0.  1.
</event>
<event>
 7    1  0.1418970E-010  0.4778727E+02  0.7816164E-02  0.1312668E+00
        -11   -1    0    0    0    0  0.00000000000E+00  0.00000000000E+00  0.45593999997E+02  0.45594000000E+02  0.51100000000E-03 0.  1.
         11   -1    0    0    0    0 -0.00000000000E+00 -0.00000000000E+00 -0.45593999997E+02  0.45594000000E+02  0.51100000000E-03 0. -1.
    9900012    2    1    2    0    0  0.62378615745E+01  0.42007733821E+02  0.89477666746E+01  0.47787272514E+02  0.20000006701E+02 0.  0.
         12    1    1    2    0    0 -0.62378615745E+01 -0.42007733821E+02 -0.89477666746E+01  0.43400727486E+02  0.00000000000E+00 0. -1.
         11    1    3    3    0    0 -0.40472061223E+01  0.12522455582E+02  0.53130628960E+01  0.14192265809E+02  0.51100000000E-03 0. -1.
        -11    1    3    3    0    0  0.53119483715E+01  0.27531563167E+02  0.34255096086E+01  0.28247794290E+02  0.51100000000E-03 0.  1.
         12    1    3    3    0    0  0.49731193253E+01  0.19537150724E+01  0.20919417003E+00  0.53472124148E+01  0.00000000000E+00 0. -1.
</event>
<event>
 7    1  0.1418970E-010  0.4778727E+02  0.7816164E-02  0.1312668E+00
        -11   -1    0    0    0    0  0.00000000000E+00  0.00000000000E+00  0.45593999997E+02  0.45594000000E+02  0.51100000000E-03 0. -1.
         11   -1    0    0    0    0 -0.00000000000E+00 -0.00000000000E+00 -0.45593999997E+02  0.45594000000E+02  0.51100000000E-03 0.  1.
    9900012    2    1    2    0    0  0.10312908630E+02 -0.92277712741E+01 -0.41135330316E+02  0.47787271351E+02  0.20000001396E+02 0.  0.
         12    1    1    2    0    0 -0.10312908630E+02  0.92277712741E+01  0.41135330316E+02  0.43400728649E+02  0.00000000000E+00 0. -1.
         11    1    3    3    0    0  0.55617309670E+01  0.22804757557E+01 -0.16882846950E+02  0.17921047470E+02  0.51100000000E-03 0.  1.
        -11    1    3    3    0    0  0.87656730643E+01 -0.73434504375E+01 -0.13822072463E+02  0.17939146469E+02  0.51100000000E-03 0. -1.
        -12    1    3    3    0    0 -0.40144954013E+01 -0.41647965923E+01 -0.10430410903E+02  0.11927077412E+02  0.00000000000E+00 0.  1.
</event>
<event>
 7    1  0.1418970E-010  0.4778727E+02  0.7816164E-02  0.1312668E+00
        -11   -1    0    0    0    0  0.00000000000E+00  0.00000000000E+00  0.45593999997E+02  0.45594000000E+02  0.51100000000E-03 0. -1.
         11   -1    0    0    0    0 -0.00000000000E+00 -0.00000000000E+00 -0.45593999997E+02  0.45594000000E+02  0.51100000000E-03 0.  1.
    9900012    2    1    2    0    0 -0.66951518807E+01  0.10103640647E+02 -0.41673908774E+02  0.47787270910E+02  0.19999999389E+02 0.  0.
         12    1    1    2    0    0  0.66951518807E+01 -0.10103640647E+02  0.41673908774E+02  0.43400729090E+02  0.00000000000E+00 0. -1.
         11    1    3    3    0    0  0.51414899119E+01  0.38708709417E+00 -0.14257138591E+02  0.15160829661E+02  0.51100000000E-03 0. -1.
        -11    1    3    3    0    0 -0.62613724259E+01 -0.20897886358E+00 -0.10761791403E+02  0.12452494179E+02  0.51100000000E-03 0.  1.
        -12    1    3    3    0    0 -0.55752693667E+01  0.99255324160E+01 -0.16654978780E+02  0.20173947071E+02  0.00000000000E+00 0.  1.
</event>
<event>
 7    1  0.1418970E-010  0.4778727E+02  0.7816164E-02  0.1312668E+00
        -11   -1    0    0    0    0  0.00000000000E+00  0.00000000000E+00  0.45593999997E+02  0.45594000000E+02  0.51100000000E-03 0.  1.
         11   -1    0    0    0    0 -0.00000000000E+00 -0.00000000000E+00 -0.45593999997E+02  0.45594000000E+02  0.51100000000E-03 0. -1.
    9900012    2    1    2    0    0  0.21366069738E+02  0.19755818977E+02  0.32199721650E+02  0.47787269662E+02  0.19999993698E+02 0.  0.
         12    1    1    2    0    0 -0.21366069738E+02 -0.19755818977E+02 -0.32199721650E+02  0.43400730338E+02  0.00000000000E+00 0. -1.
         11    1    3    3    0    0  0.95195928847E+01  0.11101887867E+02  0.17593150896E+02  0.22877795383E+02  0.51100000000E-03 0.  1.
        -11    1    3    3    0    0 -0.89321785033E-01  0.19452670488E+01 -0.23906984963E+01  0.30834204763E+01  0.51100000000E-03 0. -1.
         12    1    3    3    0    0  0.11935798638E+02  0.67086640616E+01  0.16997269251E+02  0.21826053803E+02  0.00000000000E+00 0. -1.
</event>
<event>
 7    1  0.1418970E-010  0.4778727E+02  0.7816164E-02  0.1312668E+00
        -11   -1    0    0    0    0  0.00000000000E+00  0.00000000000E+00  0.45593999997E+02  0.45594000000E+02  0.51100000000E-03 0.  1.
         11   -1    0    0    0    0 -0.00000000000E+00 -0.00000000000E+00 -0.45593999997E+02  0.45594000000E+02  0.51100000000E-03 0. -1.
    9900012    2    1    2    0    0 -0.17520856516E+02 -0.29145644303E+02  0.26966169747E+02  0.47787270678E+02  0.19999998328E+02 0.  0.
         12    1    1    2    0    0  0.17520856516E+02  0.29145644303E+02 -0.26966169747E+02  0.43400729322E+02  0.00000000000E+00 0. -1.
         11    1    3    3    0    0 -0.50160301396E+01 -0.16043439508E+02  0.22361976518E+02  0.27975176561E+02  0.51100000000E-03 0. -1.
        -11    1    3    3    0    0  0.61913906268E+00 -0.15255568823E+01  0.10555467839E+01  0.19557188587E+01  0.51100000000E-03 0.  1.
         12    1    3    3    0    0 -0.13123965439E+02 -0.11576647913E+02  0.35486464449E+01  0.17856375258E+02  0.00000000000E+00 0. -1.
</event>
<event>
 7    1  0.1418970E-010  0.4778727E+02  0.7816164E-02  0.1312668E+00
        -11   -1    0    0    0    0  0.00000000000E+00  0.00000000000E+00  0.45593999997E+02  0.45594000000E+02  0.51100000000E-03 0.  1.
         11   -1    0    0    0    0 -0.00000000000E+00 -0.00000000000E+00 -0.45593999997E+02  0.45594000000E+02  0.51100000000E-03 0. -1.
    9900012    2    1    2    0    0  0.18388087626E+02 -0.39183664671E+02 -0.31846471835E+01  0.47787270499E+02  0.19999997512E+02 0.  0.
         12    1    1    2    0    0 -0.18388087626E+02  0.39183664671E+02  0.31846471835E+01  0.43400729501E+02  0.00000000000E+00 0. -1.
         11    1    3    3    0    0  0.10657377297E+02 -0.22537048194E+02  0.69302375040E+00  0.24939497074E+02  0.51100000000E-03 0. -1.
        -11    1    3    3    0    0  0.10126325250E+02 -0.64554252731E+01 -0.27364626441E+01  0.12316785562E+02  0.51100000000E-03 0.  1.
         12    1    3    3    0    0 -0.23956149207E+01 -0.10191191204E+02 -0.11412082898E+01  0.10530987863E+02  0.00000000000E+00 0. -1.
</event>
<event>
 7    1  0.1418970E-010  0.4778728E+02  0.7816164E-02  0.1312668E+00
        -11   -1    0    0    0    0  0.00000000000E+00  0.00000000000E+00  0.45593999997E+02  0.45594000000E+02  0.51100000000E-03 0. -1.
         11   -1    0    0    0    0 -0.00000000000E+00 -0.00000000000E+00 -0.45593999997E+02  0.45594000000E+02  0.51100000000E-03 0.  1.
    9900012    2    1    2    0    0  0.20002969837E+02  0.38334437027E+02  0.37383166012E+01  0.47787275634E+02  0.20000020924E+02 0.  0.
         12    1    1    2    0    0 -0.20002969837E+02 -0.38334437027E+02 -0.37383166012E+01  0.43400724366E+02  0.00000000000E+00 0. -1.
         11    1    3    3    0    0 -0.18198023176E+01  0.20317138800E+01  0.31068960699E+01  0.41342889613E+01  0.51100000000E-03 0. -1.
        -11    1    3    3    0    0  0.10740128241E+02  0.10298824186E+02 -0.29194583499E+01  0.15163751896E+02  0.51100000000E-03 0.  1.
         12    1    3    3    0    0  0.11082643914E+02  0.26003898961E+02  0.35508788812E+01  0.28489234776E+02  0.00000000000E+00 0. -1.
</event>
<event>
 7    1  0.1418970E-010  0.4778727E+02  0.7816164E-02  0.1312668E+00
        -11   -1    0    0    0    0  0.00000000000E+00  0.00000000000E+00  0.45593999997E+02  0.45594000000E+02  0.51100000000E-03 0. -1.
         11   -1    0    0    0    0 -0.00000000000E+00 -0.00000000000E+00 -0.45593999997E+02  0.45594000000E+02  0.51100000000E-03 0.  1.
    9900012    2    1    2    0    0 -0.35176468091E+02 -0.18534245845E+02 -0.17398879431E+02  0.47787272104E+02  0.20000004833E+02 0.  0.
         12    1    1    2    0    0  0.35176468091E+02  0.18534245845E+02  0.17398879431E+02  0.43400727896E+02  0.00000000000E+00 0. -1.
         11    1    3    3    0    0 -0.52451134876E+01  0.39029266592E+00 -0.59771923270E+01  0.79618070962E+01  0.51100000000E-03 0. -1.
        -11    1    3    3    0    0 -0.29401013873E+02 -0.20762332725E+02 -0.11795525168E+02  0.37876489954E+02  0.51100000000E-03 0.  1.
        -12    1    3    3    0    0 -0.53034072994E+00  0.18377942142E+01  0.37383806405E+00  0.19489750541E+01  0.00000000000E+00 0.  1.
</event>
<event>
 7    1  0.1418970E-010  0.4778727E+02  0.7816164E-02  0.1312668E+00
        -11   -1    0    0    0    0  0.00000000000E+00  0.00000000000E+00  0.45593999997E+02  0.45594000000E+02  0.51100000000E-03 0.  1.
         11   -1    0    0    0    0 -0.00000000000E+00 -0.00000000000E+00 -0.45593999997E+02  0.45594000000E+02  0.51100000000E-03 0. -1.
    9900012    2    1    2    0    0  0.27032801118E+02 -0.15878595592E+02  0.30012015467E+02  0.47787271819E+02  0.20000003532E+02 0.  0.
         12    1    1    2    0    0 -0.27032801118E+02  0.15878595592E+02 -0.30012015467E+02  0.43400728181E+02  0.00000000000E+00 0. -1.
         11    1    3    3    0    0 -0.18178807137E+01  0.49708429043E+00  0.34986266901E+01  0.39739365947E+01  0.51100000000E-03 0. -1.
        -11    1    3    3    0    0  0.18465695960E+02 -0.12970260420E+02  0.23266772429E+02  0.32412224271E+02  0.51100000000E-03 0.  1.
         12    1    3    3    0    0  0.10384985871E+02 -0.34054194628E+01  0.32466163475E+01  0.11401110953E+02  0.00000000000E+00 0. -1.
</event>
<event>
 7    1  0.1418970E-010  0.4778727E+02  0.7816164E-02  0.1312668E+00
        -11   -1    0    0    0    0  0.00000000000E+00  0.00000000000E+00  0.45593999997E+02  0.45594000000E+02  0.51100000000E-03 0.  1.
         11   -1    0    0    0    0 -0.00000000000E+00 -0.00000000000E+00 -0.45593999997E+02  0.45594000000E+02  0.51100000000E-03 0. -1.
    9900012    2    1    2    0    0 -0.14657219613E+02  0.11529765203E+02  0.39189975939E+02  0.47787265139E+02  0.19999973073E+02 0.  0.
         12    1    1    2    0    0  0.14657219613E+02 -0.11529765203E+02 -0.39189975939E+02  0.43400734861E+02  0.00000000000E+00 0. -1.
         11    1    3    3    0    0 -0.32356854813E+01  0.17268749299E+01  0.11052366534E+01  0.38305751368E+01  0.51100000000E-03 0. -1.
        -11    1    3    3    0    0 -0.44880112370E+00 -0.18085982068E+01  0.18897516394E+02  0.18989169968E+02  0.51100000000E-03 0.  1.
        -12    1    3    3    0    0 -0.10972733008E+02  0.11611488480E+02  0.19187222891E+02  0.24967520034E+02  0.00000000000E+00 0.  1.
</event>
<event>
 7    1  0.1418970E-010  0.4778727E+02  0.7816164E-02  0.1312668E+00
        -11   -1    0    0    0    0  0.00000000000E+00  0.00000000000E+00  0.45593999997E+02  0.45594000000E+02  0.51100000000E-03 0. -1.
         11   -1    0    0    0    0 -0.00000000000E+00 -0.00000000000E+00 -0.45593999997E+02  0.45594000000E+02  0.51100000000E-03 0.  1.
    9900012    2    1    2    0    0 -0.12559756727E+02 -0.29028422670E+00 -0.41542644341E+02  0.47787273591E+02  0.20000011612E+02 0.  0.
         12    1    1    2    0    0  0.12559756727E+02  0.29028422670E+00  0.41542644341E+02  0.43400726409E+02  0.00000000000E+00 0. -1.
         11    1    3    3    0    0  0.18716854673E+01  0.54425635711E+00 -0.13489273525E+01  0.23704486356E+01  0.51100000000E-03 0. -1.
        -11    1    3    3    0    0  0.30158144020E+01 -0.68457343286E+00 -0.28827026009E+01  0.42277360181E+01  0.51100000000E-03 0.  1.
         12    1    3    3    0    0 -0.17447256597E+02 -0.14996715094E+00 -0.37311014387E+02  0.41189088938E+02  0.00000000000E+00 0. -1.
</event>
<event>
 7    1  0.1418970E-010  0.4778727E+02  0.7816164E-02  0.1312668E+00
        -11   -1    0    0    0    0  0.00000000000E+00  0.00000000000E+00  0.45593999997E+02  0.45594000000E+02  0.51100000000E-03 0.  1.
         11   -1    0    0    0    0 -0.00000000000E+00 -0.00000000000E+00 -0.45593999997E+02  0.45594000000E+02  0.51100000000E-03 0. -1.
    9900012    2    1    2    0    0 -0.33888263803E+02  0.26767449661E+02  0.43257866786E+01  0.47787271719E+02  0.20000003077E+02 0.  0.
         12    1    1    2    0    0  0.33888263803E+02 -0.26767449661E+02 -0.43257866786E+01  0.43400728281E+02  0.00000000000E+00 0. -1.
         11    1    3    3    0    0 -0.83244023930E+01  0.93164573361E+01 -0.20477145953E+01  0.12660378660E+02  0.51100000000E-03 0. -1.
        -11    1    3    3    0    0 -0.16934410517E+02  0.18107221221E+02  0.85113608661E+01  0.26212382264E+02  0.51100000000E-03 0.  1.
         12    1    3    3    0    0 -0.86294508927E+01 -0.65622889632E+00 -0.21378595923E+01  0.89145107947E+01  0.00000000000E+00 0. -1.
</event>
<event>
 7    1  0.1418970E-010  0.4778727E+02  0.7816164E-02  0.1312668E+00
        -11   -1    0    0    0    0  0.00000000000E+00  0.00000000000E+00  0.45593999997E+02  0.45594000000E+02  0.51100000000E-03 0.  1.
         11   -1    0    0    0    0 -0.00000000000E+00 -0.00000000000E+00 -0.45593999997E+02  0.45594000000E+02  0.51100000000E-03 0. -1.
    9900012    2    1    2    0    0  0.17375412795E+01  0.38562503964E+02  0.19837783702E+02  0.47787269317E+02  0.19999992123E+02 0.  0.
         12    1    1    2    0    0 -0.17375412795E+01 -0.38562503964E+02 -0.19837783702E+02  0.43400730683E+02  0.00000000000E+00 0. -1.
         11    1    3    3    0    0  0.24623545150E+01  0.34401729592E+02  0.11460159397E+02  0.36343877646E+02  0.51100000000E-03 0. -1.
        -11    1    3    3    0    0 -0.15190324903E+01  0.55138637828E+01  0.79921938253E+01  0.98277828590E+01  0.51100000000E-03 0.  1.
        -12    1    3    3    0    0  0.79421925489E+00 -0.13530894110E+01  0.38543047903E+00  0.16156088119E+01  0.00000000000E+00 0.  1.
</event>
<event>
 7    1  0.1418970E-010  0.4778727E+02  0.7816164E-02  0.1312668E+00
        -11   -1    0    0    0    0  0.00000000000E+00  0.00000000000E+00  0.45593999997E+02  0.45594000000E+02  0.51100000000E-03 0.  1.
         11   -1    0    0    0    0 -0.00000000000E+00 -0.00000000000E+00 -0.45593999997E+02  0.45594000000E+02  0.51100000000E-03 0. -1.
    9900012    2    1    2    0    0  0.20026888084E+02 -0.28660448515E+01  0.38397044105E+02  0.47787268953E+02  0.19999990462E+02 0.  0.
         12    1    1    2    0    0 -0.20026888084E+02  0.28660448515E+01 -0.38397044105E+02  0.43400731047E+02  0.00000000000E+00 0. -1.
         11    1    3    3    0    0  0.92832725268E+01 -0.64414682507E+01  0.11928720736E+02  0.16430643344E+02  0.51100000000E-03 0. -1.
        -11    1    3    3    0    0  0.10858558726E+02  0.16678118047E+01  0.27180858552E+02  0.29317042241E+02  0.51100000000E-03 0.  1.
        -12    1    3    3    0    0 -0.11494316923E+00  0.19076115946E+01 -0.71253518314E+00  0.20395833680E+01  0.00000000000E+00 0.  1.
</event>
<event>
 7    1  0.1418970E-010  0.4778727E+02  0.7816164E-02  0.1312668E+00
        -11   -1    0    0    0    0  0.00000000000E+00  0.00000000000E+00  0.45593999997E+02  0.45594000000E+02  0.51100000000E-03 0.  1.
         11   -1    0    0    0    0 -0.00000000000E+00 -0.00000000000E+00 -0.45593999997E+02  0.45594000000E+02  0.51100000000E-03 0. -1.
    9900012    2    1    2    0    0  0.33131013498E+02 -0.27858161531E+02 -0.31435761050E+01  0.47787270858E+02  0.19999999152E+02 0.  0.
         12    1    1    2    0    0 -0.33131013498E+02  0.27858161531E+02  0.31435761050E+01  0.43400729142E+02  0.00000000000E+00 0. -1.
         11    1    3    3    0    0  0.22310521348E+02 -0.24475420509E+02 -0.97086052770E+01  0.34511774637E+02  0.51100000000E-03 0. -1.
        -11    1    3    3    0    0  0.41446657155E+01 -0.50829740529E+00  0.15930904966E+01  0.44692905183E+01  0.51100000000E-03 0.  1.
         12    1    3    3    0    0  0.66758264351E+01 -0.28744436161E+01  0.49719386754E+01  0.88062057031E+01  0.00000000000E+00 0. -1.
</event>
<event>
 7    1  0.1418970E-010  0.4778729E+02  0.7816164E-02  0.1312668E+00
        -11   -1    0    0    0    0  0.00000000000E+00  0.00000000000E+00  0.45593999997E+02  0.45594000000E+02  0.51100000000E-03 0.  1.
         11   -1    0    0    0    0 -0.00000000000E+00 -0.00000000000E+00 -0.45593999997E+02  0.45594000000E+02  0.51100000000E-03 0. -1.
    9900012    2    1    2    0    0  0.27507742293E+02  0.32369797446E+02  0.88961711624E+01  0.47787291087E+02  0.20000091384E+02 0.  0.
         12    1    1    2    0    0 -0.27507742293E+02 -0.32369797446E+02 -0.88961711624E+01  0.43400708913E+02  0.00000000000E+00 0. -1.
         11    1    3    3    0    0 -0.23120561277E+01  0.41935774029E+00  0.19258867185E+01  0.30381745120E+01  0.51100000000E-03 0. -1.
        -11    1    3    3    0    0  0.77304096306E+01  0.12610697461E+02  0.13121838503E+01  0.14849604379E+02  0.51100000000E-03 0.  1.
        -12    1    3    3    0    0  0.22089388791E+02  0.19339742245E+02  0.56581005936E+01  0.29899512196E+02  0.00000000000E+00 0.  1.
</event>
<event>
 7    1  0.1462731E-010  0.4778732E+02  0.7816164E-02  0.1312668E+00
        -11   -1    0    0    0    0  0.00000000000E+00  0.00000000000E+00  0.45593999997E+02  0.45594000000E+02  0.51100000000E-03 0.  1.
         11   -1    0    0    0    0 -0.00000000000E+00 -0.00000000000E+00 -0.45593999997E+02  0.45594000000E+02  0.51100000000E-03 0. -1.
    9900012    2    1    2    0    0  0.38289982263E+02 -0.12005196094E+02  0.16533953212E+02  0.47787319317E+02  0.20000220091E+02 0.  0.
         12    1    1    2    0    0 -0.38289982263E+02  0.12005196094E+02 -0.16533953212E+02  0.43400680683E+02  0.00000000000E+00 0. -1.
         11    1    3    3    0    0  0.63745979703E+00 -0.13219807560E+01  0.55095222562E+01  0.57016509772E+01  0.51100000000E-03 0. -1.
        -11    1    3    3    0    0  0.18473509849E+02 -0.10263269478E+02  0.83223217307E+01  0.22712690412E+02  0.51100000000E-03 0.  1.
         12    1    3    3    0    0  0.19179012617E+02 -0.41994585970E+00  0.27021092255E+01  0.19372977927E+02  0.00000000000E+00 0. -1.
</event>
<event>
 7    1  0.1418970E-010  0.4778727E+02  0.7816164E-02  0.1312668E+00
        -11   -1    0    0    0    0  0.00000000000E+00  0.00000000000E+00  0.45593999997E+02  0.45594000000E+02  0.51100000000E-03 0.  1.
         11   -1    0    0    0    0 -0.00000000000E+00 -0.00000000000E+00 -0.45593999997E+02  0.45594000000E+02  0.51100000000E-03 0. -1.
    9900012    2    1    2    0    0 -0.63276880805E+01  0.21389765933E+02  0.37229845257E+02  0.47787273036E+02  0.20000009081E+02 0.  0.
         12    1    1    2    0    0  0.63276880805E+01 -0.21389765933E+02 -0.37229845257E+02  0.43400726964E+02  0.00000000000E+00 0. -1.
         11    1    3    3    0    0 -0.53511415120E+01  0.56306932102E+01  0.25443566526E+02  0.26602903964E+02  0.51100000000E-03 0. -1.
        -11    1    3    3    0    0  0.18169300124E+01  0.86669785209E+01  0.99964071270E+01  0.13354621188E+02  0.51100000000E-03 0.  1.
        -12    1    3    3    0    0 -0.27934765808E+01  0.70920942015E+01  0.17898716043E+01  0.78297478842E+01  0.00000000000E+00 0.  1.
</event>
<event>
 7    1  0.1418970E-010  0.4778724E+02  0.7816164E-02  0.1312668E+00
        -11   -1    0    0    0    0  0.00000000000E+00  0.00000000000E+00  0.45593999997E+02  0.45594000000E+02  0.51100000000E-03 0.  1.
         11   -1    0    0    0    0 -0.00000000000E+00 -0.00000000000E+00 -0.45593999997E+02  0.45594000000E+02  0.51100000000E-03 0. -1.
    9900012    2    1    2    0    0 -0.53035880558E+01 -0.16248260050E+02  0.39893504263E+02  0.47787243287E+02  0.19999873441E+02 0.  0.
         12    1    1    2    0    0  0.53035880558E+01  0.16248260050E+02 -0.39893504263E+02  0.43400756713E+02  0.00000000000E+00 0. -1.
         11    1    3    3    0    0  0.19242489197E+01 -0.93614024133E+01  0.17086592324E+02  0.19577799329E+02  0.51100000000E-03 0. -1.
        -11    1    3    3    0    0 -0.13732881944E+01 -0.96671880366E+01  0.10761093641E+02  0.14530711669E+02  0.51100000000E-03 0.  1.
        -12    1    3    3    0    0 -0.58545487811E+01  0.27803304000E+01  0.12045818298E+02  0.13678732289E+02  0.00000000000E+00 0.  1.
</event>
<event>
 7    1  0.1418970E-010  0.4778727E+02  0.7816164E-02  0.1312668E+00
        -11   -1    0    0    0    0  0.00000000000E+00  0.00000000000E+00  0.45593999997E+02  0.45594000000E+02  0.51100000000E-03 0. -1.
         11   -1    0    0    0    0 -0.00000000000E+00 -0.00000000000E+00 -0.45593999997E+02  0.45594000000E+02  0.51100000000E-03 0.  1.
    9900012    2    1    2    0    0 -0.63460148979E+00  0.42537705928E+02  0.85885998048E+01  0.47787271996E+02  0.20000004341E+02 0.  0.
         12    1    1    2    0    0  0.63460148979E+00 -0.42537705928E+02 -0.85885998048E+01  0.43400728004E+02  0.00000000000E+00 0. -1.
         11    1    3    3    0    0  0.57627367657E+01  0.34167855512E+02  0.91624109322E+01  0.35841334513E+02  0.51100000000E-03 0.  1.
        -11    1    3    3    0    0 -0.19842697143E+00  0.31074430376E-01 -0.15008256804E+01  0.15142050282E+01  0.51100000000E-03 0. -1.
        -12    1    3    3    0    0 -0.61989112840E+01  0.83387759856E+01  0.92701455301E+00  0.10431732456E+02  0.00000000000E+00 0.  1.
</event>
<event>
 7    1  0.1418970E-010  0.4778727E+02  0.7816164E-02  0.1312668E+00
        -11   -1    0    0    0    0  0.00000000000E+00  0.00000000000E+00  0.45593999997E+02  0.45594000000E+02  0.51100000000E-03 0.  1.
         11   -1    0    0    0    0 -0.00000000000E+00 -0.00000000000E+00 -0.45593999997E+02  0.45594000000E+02  0.51100000000E-03 0. -1.
    9900012    2    1    2    0    0  0.28142464616E+02  0.51182971201E+01  0.32640895773E+02  0.47787270088E+02  0.19999995639E+02 0.  0.
         12    1    1    2    0    0 -0.28142464616E+02 -0.51182971201E+01 -0.32640895773E+02  0.43400729912E+02  0.00000000000E+00 0. -1.
         11    1    3    3    0    0  0.18312379595E+02 -0.25351777420E+00  0.16623900437E+02  0.24733814580E+02  0.51100000000E-03 0. -1.
        -11    1    3    3    0    0  0.12293178458E+02  0.58073030492E+01  0.15264483682E+02  0.20441415500E+02  0.51100000000E-03 0.  1.
         12    1    3    3    0    0 -0.24630934372E+01 -0.43548815496E+00  0.75251165402E+00  0.26120400079E+01  0.00000000000E+00 0. -1.
</event>
<event>
 7    1  0.1418970E-010  0.4778727E+02  0.7816164E-02  0.1312668E+00
        -11   -1    0    0    0    0  0.00000000000E+00  0.00000000000E+00  0.45593999997E+02  0.45594000000E+02  0.51100000000E-03 0. -1.
         11   -1    0    0    0    0 -0.00000000000E+00 -0.00000000000E+00 -0.45593999997E+02  0.45594000000E+02  0.51100000000E-03 0.  1.
    9900012    2    1    2    0    0 -0.42496227429E+02 -0.42032343338E+01 -0.77476800650E+01  0.47787273382E+02  0.20000010659E+02 0.  0.
         12    1    1    2    0    0  0.42496227429E+02  0.42032343338E+01  0.77476800650E+01  0.43400726618E+02  0.00000000000E+00 0. -1.
         11    1    3    3    0    0 -0.12893398121E+02  0.39501483298E+01  0.44433906096E+01  0.14198137459E+02  0.51100000000E-03 0. -1.
        -11    1    3    3    0    0 -0.14888502685E+02 -0.47318425498E+01 -0.30054863974E+01  0.15908827577E+02  0.51100000000E-03 0.  1.
        -12    1    3    3    0    0 -0.14714326623E+02 -0.34215401139E+01 -0.91855842773E+01  0.17680308347E+02  0.00000000000E+00 0.  1.
</event>
<event>
 7    1  0.1418970E-010  0.4778727E+02  0.7816164E-02  0.1312668E+00
        -11   -1    0    0    0    0  0.00000000000E+00  0.00000000000E+00  0.45593999997E+02  0.45594000000E+02  0.51100000000E-03 0.  1.
         11   -1    0    0    0    0 -0.00000000000E+00 -0.00000000000E+00 -0.45593999997E+02  0.45594000000E+02  0.51100000000E-03 0. -1.
    9900012    2    1    2    0    0 -0.52264339648E+00 -0.28355070613E+02  0.32853312231E+02  0.47787270627E+02  0.19999998096E+02 0.  0.
         12    1    1    2    0    0  0.52264339648E+00  0.28355070613E+02 -0.32853312231E+02  0.43400729373E+02  0.00000000000E+00 0. -1.
         11    1    3    3    0    0 -0.36425030435E+01 -0.23160056575E+02  0.21138841696E+02  0.31567494001E+02  0.51100000000E-03 0. -1.
        -11    1    3    3    0    0 -0.16589713882E+01 -0.55900416366E+01  0.89586207745E+01  0.10689136448E+02  0.51100000000E-03 0.  1.
        -12    1    3    3    0    0  0.47788310353E+01  0.39502759954E+00  0.27558497610E+01  0.55306401776E+01  0.00000000000E+00 0.  1.
</event>
<event>
 7    1  0.1418970E-010  0.4778728E+02  0.7816164E-02  0.1312668E+00
        -11   -1    0    0    0    0  0.00000000000E+00  0.00000000000E+00  0.45593999997E+02  0.45594000000E+02  0.51100000000E-03 0.  1.
         11   -1    0    0    0    0 -0.00000000000E+00 -0.00000000000E+00 -0.45593999997E+02  0.45594000000E+02  0.51100000000E-03 0. -1.
    9900012    2    1    2    0    0  0.36644186627E+00  0.41473385395E+02  0.12784637295E+02  0.47787275046E+02  0.20000018246E+02 0.  0.
         12    1    1    2    0    0 -0.36644186627E+00 -0.41473385395E+02 -0.12784637295E+02  0.43400724954E+02  0.00000000000E+00 0. -1.
         11    1    3    3    0    0 -0.47700151721E+01  0.20780343758E+01  0.15173882726E+00  0.52052182030E+01  0.51100000000E-03 0. -1.
        -11    1    3    3    0    0 -0.84591927612E+00  0.23440917326E+02  0.92275407985E+01  0.25205945607E+02  0.51100000000E-03 0.  1.
        -12    1    3    3    0    0  0.59823763144E+01  0.15954433693E+02  0.34053576696E+01  0.17376111236E+02  0.00000000000E+00 0.  1.
</event>
<event>
 7    1  0.1418970E-010  0.4778727E+02  0.7816164E-02  0.1312668E+00
        -11   -1    0    0    0    0  0.00000000000E+00  0.00000000000E+00  0.45593999997E+02  0.45594000000E+02  0.51100000000E-03 0.  1.
         11   -1    0    0    0    0 -0.00000000000E+00 -0.00000000000E+00 -0.45593999997E+02  0.45594000000E+02  0.51100000000E-03 0. -1.
    9900012    2    1    2    0    0 -0.26163396984E+02  0.28698363947E+02  0.19377922647E+02  0.47787270501E+02  0.19999997521E+02 0.  0.
         12    1    1    2    0    0  0.26163396984E+02 -0.28698363947E+02 -0.19377922647E+02  0.43400729499E+02  0.00000000000E+00 0. -1.
         11    1    3    3    0    0 -0.16493049447E+02  0.15663798634E+02  0.44391218846E+01  0.23175009624E+02  0.51100000000E-03 0. -1.
        -11    1    3    3    0    0  0.63954650223E+00  0.78731173726E+01  0.46936137557E+01  0.91883081816E+01  0.51100000000E-03 0.  1.
        -12    1    3    3    0    0 -0.10309894040E+02  0.51614479402E+01  0.10245187006E+02  0.15423952695E+02  0.00000000000E+00 0.  1.
</event>
<event>
 7    1  0.1418970E-010  0.4778728E+02  0.7816164E-02  0.1312668E+00
        -11   -1    0    0    0    0  0.00000000000E+00  0.00000000000E+00  0.45593999997E+02  0.45594000000E+02  0.51100000000E-03 0.  1.
         11   -1    0    0    0    0 -0.00000000000E+00 -0.00000000000E+00 -0.45593999997E+02  0.45594000000E+02  0.51100000000E-03 0. -1.
    9900012    2    1    2    0    0 -0.35987869455E+02  0.22775626897E+02  0.83526270482E+01  0.47787282182E+02  0.20000050782E+02 0.  0.
         12    1    1    2    0    0  0.35987869455E+02 -0.22775626897E+02 -0.83526270482E+01  0.43400717818E+02  0.00000000000E+00 0. -1.
         11    1    3    3    0    0 -0.61757206502E+01  0.11437560109E+02 -0.14378020814E+00  0.12999153042E+02  0.51100000000E-03 0. -1.
        -11    1    3    3    0    0 -0.56341744453E+01 -0.21547237633E+01  0.19118918228E+01  0.63278816976E+01  0.51100000000E-03 0.  1.
        -12    1    3    3    0    0 -0.24177974360E+02  0.13492790551E+02  0.65845154336E+01  0.28460247443E+02  0.00000000000E+00 0.  1.
</event>
<event>
 7    1  0.1418970E-010  0.4778727E+02  0.7816164E-02  0.1312668E+00
        -11   -1    0    0    0    0  0.00000000000E+00  0.00000000000E+00  0.45593999997E+02  0.45594000000E+02  0.51100000000E-03 0.  1.
         11   -1    0    0    0    0 -0.00000000000E+00 -0.00000000000E+00 -0.45593999997E+02  0.45594000000E+02  0.51100000000E-03 0. -1.
    9900012    2    1    2    0    0  0.23120082453E+02  0.26669078266E+02  0.25255600537E+02  0.47787270666E+02  0.19999998276E+02 0.  0.
         12    1    1    2    0    0 -0.23120082453E+02 -0.26669078266E+02 -0.25255600537E+02  0.43400729334E+02  0.00000000000E+00 0. -1.
         11    1    3    3    0    0  0.10624129695E+02  0.10163400920E+02  0.13338492677E+02  0.19851504658E+02  0.51100000000E-03 0.  1.
        -11    1    3    3    0    0  0.42416545814E+01 -0.12056947797E+01 -0.98734459346E+00  0.45188696703E+01  0.51100000000E-03 0. -1.
         12    1    3    3    0    0  0.82542981766E+01  0.17711372126E+02  0.12904452453E+02  0.23416896338E+02  0.00000000000E+00 0. -1.
</event>
<event>
 7    1  0.1418970E-010  0.4778727E+02  0.7816164E-02  0.1312668E+00
        -11   -1    0    0    0    0  0.00000000000E+00  0.00000000000E+00  0.45593999997E+02  0.45594000000E+02  0.51100000000E-03 0.  1.
         11   -1    0    0    0    0 -0.00000000000E+00 -0.00000000000E+00 -0.45593999997E+02  0.45594000000E+02  0.51100000000E-03 0. -1.
    9900012    2    1    2    0    0 -0.52676103984E+00 -0.35524870881E+02  0.24926481823E+02  0.47787269310E+02  0.19999992094E+02 0.  0.
         12    1    1    2    0    0  0.52676103984E+00  0.35524870881E+02 -0.24926481823E+02  0.43400730690E+02  0.00000000000E+00 0. -1.
         11    1    3    3    0    0  0.11516871173E+00 -0.15723734485E+02  0.57667758856E+01  0.16748277355E+02  0.51100000000E-03 0. -1.
        -11    1    3    3    0    0 -0.27524864068E+01 -0.16366233604E+02  0.20866057574E+02  0.26661247959E+02  0.51100000000E-03 0.  1.
        -12    1    3    3    0    0  0.21105566552E+01 -0.34349027929E+01 -0.17063516369E+01  0.43777439966E+01  0.00000000000E+00 0.  1.
</event>
<event>
 7    1  0.1418970E-010  0.4778727E+02  0.7816164E-02  0.1312668E+00
        -11   -1    0    0    0    0  0.00000000000E+00  0.00000000000E+00  0.45593999997E+02  0.45594000000E+02  0.51100000000E-03 0.  1.
         11   -1    0    0    0    0 -0.00000000000E+00 -0.00000000000E+00 -0.45593999997E+02  0.45594000000E+02  0.51100000000E-03 0. -1.
    9900012    2    1    2    0    0 -0.13091608347E+02  0.35847547060E+02  0.20668481744E+02  0.47787274465E+02  0.20000015598E+02 0.  0.
         12    1    1    2    0    0  0.13091608347E+02 -0.35847547060E+02 -0.20668481744E+02  0.43400725535E+02  0.00000000000E+00 0. -1.
         11    1    3    3    0    0  0.60597072063E+00  0.22738143345E+01  0.13273431420E+01  0.27017165321E+01  0.51100000000E-03 0. -1.
        -11    1    3    3    0    0 -0.16411055374E+01  0.60284840062E+01  0.12902560712E+02  0.14335686938E+02  0.51100000000E-03 0.  1.
         12    1    3    3    0    0 -0.12056473530E+02  0.27545248719E+02  0.64385778905E+01  0.30749870995E+02  0.00000000000E+00 0. -1.
</event>
<event>
 7    1  0.1418970E-010  0.4778727E+02  0.7816164E-02  0.1312668E+00
        -11   -1    0    0    0    0  0.00000000000E+00  0.00000000000E+00  0.45593999997E+02  0.45594000000E+02  0.51100000000E-03 0.  1.
         11   -1    0    0    0    0 -0.00000000000E+00 -0.00000000000E+00 -0.45593999997E+02  0.45594000000E+02  0.51100000000E-03 0. -1.
    9900012    2    1    2    0    0  0.37734537652E+02  0.30488631266E+01  0.21223386647E+02  0.47787273751E+02  0.20000012342E+02 0.  0.
         12    1    1    2    0    0 -0.37734537652E+02 -0.30488631266E+01 -0.21223386647E+02  0.43400726249E+02  0.00000000000E+00 0. -1.
         11    1    3    3    0    0  0.10458613130E+02 -0.19107895278E+01  0.99983961785E+01  0.14594575418E+02  0.51100000000E-03 0. -1.
        -11    1    3    3    0    0  0.24670413373E+02  0.39810946849E+01  0.14502476761E+02  0.28892909915E+02  0.51100000000E-03 0.  1.
         12    1    3    3    0    0  0.26055111482E+01  0.97855796952E+00 -0.32774862928E+01  0.42997884184E+01  0.00000000000E+00 0. -1.
</event>
<event>
 7    1  0.1418970E-010  0.4778727E+02  0.7816164E-02  0.1312668E+00
        -11   -1    0    0    0    0  0.00000000000E+00  0.00000000000E+00  0.45593999997E+02  0.45594000000E+02  0.51100000000E-03 0.  1.
         11   -1    0    0    0    0 -0.00000000000E+00 -0.00000000000E+00 -0.45593999997E+02  0.45594000000E+02  0.51100000000E-03 0. -1.
    9900012    2    1    2    0    0  0.40250125157E+02  0.51146771554E+01  0.15407505314E+02  0.47787265933E+02  0.19999976695E+02 0.  0.
         12    1    1    2    0    0 -0.40250125157E+02 -0.51146771554E+01 -0.15407505314E+02  0.43400734067E+02  0.00000000000E+00 0. -1.
         11    1    3    3    0    0  0.10704459239E+02 -0.28942494597E+01 -0.22759203532E+01  0.11319979737E+02  0.51100000000E-03 0. -1.
        -11    1    3    3    0    0  0.20175456388E+02  0.59984155312E+01  0.71569486660E+01  0.22231777792E+02  0.51100000000E-03 0.  1.
        -12    1    3    3    0    0  0.93702095306E+01  0.20105110839E+01  0.10526477001E+02  0.14235508404E+02  0.00000000000E+00 0.  1.
</event>
<event>
 7    1  0.1418970E-010  0.4778727E+02  0.7816164E-02  0.1312668E+00
        -11   -1    0    0    0    0  0.00000000000E+00  0.00000000000E+00  0.45593999997E+02  0.45594000000E+02  0.51100000000E-03 0.  1.
         11   -1    0    0    0    0 -0.00000000000E+00 -0.00000000000E+00 -0.45593999997E+02  0.45594000000E+02  0.51100000000E-03 0. -1.
    9900012    2    1    2    0    0  0.10978067470E+02  0.28067367148E+02  0.31230246907E+02  0.47787269754E+02  0.19999994117E+02 0.  0.
         12    1    1    2    0    0 -0.10978067470E+02 -0.28067367148E+02 -0.31230246907E+02  0.43400730246E+02  0.00000000000E+00 0. -1.
         11    1    3    3    0    0  0.11301783039E+01  0.35835469976E+01  0.14447147095E+02  0.14927798617E+02  0.51100000000E-03 0. -1.
        -11    1    3    3    0    0 -0.66391369134E+00  0.11613260485E+02  0.69733069628E+01  0.13562286339E+02  0.51100000000E-03 0.  1.
         12    1    3    3    0    0  0.10511802857E+02  0.12870559666E+02  0.98097928487E+01  0.19297184799E+02  0.00000000000E+00 0. -1.
</event>
<event>
 7    1  0.1418970E-010  0.4778727E+02  0.7816164E-02  0.1312668E+00
        -11   -1    0    0    0    0  0.00000000000E+00  0.00000000000E+00  0.45593999997E+02  0.45594000000E+02  0.51100000000E-03 0.  1.
         11   -1    0    0    0    0 -0.00000000000E+00 -0.00000000000E+00 -0.45593999997E+02  0.45594000000E+02  0.51100000000E-03 0. -1.
    9900012    2    1    2    0    0  0.23851639515E+02  0.10770798016E+02  0.34622426335E+02  0.47787271863E+02  0.20000003734E+02 0.  0.
         12    1    1    2    0    0 -0.23851639515E+02 -0.10770798016E+02 -0.34622426335E+02  0.43400728137E+02  0.00000000000E+00 0. -1.
         11    1    3    3    0    0  0.89021028307E+01  0.15881946781E+01  0.10123433027E+02  0.13574008017E+02  0.51100000000E-03 0. -1.
        -11    1    3    3    0    0 -0.18596770934E+01  0.62314992731E+01  0.93763780848E+01  0.11410804018E+02  0.51100000000E-03 0.  1.
        -12    1    3    3    0    0  0.16809213778E+02  0.29511040652E+01  0.15122615223E+02  0.22802459828E+02  0.00000000000E+00 0.  1.
</event>
<event>
 7    1  0.1418970E-010  0.4778726E+02  0.7816164E-02  0.1312668E+00
        -11   -1    0    0    0    0  0.00000000000E+00  0.00000000000E+00  0.45593999997E+02  0.45594000000E+02  0.51100000000E-03 0.  1.
         11   -1    0    0    0    0 -0.00000000000E+00 -0.00000000000E+00 -0.45593999997E+02  0.45594000000E+02  0.51100000000E-03 0. -1.
    9900012    2    1    2    0    0 -0.17281307845E+02 -0.30940056180E+02  0.25053806441E+02  0.47787263896E+02  0.19999967406E+02 0.  0.
         12    1    1    2    0    0  0.17281307845E+02  0.30940056180E+02 -0.25053806441E+02  0.43400736104E+02  0.00000000000E+00 0. -1.
         11    1    3    3    0    0 -0.22144026480E+01  0.18377818836E+00  0.27706816061E+00  0.22392231994E+01  0.51100000000E-03 0.  1.
        -11    1    3    3    0    0 -0.12417020834E+02 -0.32792658239E+02  0.22296942496E+02  0.41553513518E+02  0.51100000000E-03 0. -1.
         12    1    3    3    0    0 -0.26498843630E+01  0.16688238706E+01  0.24797957843E+01  0.39945271786E+01  0.00000000000E+00 0. -1.
</event>
<event>
 7    1  0.1418970E-010  0.4778727E+02  0.7816164E-02  0.1312668E+00
        -11   -1    0    0    0    0  0.00000000000E+00  0.00000000000E+00  0.45593999997E+02  0.45594000000E+02  0.51100000000E-03 0.  1.
         11   -1    0    0    0    0 -0.00000000000E+00 -0.00000000000E+00 -0.45593999997E+02  0.45594000000E+02  0.51100000000E-03 0. -1.
    9900012    2    1    2    0    0  0.72865996345E+01  0.42775364731E+02 -0.89271702166E+00  0.47787270677E+02  0.19999998325E+02 0.  0.
         12    1    1    2    0    0 -0.72865996345E+01 -0.42775364731E+02  0.89271702166E+00  0.43400729323E+02  0.00000000000E+00 0. -1.
         11    1    3    3    0    0 -0.40644280109E+01  0.31021409718E+02 -0.39087324589E+00  0.31288979180E+02  0.51100000000E-03 0. -1.
        -11    1    3    3    0    0  0.26391567398E+01  0.15056863141E+01 -0.88883609516E-02  0.30384731096E+01  0.51100000000E-03 0.  1.
         12    1    3    3    0    0  0.87118709056E+01  0.10248268699E+02 -0.49295541481E+00  0.13459818388E+02  0.00000000000E+00 0. -1.
</event>
<event>
 7    1  0.1418970E-010  0.4778727E+02  0.7816164E-02  0.1312668E+00
        -11   -1    0    0    0    0  0.00000000000E+00  0.00000000000E+00  0.45593999997E+02  0.45594000000E+02  0.51100000000E-03 0.  1.
         11   -1    0    0    0    0 -0.00000000000E+00 -0.00000000000E+00 -0.45593999997E+02  0.45594000000E+02  0.51100000000E-03 0. -1.
    9900012    2    1    2    0    0 -0.67455940611E+00 -0.26219284301E+02  0.34579148835E+02  0.47787269202E+02  0.19999991602E+02 0.  0.
         12    1    1    2    0    0  0.67455940611E+00  0.26219284301E+02 -0.34579148835E+02  0.43400730798E+02  0.00000000000E+00 0. -1.
         11    1    3    3    0    0  0.12594568782E+01 -0.16318547059E+02  0.11569228308E+02  0.20043159773E+02  0.51100000000E-03 0. -1.
        -11    1    3    3    0    0  0.44926885594E+01 -0.54178481017E+01  0.14837084083E+02  0.16421826722E+02  0.51100000000E-03 0.  1.
         12    1    3    3    0    0 -0.64267048437E+01 -0.44828891396E+01  0.81728364434E+01  0.11322282708E+02  0.00000000000E+00 0. -1.
</event>
<event>
 7    1  0.1418970E-010  0.4778727E+02  0.7816164E-02  0.1312668E+00
        -11   -1    0    0    0    0  0.00000000000E+00  0.00000000000E+00  0.45593999997E+02  0.45594000000E+02  0.51100000000E-03 0. -1.
         11   -1    0    0    0    0 -0.00000000000E+00 -0.00000000000E+00 -0.45593999997E+02  0.45594000000E+02  0.51100000000E-03 0.  1.
    9900012    2    1    2    0    0  0.29666477528E+02 -0.10455012517E+02  0.29903445661E+02  0.47787271457E+02  0.20000001883E+02 0.  0.
         12    1    1    2    0    0 -0.29666477528E+02  0.10455012517E+02 -0.29903445661E+02  0.43400728543E+02  0.00000000000E+00 0. -1.
         11    1    3    3    0    0  0.78080041329E+00 -0.25370233860E+01 -0.95298118149E+00  0.28203386924E+01  0.51100000000E-03 0. -1.
        -11    1    3    3    0    0  0.24334624939E+02 -0.34964259857E+01  0.17490924498E+02  0.30171698754E+02  0.51100000000E-03 0.  1.
         12    1    3    3    0    0  0.45510521754E+01 -0.44215631449E+01  0.13365502344E+02  0.14795234012E+02  0.00000000000E+00 0. -1.
</event>
<event>
 7    1  0.1418970E-010  0.4778730E+02  0.7816164E-02  0.1312668E+00
        -11   -1    0    0    0    0  0.00000000000E+00  0.00000000000E+00  0.45593999997E+02  0.45594000000E+02  0.51100000000E-03 0.  1.
         11   -1    0    0    0    0 -0.00000000000E+00 -0.00000000000E+00 -0.45593999997E+02  0.45594000000E+02  0.51100000000E-03 0. -1.
    9900012    2    1    2    0    0  0.16025569288E+02 -0.39602384648E+02  0.76454423873E+01  0.47787302653E+02  0.20000144118E+02 0.  0.
         12    1    1    2    0    0 -0.16025569288E+02  0.39602384648E+02 -0.76454423873E+01  0.43400697347E+02  0.00000000000E+00 0. -1.
         11    1    3    3    0    0  0.90009671368E+01 -0.13682040574E+02  0.78853781610E+01  0.18176766288E+02  0.51100000000E-03 0. -1.
        -11    1    3    3    0    0  0.10108626474E+02 -0.21893552762E+02 -0.21053185546E+01  0.24206287369E+02  0.51100000000E-03 0.  1.
        -12    1    3    3    0    0 -0.30840243227E+01 -0.40267913126E+01  0.18653827809E+01  0.54042489966E+01  0.00000000000E+00 0.  1.
</event>
<event>
 7    1  0.1418970E-010  0.4778728E+02  0.7816164E-02  0.1312668E+00
        -11   -1    0    0    0    0  0.00000000000E+00  0.00000000000E+00  0.45593999997E+02  0.45594000000E+02  0.51100000000E-03 0.  1.
         11   -1    0    0    0    0 -0.00000000000E+00 -0.00000000000E+00 -0.45593999997E+02  0.45594000000E+02  0.51100000000E-03 0. -1.
    9900012    2    1    2    0    0 -0.27554783944E+00  0.38111727139E+02  0.20761580798E+02  0.47787275244E+02  0.20000019147E+02 0.  0.
         12    1    1    2    0    0  0.27554783944E+00 -0.38111727139E+02 -0.20761580798E+02  0.43400724756E+02  0.00000000000E+00 0. -1.
         11    1    3    3    0    0 -0.40702741294E+01  0.21307214791E+01 -0.18921952394E+01  0.49686525935E+01  0.51100000000E-03 0. -1.
        -11    1    3    3    0    0  0.25525040062E+01  0.16001785120E+02  0.84621731261E+01  0.18280612080E+02  0.51100000000E-03 0.  1.
         12    1    3    3    0    0  0.12422222838E+01  0.19979220540E+02  0.14191602911E+02  0.24538010571E+02  0.00000000000E+00 0. -1.
</event>
<event>
 7    1  0.1418970E-010  0.4778724E+02  0.7816164E-02  0.1312668E+00
        -11   -1    0    0    0    0  0.00000000000E+00  0.00000000000E+00  0.45593999997E+02  0.45594000000E+02  0.51100000000E-03 0.  1.
         11   -1    0    0    0    0 -0.00000000000E+00 -0.00000000000E+00 -0.45593999997E+02  0.45594000000E+02  0.51100000000E-03 0. -1.
    9900012    2    1    2    0    0  0.30620189169E+02  0.51548896234E+01  0.30322555772E+02  0.47787236639E+02  0.19999843132E+02 0.  0.
         12    1    1    2    0    0 -0.30620189169E+02 -0.51548896234E+01 -0.30322555772E+02  0.43400763361E+02  0.00000000000E+00 0. -1.
         11    1    3    3    0    0  0.76897461901E+01  0.29064475330E+01  0.11076887031E+01  0.82949748797E+01  0.51100000000E-03 0. -1.
        -11    1    3    3    0    0  0.10235856213E+02 -0.37549646970E+00  0.37313464792E+01  0.10901224556E+02  0.51100000000E-03 0.  1.
        -12    1    3    3    0    0  0.12694586766E+02  0.26239385601E+01  0.25483520589E+02  0.28591037203E+02  0.00000000000E+00 0.  1.
</event>
<event>
 7    1  0.1418970E-010  0.4778727E+02  0.7816164E-02  0.1312668E+00
        -11   -1    0    0    0    0  0.00000000000E+00  0.00000000000E+00  0.45593999997E+02  0.45594000000E+02  0.51100000000E-03 0. -1.
         11   -1    0    0    0    0 -0.00000000000E+00 -0.00000000000E+00 -0.45593999997E+02  0.45594000000E+02  0.51100000000E-03 0.  1.
    9900012    2    1    2    0    0  0.11254507370E+01 -0.38804932194E+02 -0.19404482708E+02  0.47787270155E+02  0.19999995944E+02 0.  0.
         12    1    1    2    0    0 -0.11254507370E+01  0.38804932194E+02  0.19404482708E+02  0.43400729845E+02  0.00000000000E+00 0. -1.
         11    1    3    3    0    0 -0.11882751502E+00 -0.20647029912E+01  0.25202996343E+01  0.32602191534E+01  0.51100000000E-03 0. -1.
        -11    1    3    3    0    0 -0.32954310828E+00  0.42585290683E+00  0.77870440567E+00  0.94674715262E+00  0.51100000000E-03 0.  1.
        -12    1    3    3    0    0  0.15738213603E+01 -0.37166082109E+02 -0.22703486748E+02  0.43580303849E+02  0.00000000000E+00 0.  1.
</event>
<event>
 7    1  0.1418970E-010  0.4778727E+02  0.7816164E-02  0.1312668E+00
        -11   -1    0    0    0    0  0.00000000000E+00  0.00000000000E+00  0.45593999997E+02  0.45594000000E+02  0.51100000000E-03 0.  1.
         11   -1    0    0    0    0 -0.00000000000E+00 -0.00000000000E+00 -0.45593999997E+02  0.45594000000E+02  0.51100000000E-03 0. -1.
    9900012    2    1    2    0    0  0.70930105617E+01 -0.17541206581E+02  0.39059165131E+02  0.47787272957E+02  0.20000008720E+02 0.  0.
         12    1    1    2    0    0 -0.70930105617E+01  0.17541206581E+02 -0.39059165131E+02  0.43400727043E+02  0.00000000000E+00 0. -1.
         11    1    3    3    0    0  0.11293825083E+00  0.16058460963E+01  0.16535582791E+02  0.16613759215E+02  0.51100000000E-03 0. -1.
        -11    1    3    3    0    0  0.61796196778E+01 -0.85791156641E+01  0.14164724656E+02  0.17675642840E+02  0.51100000000E-03 0.  1.
         12    1    3    3    0    0  0.80045263307E+00 -0.10567937013E+02  0.83588576831E+01  0.13497870903E+02  0.00000000000E+00 0. -1.
</event>
<event>
 7    1  0.1418970E-010  0.4778727E+02  0.7816164E-02  0.1312668E+00
        -11   -1    0    0    0    0  0.00000000000E+00  0.00000000000E+00  0.45593999997E+02  0.45594000000E+02  0.51100000000E-03 0.  1.
         11   -1    0    0    0    0 -0.00000000000E+00 -0.00000000000E+00 -0.45593999997E+02  0.45594000000E+02  0.51100000000E-03 0. -1.
    9900012    2    1    2    0    0 -0.10305839007E+02 -0.18662273114E+02  0.37803870820E+02  0.47787269541E+02  0.19999993144E+02 0.  0.
         12    1    1    2    0    0  0.10305839007E+02  0.18662273114E+02 -0.37803870820E+02  0.43400730459E+02  0.00000000000E+00 0. -1.
         11    1    3    3    0    0  0.78244848277E+00 -0.12372287706E+02  0.14362477217E+02  0.18972782631E+02  0.51100000000E-03 0. -1.
        -11    1    3    3    0    0 -0.47759239134E+01 -0.16977524595E+01  0.19346702955E+02  0.19999668200E+02  0.51100000000E-03 0.  1.
        -12    1    3    3    0    0 -0.63123635760E+01 -0.45922329492E+01  0.40946906483E+01  0.88148187095E+01  0.00000000000E+00 0.  1.
</event>
<event>
 7    1  0.1418970E-010  0.4778727E+02  0.7816164E-02  0.1312668E+00
        -11   -1    0    0    0    0  0.00000000000E+00  0.00000000000E+00  0.45593999997E+02  0.45594000000E+02  0.51100000000E-03 0.  1.
         11   -1    0    0    0    0 -0.00000000000E+00 -0.00000000000E+00 -0.45593999997E+02  0.45594000000E+02  0.51100000000E-03 0. -1.
    9900012    2    1    2    0    0 -0.86931897629E+01  0.16485068213E+02  0.39195590142E+02  0.47787270642E+02  0.19999998166E+02 0.  0.
         12    1    1    2    0    0  0.86931897629E+01 -0.16485068213E+02 -0.39195590142E+02  0.43400729358E+02  0.00000000000E+00 0. -1.
         11    1    3    3    0    0 -0.53083380335E+01  0.18225181558E+02  0.28207422457E+02  0.33999917315E+02  0.51100000000E-03 0.  1.
        -11    1    3    3    0    0 -0.56652226390E+01 -0.51517570247E+00  0.68226270398E+01  0.88830396565E+01  0.51100000000E-03 0. -1.
        -12    1    3    3    0    0  0.22803709096E+01 -0.12249376432E+01  0.41655406449E+01  0.49043136706E+01  0.00000000000E+00 0.  1.
</event>
<event>
 7    1  0.1418970E-010  0.4778727E+02  0.7816164E-02  0.1312668E+00
        -11   -1    0    0    0    0  0.00000000000E+00  0.00000000000E+00  0.45593999997E+02  0.45594000000E+02  0.51100000000E-03 0. -1.
         11   -1    0    0    0    0 -0.00000000000E+00 -0.00000000000E+00 -0.45593999997E+02  0.45594000000E+02  0.51100000000E-03 0.  1.
    9900012    2    1    2    0    0  0.43334115801E+02  0.18084168348E+01 -0.15834880354E+01  0.47787269614E+02  0.19999993477E+02 0.  0.
         12    1    1    2    0    0 -0.43334115801E+02 -0.18084168348E+01  0.15834880354E+01  0.43400730386E+02  0.00000000000E+00 0. -1.
         11    1    3    3    0    0  0.32047875747E+02 -0.37703247797E+00 -0.30615854740E+01  0.32195990422E+02  0.51100000000E-03 0. -1.
        -11    1    3    3    0    0  0.49434183136E+01  0.42172425834E+01 -0.34018904289E+01  0.73345332763E+01  0.51100000000E-03 0.  1.
         12    1    3    3    0    0  0.63428217407E+01 -0.20317932706E+01  0.48799878675E+01  0.82567459157E+01  0.00000000000E+00 0. -1.
</event>
<event>
 7    1  0.1418970E-010  0.4778727E+02  0.7816164E-02  0.1312668E+00
        -11   -1    0    0    0    0  0.00000000000E+00  0.00000000000E+00  0.45593999997E+02  0.45594000000E+02  0.51100000000E-03 0. -1.
         11   -1    0    0    0    0 -0.00000000000E+00 -0.00000000000E+00 -0.45593999997E+02  0.45594000000E+02  0.51100000000E-03 0.  1.
    9900012    2    1    2    0    0 -0.31225122837E+01  0.40627970066E+02 -0.14941256054E+02  0.47787272274E+02  0.20000005607E+02 0.  0.
         12    1    1    2    0    0  0.31225122837E+01 -0.40627970066E+02  0.14941256054E+02  0.43400727726E+02  0.00000000000E+00 0. -1.
         11    1    3    3    0    0 -0.14795752701E+01 -0.57493332469E+00  0.75719008060E+00  0.17587007667E+01  0.51100000000E-03 0. -1.
        -11    1    3    3    0    0  0.14749005790E+01  0.13239806506E+01 -0.38166097394E+01  0.43005542253E+01  0.51100000000E-03 0.  1.
        -12    1    3    3    0    0 -0.31178375926E+01  0.39878922740E+02 -0.11881836396E+02  0.41728017282E+02  0.00000000000E+00 0.  1.
</event>
<event>
 7    1  0.1418970E-010  0.4778727E+02  0.7816164E-02  0.1312668E+00
        -11   -1    0    0    0    0  0.00000000000E+00  0.00000000000E+00  0.45593999997E+02  0.45594000000E+02  0.51100000000E-03 0. -1.
         11   -1    0    0    0    0 -0.00000000000E+00 -0.00000000000E+00 -0.45593999997E+02  0.45594000000E+02  0.51100000000E-03 0.  1.
    9900012    2    1    2    0    0  0.25523832924E+02 -0.28952492206E+02 -0.19847175895E+02  0.47787271399E+02  0.20000001619E+02 0.  0.
         12    1    1    2    0    0 -0.25523832924E+02  0.28952492206E+02  0.19847175895E+02  0.43400728601E+02  0.00000000000E+00 0. -1.
         11    1    3    3    0    0  0.58653629645E+01 -0.14338716967E+02 -0.10160792045E+02  0.18526817919E+02  0.51100000000E-03 0. -1.
        -11    1    3    3    0    0  0.69367949851E+00  0.21297029670E+01 -0.22647719991E+00  0.22512481333E+01  0.51100000000E-03 0.  1.
        -12    1    3    3    0    0  0.18964790461E+02 -0.16743478205E+02 -0.94599066501E+01  0.27009205347E+02  0.00000000000E+00 0.  1.
</event>
<event>
 7    1  0.1418970E-010  0.4778727E+02  0.7816164E-02  0.1312668E+00
        -11   -1    0    0    0    0  0.00000000000E+00  0.00000000000E+00  0.45593999997E+02  0.45594000000E+02  0.51100000000E-03 0.  1.
         11   -1    0    0    0    0 -0.00000000000E+00 -0.00000000000E+00 -0.45593999997E+02  0.45594000000E+02  0.51100000000E-03 0. -1.
    9900012    2    1    2    0    0  0.16035990491E+02 -0.40250964145E+02  0.25159869159E+01  0.47787270792E+02  0.19999998850E+02 0.  0.
         12    1    1    2    0    0 -0.16035990491E+02  0.40250964145E+02 -0.25159869159E+01  0.43400729208E+02  0.00000000000E+00 0. -1.
         11    1    3    3    0    0  0.16857728865E+01 -0.50043927356E+01  0.11270360252E+01  0.53996284447E+01  0.51100000000E-03 0. -1.
        -11    1    3    3    0    0  0.17280040448E+02 -0.32949867418E+02  0.45767622352E+01  0.37486535097E+02  0.51100000000E-03 0.  1.
         12    1    3    3    0    0 -0.29298228431E+01 -0.22967039908E+01 -0.31878113445E+01  0.49011072505E+01  0.00000000000E+00 0. -1.
</event>
<event>
 7    1  0.1418970E-010  0.4778726E+02  0.7816164E-02  0.1312668E+00
        -11   -1    0    0    0    0  0.00000000000E+00  0.00000000000E+00  0.45593999997E+02  0.45594000000E+02  0.51100000000E-03 0. -1.
         11   -1    0    0    0    0 -0.00000000000E+00 -0.00000000000E+00 -0.45593999997E+02  0.45594000000E+02  0.51100000000E-03 0.  1.
    9900012    2    1    2    0    0  0.35772394301E+02 -0.23046887452E+02 -0.85323591076E+01  0.47787258449E+02  0.19999942571E+02 0.  0.
         12    1    1    2    0    0 -0.35772394301E+02  0.23046887452E+02  0.85323591076E+01  0.43400741551E+02  0.00000000000E+00 0. -1.
         11    1    3    3    0    0  0.11177546282E+02 -0.89931668832E+01 -0.11477793107E+02  0.18372651588E+02  0.51100000000E-03 0. -1.
        -11    1    3    3    0    0  0.69154157507E+01 -0.48303410963E+00  0.14117248134E+01  0.70745504568E+01  0.51100000000E-03 0.  1.
        -12    1    3    3    0    0  0.17679432268E+02 -0.13570686459E+02  0.15337091861E+01  0.22340056404E+02  0.00000000000E+00 0.  1.
</event>
<event>
 7    1  0.1418970E-010  0.4778727E+02  0.7816164E-02  0.1312668E+00
        -11   -1    0    0    0    0  0.00000000000E+00  0.00000000000E+00  0.45593999997E+02  0.45594000000E+02  0.51100000000E-03 0.  1.
         11   -1    0    0    0    0 -0.00000000000E+00 -0.00000000000E+00 -0.45593999997E+02  0.45594000000E+02  0.51100000000E-03 0. -1.
    9900012    2    1    2    0    0  0.77043448500E+01  0.86926069410E+01  0.41817524348E+02  0.47787266278E+02  0.19999978269E+02 0.  0.
         12    1    1    2    0    0 -0.77043448500E+01 -0.86926069410E+01 -0.41817524348E+02  0.43400733722E+02  0.00000000000E+00 0. -1.
         11    1    3    3    0    0  0.85349015399E+01  0.59870760051E+01  0.30693625048E+02  0.32415864052E+02  0.51100000000E-03 0.  1.
        -11    1    3    3    0    0 -0.39122415648E+01  0.16050040900E+01  0.11329208543E+02  0.12092668798E+02  0.51100000000E-03 0. -1.
         12    1    3    3    0    0  0.30816848749E+01  0.11005268460E+01 -0.20530924319E+00  0.32787334280E+01  0.00000000000E+00 0. -1.
</event>
<event>
 7    1  0.1418970E-010  0.4778725E+02  0.7816164E-02  0.1312668E+00
        -11   -1    0    0    0    0  0.00000000000E+00  0.00000000000E+00  0.45593999997E+02  0.45594000000E+02  0.51100000000E-03 0.  1.
         11   -1    0    0    0    0 -0.00000000000E+00 -0.00000000000E+00 -0.45593999997E+02  0.45594000000E+02  0.51100000000E-03 0. -1.
    9900012    2    1    2    0    0 -0.27624531380E+02  0.12308580954E+02  0.31128911898E+02  0.47787250525E+02  0.19999906443E+02 0.  0.
         12    1    1    2    0    0  0.27624531380E+02 -0.12308580954E+02 -0.31128911898E+02  0.43400749475E+02  0.00000000000E+00 0. -1.
         11    1    3    3    0    0 -0.42171316166E+01  0.92500615466E+01  0.16628334244E+02  0.19489723900E+02  0.51100000000E-03 0. -1.
        -11    1    3    3    0    0 -0.60749358980E+01 -0.11468926571E+01  0.19268888978E+01  0.64755779678E+01  0.51100000000E-03 0.  1.
         12    1    3    3    0    0 -0.17332463865E+02  0.42054120640E+01  0.12573688755E+02  0.21821948657E+02  0.00000000000E+00 0. -1.
</event>
<event>
 7    1  0.1418970E-010  0.4778727E+02  0.7816164E-02  0.1312668E+00
        -11   -1    0    0    0    0  0.00000000000E+00  0.00000000000E+00  0.45593999997E+02  0.45594000000E+02  0.51100000000E-03 0.  1.
         11   -1    0    0    0    0 -0.00000000000E+00 -0.00000000000E+00 -0.45593999997E+02  0.45594000000E+02  0.51100000000E-03 0. -1.
    9900012    2    1    2    0    0 -0.64554279225E+01  0.42654254507E+02  0.47502819598E+01  0.47787272404E+02  0.20000006197E+02 0.  0.
         12    1    1    2    0    0  0.64554279225E+01 -0.42654254507E+02 -0.47502819598E+01  0.43400727596E+02  0.00000000000E+00 0. -1.
         11    1    3    3    0    0  0.50459899031E+01  0.15892909306E+02  0.22282316583E+01  0.16822948519E+02  0.51100000000E-03 0. -1.
        -11    1    3    3    0    0 -0.49098089268E+01  0.19871922231E+02 -0.16929541122E+01  0.20539367340E+02  0.51100000000E-03 0.  1.
        -12    1    3    3    0    0 -0.65916088988E+01  0.68894229701E+01  0.42150044137E+01  0.10424956544E+02  0.00000000000E+00 0.  1.
</event>
<event>
 7    1  0.1418970E-010  0.4778727E+02  0.7816164E-02  0.1312668E+00
        -11   -1    0    0    0    0  0.00000000000E+00  0.00000000000E+00  0.45593999997E+02  0.45594000000E+02  0.51100000000E-03 0.  1.
         11   -1    0    0    0    0 -0.00000000000E+00 -0.00000000000E+00 -0.45593999997E+02  0.45594000000E+02  0.51100000000E-03 0. -1.
    9900012    2    1    2    0    0  0.34779546152E+02  0.98980016606E+01  0.24000751313E+02  0.47787270386E+02  0.19999997000E+02 0.  0.
         12    1    1    2    0    0 -0.34779546152E+02 -0.98980016606E+01 -0.24000751313E+02  0.43400729614E+02  0.00000000000E+00 0. -1.
         11    1    3    3    0    0  0.84509063713E+01 -0.15185809318E+01  0.68648159503E+01  0.10993161731E+02  0.51100000000E-03 0. -1.
        -11    1    3    3    0    0  0.58880047485E+01  0.10571671905E+02  0.62085322757E+01  0.13600541168E+02  0.51100000000E-03 0.  1.
        -12    1    3    3    0    0  0.20440635032E+02  0.84491068763E+00  0.10927403087E+02  0.23193567488E+02  0.00000000000E+00 0.  1.
</event>
<event>
 7    1  0.1418970E-010  0.4778727E+02  0.7816164E-02  0.1312668E+00
        -11   -1    0    0    0    0  0.00000000000E+00  0.00000000000E+00  0.45593999997E+02  0.45594000000E+02  0.51100000000E-03 0.  1.
         11   -1    0    0    0    0 -0.00000000000E+00 -0.00000000000E+00 -0.45593999997E+02  0.45594000000E+02  0.51100000000E-03 0. -1.
    9900012    2    1    2    0    0 -0.38080301109E+02  0.15519819978E+02  0.13879809094E+02  0.47787271375E+02  0.20000001506E+02 0.  0.
         12    1    1    2    0    0  0.38080301109E+02 -0.15519819978E+02 -0.13879809094E+02  0.43400728625E+02  0.00000000000E+00 0. -1.
         11    1    3    3    0    0 -0.23334815240E+02  0.14046494726E+02  0.17380725217E+01  0.27291729750E+02  0.51100000000E-03 0. -1.
        -11    1    3    3    0    0  0.48137509709E+00  0.75879964516E+00  0.19827957004E+01  0.21769193684E+01  0.51100000000E-03 0.  1.
        -12    1    3    3    0    0 -0.15226860966E+02  0.71452560630E+00  0.10158940872E+02  0.18318622256E+02  0.00000000000E+00 0.  1.
</event>
<event>
 7    1  0.1418970E-010  0.4778726E+02  0.7816164E-02  0.1312668E+00
        -11   -1    0    0    0    0  0.00000000000E+00  0.00000000000E+00  0.45593999997E+02  0.45594000000E+02  0.51100000000E-03 0.  1.
         11   -1    0    0    0    0 -0.00000000000E+00 -0.00000000000E+00 -0.45593999997E+02  0.45594000000E+02  0.51100000000E-03 0. -1.
    9900012    2    1    2    0    0  0.43479431676E+01 -0.42896786601E+02 -0.49583392601E+01  0.47787262234E+02  0.19999959828E+02 0.  0.
         12    1    1    2    0    0 -0.43479431676E+01  0.42896786601E+02  0.49583392601E+01  0.43400737766E+02  0.00000000000E+00 0. -1.
         11    1    3    3    0    0 -0.62901990876E+00 -0.70109642438E+01 -0.70765628536E+01  0.99813339667E+01  0.51100000000E-03 0. -1.
        -11    1    3    3    0    0  0.41434311519E+01 -0.26609052471E+02 -0.31364969064E+01  0.27111755904E+02  0.51100000000E-03 0.  1.
        -12    1    3    3    0    0  0.83353192451E+00 -0.92767698859E+01  0.52547204999E+01  0.10694172362E+02  0.00000000000E+00 0.  1.
</event>
<event>
 7    1  0.1418970E-010  0.4778727E+02  0.7816164E-02  0.1312668E+00
        -11   -1    0    0    0    0  0.00000000000E+00  0.00000000000E+00  0.45593999997E+02  0.45594000000E+02  0.51100000000E-03 0.  1.
         11   -1    0    0    0    0 -0.00000000000E+00 -0.00000000000E+00 -0.45593999997E+02  0.45594000000E+02  0.51100000000E-03 0. -1.
    9900012    2    1    2    0    0  0.17845621647E+01  0.38303419870E+02  0.20329450088E+02  0.47787272164E+02  0.20000005103E+02 0.  0.
         12    1    1    2    0    0 -0.17845621647E+01 -0.38303419870E+02 -0.20329450088E+02  0.43400727836E+02  0.00000000000E+00 0. -1.
         11    1    3    3    0    0 -0.72277927349E+00  0.18587693560E+01  0.45486076482E+01  0.49666150641E+01  0.51100000000E-03 0. -1.
        -11    1    3    3    0    0 -0.94995074632E+00  0.20686100406E+02  0.16784836253E+02  0.26656104080E+02  0.51100000000E-03 0.  1.
        -12    1    3    3    0    0  0.34572921845E+01  0.15758550108E+02 -0.10039938128E+01  0.16164553020E+02  0.00000000000E+00 0.  1.
</event>
<event>
 7    1  0.1418970E-010  0.4778727E+02  0.7816164E-02  0.1312668E+00
        -11   -1    0    0    0    0  0.00000000000E+00  0.00000000000E+00  0.45593999997E+02  0.45594000000E+02  0.51100000000E-03 0. -1.
         11   -1    0    0    0    0 -0.00000000000E+00 -0.00000000000E+00 -0.45593999997E+02  0.45594000000E+02  0.51100000000E-03 0.  1.
    9900012    2    1    2    0    0  0.23551828810E+02  0.33472348579E+02 -0.14440786313E+02  0.47787273405E+02  0.20000010762E+02 0.  0.
         12    1    1    2    0    0 -0.23551828810E+02 -0.33472348579E+02  0.14440786313E+02  0.43400726595E+02  0.00000000000E+00 0. -1.
         11    1    3    3    0    0  0.34902141834E+01  0.13301044617E+02 -0.41135606980E+01  0.14353423453E+02  0.51100000000E-03 0. -1.
        -11    1    3    3    0    0  0.32931286630E+01  0.13256666413E+02 -0.45764111914E+01  0.14405812731E+02  0.51100000000E-03 0.  1.
        -12    1    3    3    0    0  0.16768485964E+02  0.69146375481E+01 -0.57508144235E+01  0.19028037220E+02  0.00000000000E+00 0.  1.
</event>
<event>
 7    1  0.1418970E-010  0.4778727E+02  0.7816164E-02  0.1312668E+00
        -11   -1    0    0    0    0  0.00000000000E+00  0.00000000000E+00  0.45593999997E+02  0.45594000000E+02  0.51100000000E-03 0.  1.
         11   -1    0    0    0    0 -0.00000000000E+00 -0.00000000000E+00 -0.45593999997E+02  0.45594000000E+02  0.51100000000E-03 0. -1.
    9900012    2    1    2    0    0  0.23251888916E+02  0.15862037161E+02  0.33035870870E+02  0.47787270453E+02  0.19999997304E+02 0.  0.
         12    1    1    2    0    0 -0.23251888916E+02 -0.15862037161E+02 -0.33035870870E+02  0.43400729547E+02  0.00000000000E+00 0. -1.
         11    1    3    3    0    0  0.47163582081E+01  0.10680187433E+02  0.11675523553E+02  0.16511459319E+02  0.51100000000E-03 0. -1.
        -11    1    3    3    0    0  0.65889199007E+01  0.72983794955E+01  0.53694039328E+01  0.11203156143E+02  0.51100000000E-03 0.  1.
        -12    1    3    3    0    0  0.11946610807E+02 -0.21165297681E+01  0.15990943385E+02  0.20072654990E+02  0.00000000000E+00 0.  1.
</event>
<event>
 7    1  0.1418970E-010  0.4778727E+02  0.7816164E-02  0.1312668E+00
        -11   -1    0    0    0    0  0.00000000000E+00  0.00000000000E+00  0.45593999997E+02  0.45594000000E+02  0.51100000000E-03 0.  1.
         11   -1    0    0    0    0 -0.00000000000E+00 -0.00000000000E+00 -0.45593999997E+02  0.45594000000E+02  0.51100000000E-03 0. -1.
    9900012    2    1    2    0    0  0.54855596064E+01 -0.10630422200E+02  0.41719611429E+02  0.47787271687E+02  0.20000002929E+02 0.  0.
         12    1    1    2    0    0 -0.54855596064E+01  0.10630422200E+02 -0.41719611429E+02  0.43400728313E+02  0.00000000000E+00 0. -1.
         11    1    3    3    0    0  0.94668493746E+00  0.27368048666E+01  0.97377738013E+00  0.30552505455E+01  0.51100000000E-03 0. -1.
        -11    1    3    3    0    0  0.59519855234E+01 -0.10537938769E+02  0.17531371834E+02  0.21303128499E+02  0.51100000000E-03 0.  1.
        -12    1    3    3    0    0 -0.14131108545E+01 -0.28292882975E+01  0.23214462214E+02  0.23428892643E+02  0.00000000000E+00 0.  1.
</event>
<event>
 7    1  0.1418970E-010  0.4778727E+02  0.7816164E-02  0.1312668E+00
        -11   -1    0    0    0    0  0.00000000000E+00  0.00000000000E+00  0.45593999997E+02  0.45594000000E+02  0.51100000000E-03 0.  1.
         11   -1    0    0    0    0 -0.00000000000E+00 -0.00000000000E+00 -0.45593999997E+02  0.45594000000E+02  0.51100000000E-03 0. -1.
    9900012    2    1    2    0    0 -0.23136500862E+02  0.15175282643E+02  0.33437052332E+02  0.47787270236E+02  0.19999996314E+02 0.  0.
         12    1    1    2    0    0  0.23136500862E+02 -0.15175282643E+02 -0.33437052332E+02  0.43400729764E+02  0.00000000000E+00 0. -1.
         11    1    3    3    0    0 -0.30341834949E+01  0.82957857014E+00  0.13401455015E+02  0.13765662602E+02  0.51100000000E-03 0. -1.
        -11    1    3    3    0    0 -0.21635654203E+02  0.13450958549E+02  0.19724313248E+02  0.32219223331E+02  0.51100000000E-03 0.  1.
         12    1    3    3    0    0  0.15333368360E+01  0.89474552362E+00  0.31128406866E+00  0.18023843031E+01  0.00000000000E+00 0. -1.
</event>
<event>
 7    1  0.1418970E-010  0.4778727E+02  0.7816164E-02  0.1312668E+00
        -11   -1    0    0    0    0  0.00000000000E+00  0.00000000000E+00  0.45593999997E+02  0.45594000000E+02  0.51100000000E-03 0.  1.
         11   -1    0    0    0    0 -0.00000000000E+00 -0.00000000000E+00 -0.45593999997E+02  0.45594000000E+02  0.51100000000E-03 0. -1.
    9900012    2    1    2    0    0  0.21637667208E+01  0.32051124588E+02  0.29183330554E+02  0.47787271251E+02  0.20000000941E+02 0.  0.
         12    1    1    2    0    0 -0.21637667208E+01 -0.32051124588E+02 -0.29183330554E+02  0.43400728749E+02  0.00000000000E+00 0. -1.
         11    1    3    3    0    0 -0.43761325999E+01  0.90419475357E+00  0.24905241213E+01  0.51157419153E+01  0.51100000000E-03 0. -1.
        -11    1    3    3    0    0 -0.75643202429E+00  0.19664270508E+02  0.16252814325E+02  0.25522729042E+02  0.51100000000E-03 0.  1.
        -12    1    3    3    0    0  0.72963313450E+01  0.11482659326E+02  0.10439992107E+02  0.17148800293E+02  0.00000000000E+00 0.  1.
</event>
<event>
 7    1  0.1418970E-010  0.4778727E+02  0.7816164E-02  0.1312668E+00
        -11   -1    0    0    0    0  0.00000000000E+00  0.00000000000E+00  0.45593999997E+02  0.45594000000E+02  0.51100000000E-03 0.  1.
         11   -1    0    0    0    0 -0.00000000000E+00 -0.00000000000E+00 -0.45593999997E+02  0.45594000000E+02  0.51100000000E-03 0. -1.
    9900012    2    1    2    0    0  0.36995963277E+02  0.48533346465E+01  0.22166808693E+02  0.47787267707E+02  0.19999984782E+02 0.  0.
         12    1    1    2    0    0 -0.36995963277E+02 -0.48533346465E+01 -0.22166808693E+02  0.43400732293E+02  0.00000000000E+00 0. -1.
         11    1    3    3    0    0  0.67919655725E+01 -0.45485153030E+01  0.11856955404E+02  0.14401638084E+02  0.51100000000E-03 0. -1.
        -11    1    3    3    0    0  0.12641561229E+02  0.25966157118E+01  0.46718330323E+01  0.13725068583E+02  0.51100000000E-03 0.  1.
         12    1    3    3    0    0  0.17562436475E+02  0.68052342378E+01  0.56380202568E+01  0.19660561039E+02  0.00000000000E+00 0. -1.
</event>
<event>
 7    1  0.1418970E-010  0.4778730E+02  0.7816164E-02  0.1312668E+00
        -11   -1    0    0    0    0  0.00000000000E+00  0.00000000000E+00  0.45593999997E+02  0.45594000000E+02  0.51100000000E-03 0.  1.
         11   -1    0    0    0    0 -0.00000000000E+00 -0.00000000000E+00 -0.45593999997E+02  0.45594000000E+02  0.51100000000E-03 0. -1.
    9900012    2    1    2    0    0  0.26288271048E+02 -0.33472473875E+02  0.84936048468E+01  0.47787296949E+02  0.20000118109E+02 0.  0.
         12    1    1    2    0    0 -0.26288271048E+02  0.33472473875E+02 -0.84936048468E+01  0.43400703051E+02  0.00000000000E+00 0. -1.
         11    1    3    3    0    0 -0.99515910478E+00 -0.41638324817E+01 -0.44004257613E+00  0.43036589443E+01  0.51100000000E-03 0.  1.
        -11    1    3    3    0    0  0.25160810825E+02 -0.22760419989E+02  0.11946201434E+02  0.35969637868E+02  0.51100000000E-03 0. -1.
         12    1    3    3    0    0  0.21226193279E+01 -0.65482214049E+01 -0.30125540107E+01  0.75140001361E+01  0.00000000000E+00 0. -1.
</event>
<event>
 7    1  0.1418970E-010  0.4778727E+02  0.7816164E-02  0.1312668E+00
        -11   -1    0    0    0    0  0.00000000000E+00  0.00000000000E+00  0.45593999997E+02  0.45594000000E+02  0.51100000000E-03 0.  1.
         11   -1    0    0    0    0 -0.00000000000E+00 -0.00000000000E+00 -0.45593999997E+02  0.45594000000E+02  0.51100000000E-03 0. -1.
    9900012    2    1    2    0    0  0.24533043155E+02  0.12450735354E+02  0.33566834914E+02  0.47787269321E+02  0.19999992143E+02 0.  0.
         12    1    1    2    0    0 -0.24533043155E+02 -0.12450735354E+02 -0.33566834914E+02  0.43400730679E+02  0.00000000000E+00 0. -1.
         11    1    3    3    0    0  0.16431611194E+02  0.32765822957E+01  0.15183430234E+02  0.22611289037E+02  0.51100000000E-03 0. -1.
        -11    1    3    3    0    0  0.78129087371E+01  0.10581141811E+02  0.96198480802E+01  0.16295508041E+02  0.51100000000E-03 0.  1.
         12    1    3    3    0    0  0.28852322381E+00 -0.14069887518E+01  0.87635565991E+01  0.88804722433E+01  0.00000000000E+00 0. -1.
</event>
<event>
 7    1  0.1418970E-010  0.4778727E+02  0.7816164E-02  0.1312668E+00
        -11   -1    0    0    0    0  0.00000000000E+00  0.00000000000E+00  0.45593999997E+02  0.45594000000E+02  0.51100000000E-03 0. -1.
         11   -1    0    0    0    0 -0.00000000000E+00 -0.00000000000E+00 -0.45593999997E+02  0.45594000000E+02  0.51100000000E-03 0.  1.
    9900012    2    1    2    0    0 -0.53779902393E+01 -0.37308865294E+02 -0.21511596521E+02  0.47787274276E+02  0.20000014734E+02 0.  0.
         12    1    1    2    0    0  0.53779902393E+01  0.37308865294E+02  0.21511596521E+02  0.43400725724E+02  0.00000000000E+00 0. -1.
         11    1    3    3    0    0 -0.87724649198E+00 -0.84187791668E+01 -0.61702668397E+00  0.84868207390E+01  0.51100000000E-03 0. -1.
        -11    1    3    3    0    0 -0.31607433578E+01 -0.26986644268E+02 -0.11299401035E+02  0.29426955864E+02  0.51100000000E-03 0.  1.
         12    1    3    3    0    0 -0.13400003896E+01 -0.19034418586E+01 -0.95951688018E+01  0.98734976724E+01  0.00000000000E+00 0. -1.
</event>
<event>
 7    1  0.1418970E-010  0.4778727E+02  0.7816164E-02  0.1312668E+00
        -11   -1    0    0    0    0  0.00000000000E+00  0.00000000000E+00  0.45593999997E+02  0.45594000000E+02  0.51100000000E-03 0.  1.
         11   -1    0    0    0    0 -0.00000000000E+00 -0.00000000000E+00 -0.45593999997E+02  0.45594000000E+02  0.51100000000E-03 0. -1.
    9900012    2    1    2    0    0 -0.21740344451E+02 -0.13838753140E+01  0.37537522442E+02  0.47787270988E+02  0.19999999741E+02 0.  0.
         12    1    1    2    0    0  0.21740344451E+02  0.13838753140E+01 -0.37537522442E+02  0.43400729012E+02  0.00000000000E+00 0. -1.
         11    1    3    3    0    0 -0.23518917366E+01 -0.53200778560E+00  0.10942605960E+01  0.26479866951E+01  0.51100000000E-03 0. -1.
        -11    1    3    3    0    0  0.24698913946E+01  0.30573725361E+01  0.27882213241E+01  0.48189281732E+01  0.51100000000E-03 0.  1.
        -12    1    3    3    0    0 -0.21858344109E+02 -0.39092400645E+01  0.33655040521E+02  0.40320356119E+02  0.00000000000E+00 0.  1.
</event>
<event>
 7    1  0.1418970E-010  0.4778728E+02  0.7816164E-02  0.1312668E+00
        -11   -1    0    0    0    0  0.00000000000E+00  0.00000000000E+00  0.45593999997E+02  0.45594000000E+02  0.51100000000E-03 0.  1.
         11   -1    0    0    0    0 -0.00000000000E+00 -0.00000000000E+00 -0.45593999997E+02  0.45594000000E+02  0.51100000000E-03 0. -1.
    9900012    2    1    2    0    0  0.29491949365E+02  0.14815488890E+02  0.28184195229E+02  0.47787278242E+02  0.20000032815E+02 0.  0.
         12    1    1    2    0    0 -0.29491949365E+02 -0.14815488890E+02 -0.28184195229E+02  0.43400721758E+02  0.00000000000E+00 0. -1.
         11    1    3    3    0    0  0.81730992939E+01  0.93404449376E+01  0.42424804523E+01  0.13116482164E+02  0.51100000000E-03 0. -1.
        -11    1    3    3    0    0  0.22205841304E+02  0.56033370445E+01  0.19318937335E+02  0.29961944431E+02  0.51100000000E-03 0.  1.
         12    1    3    3    0    0 -0.88699123211E+00 -0.12829309205E+00  0.46227774418E+01  0.47088516476E+01  0.00000000000E+00 0. -1.
</event>
<event>
 7    1  0.1418970E-010  0.4778729E+02  0.7816164E-02  0.1312668E+00
        -11   -1    0    0    0    0  0.00000000000E+00  0.00000000000E+00  0.45593999997E+02  0.45594000000E+02  0.51100000000E-03 0.  1.
         11   -1    0    0    0    0 -0.00000000000E+00 -0.00000000000E+00 -0.45593999997E+02  0.45594000000E+02  0.51100000000E-03 0. -1.
    9900012    2    1    2    0    0 -0.62307885659E+00 -0.32452224644E+02  0.28811229289E+02  0.47787285205E+02  0.20000064561E+02 0.  0.
         12    1    1    2    0    0  0.62307885659E+00  0.32452224644E+02 -0.28811229289E+02  0.43400714795E+02  0.00000000000E+00 0. -1.
         11    1    3    3    0    0 -0.60794176324E+01 -0.13669775006E+02  0.62334962889E+01  0.16207360788E+02  0.51100000000E-03 0. -1.
        -11    1    3    3    0    0  0.53628690173E+01 -0.92960761520E+01  0.55365804866E+01  0.12076055634E+02  0.51100000000E-03 0.  1.
        -12    1    3    3    0    0  0.93469758478E-01 -0.94863734861E+01  0.17041152514E+02  0.19503868783E+02  0.00000000000E+00 0.  1.
</event>
<event>
 7    1  0.1418970E-010  0.4778727E+02  0.7816164E-02  0.1312668E+00
        -11   -1    0    0    0    0  0.00000000000E+00  0.00000000000E+00  0.45593999997E+02  0.45594000000E+02  0.51100000000E-03 0.  1.
         11   -1    0    0    0    0 -0.00000000000E+00 -0.00000000000E+00 -0.45593999997E+02  0.45594000000E+02  0.51100000000E-03 0. -1.
    9900012    2    1    2    0    0 -0.12187954932E+02 -0.44611426356E+01  0.41414675650E+02  0.47787269611E+02  0.19999993466E+02 0.  0.
         12    1    1    2    0    0  0.12187954932E+02  0.44611426356E+01 -0.41414675650E+02  0.43400730389E+02  0.00000000000E+00 0. -1.
         11    1    3    3    0    0 -0.54480054868E+01  0.44425063828E+01  0.52441042958E+01  0.87702483928E+01  0.51100000000E-03 0. -1.
        -11    1    3    3    0    0 -0.83921797890E+01 -0.37133167418E+01  0.23206164328E+02  0.24954828509E+02  0.51100000000E-03 0.  1.
        -12    1    3    3    0    0  0.16522303439E+01 -0.51903322765E+01  0.12964407026E+02  0.14062192709E+02  0.00000000000E+00 0.  1.
</event>
<event>
 7    1  0.1418970E-010  0.4778727E+02  0.7816164E-02  0.1312668E+00
        -11   -1    0    0    0    0  0.00000000000E+00  0.00000000000E+00  0.45593999997E+02  0.45594000000E+02  0.51100000000E-03 0.  1.
         11   -1    0    0    0    0 -0.00000000000E+00 -0.00000000000E+00 -0.45593999997E+02  0.45594000000E+02  0.51100000000E-03 0. -1.
    9900012    2    1    2    0    0 -0.39581704376E+02  0.13109150926E+01 -0.17753682687E+02  0.47787273409E+02  0.20000010780E+02 0.  0.
         12    1    1    2    0    0  0.39581704376E+02 -0.13109150926E+01  0.17753682687E+02  0.43400726591E+02  0.00000000000E+00 0. -1.
         11    1    3    3    0    0 -0.19904234274E+02  0.90178522149E+01 -0.14185943099E+02  0.26052661716E+02  0.51100000000E-03 0. -1.
        -11    1    3    3    0    0 -0.45527529520E+01 -0.21803245115E+01  0.64740244739E+00  0.50892538360E+01  0.51100000000E-03 0.  1.
         12    1    3    3    0    0 -0.15124717150E+02 -0.55266126108E+01 -0.42151420352E+01  0.16645357857E+02  0.00000000000E+00 0. -1.
</event>
<event>
 7    1  0.1418970E-010  0.4778727E+02  0.7816164E-02  0.1312668E+00
        -11   -1    0    0    0    0  0.00000000000E+00  0.00000000000E+00  0.45593999997E+02  0.45594000000E+02  0.51100000000E-03 0.  1.
         11   -1    0    0    0    0 -0.00000000000E+00 -0.00000000000E+00 -0.45593999997E+02  0.45594000000E+02  0.51100000000E-03 0. -1.
    9900012    2    1    2    0    0  0.40492445688E+02 -0.15269435605E+02  0.32908149310E+01  0.47787270923E+02  0.19999999447E+02 0.  0.
         12    1    1    2    0    0 -0.40492445688E+02  0.15269435605E+02 -0.32908149310E+01  0.43400729077E+02  0.00000000000E+00 0. -1.
         11    1    3    3    0    0  0.18346119074E+02 -0.10663723232E+01 -0.33765312980E+00  0.18380186204E+02  0.51100000000E-03 0. -1.
        -11    1    3    3    0    0  0.20033081341E+02 -0.10536329512E+02  0.73221830795E+01  0.23789765718E+02  0.51100000000E-03 0.  1.
         12    1    3    3    0    0  0.21132452731E+01 -0.36667337691E+01 -0.36937150187E+01  0.56173190008E+01  0.00000000000E+00 0. -1.
</event>
<event>
 7    1  0.1418970E-010  0.4778727E+02  0.7816164E-02  0.1312668E+00
        -11   -1    0    0    0    0  0.00000000000E+00  0.00000000000E+00  0.45593999997E+02  0.45594000000E+02  0.51100000000E-03 0. -1.
         11   -1    0    0    0    0 -0.00000000000E+00 -0.00000000000E+00 -0.45593999997E+02  0.45594000000E+02  0.51100000000E-03 0.  1.
    9900012    2    1    2    0    0 -0.26837736338E+02 -0.33047993087E+02 -0.84373654960E+01  0.47787273332E+02  0.20000010428E+02 0.  0.
         12    1    1    2    0    0  0.26837736338E+02  0.33047993087E+02  0.84373654960E+01  0.43400726668E+02  0.00000000000E+00 0. -1.
         11    1    3    3    0    0 -0.54251765398E+01  0.14884105562E+01 -0.32160968379E+01  0.64800606172E+01  0.51100000000E-03 0. -1.
        -11    1    3    3    0    0 -0.13391070164E+02 -0.19226536805E+02 -0.53033365972E+01  0.24023027639E+02  0.51100000000E-03 0.  1.
        -12    1    3    3    0    0 -0.80214896348E+01 -0.15309866838E+02  0.82067939056E-01  0.17284185075E+02  0.00000000000E+00 0.  1.
</event>
<event>
 7    1  0.1418970E-010  0.4778725E+02  0.7816164E-02  0.1312668E+00
        -11   -1    0    0    0    0  0.00000000000E+00  0.00000000000E+00  0.45593999997E+02  0.45594000000E+02  0.51100000000E-03 0.  1.
         11   -1    0    0    0    0 -0.00000000000E+00 -0.00000000000E+00 -0.45593999997E+02  0.45594000000E+02  0.51100000000E-03 0. -1.
    9900012    2    1    2    0    0 -0.41418711713E+02  0.78622838873E+01  0.10310176669E+02  0.47787251956E+02  0.19999912966E+02 0.  0.
         12    1    1    2    0    0  0.41418711713E+02 -0.78622838873E+01 -0.10310176669E+02  0.43400748044E+02  0.00000000000E+00 0. -1.
         11    1    3    3    0    0 -0.21110273756E+01  0.26447085575E+01  0.30547162656E+01  0.45587511074E+01  0.51100000000E-03 0. -1.
        -11    1    3    3    0    0 -0.31833079037E+02 -0.23050039530E+01  0.41941915314E+01  0.32190824890E+02  0.51100000000E-03 0.  1.
        -12    1    3    3    0    0 -0.74746052998E+01  0.75225792828E+01  0.30612688720E+01  0.11037675958E+02  0.00000000000E+00 0.  1.
</event>
<event>
 7    1  0.1418970E-010  0.4778727E+02  0.7816164E-02  0.1312668E+00
        -11   -1    0    0    0    0  0.00000000000E+00  0.00000000000E+00  0.45593999997E+02  0.45594000000E+02  0.51100000000E-03 0.  1.
         11   -1    0    0    0    0 -0.00000000000E+00 -0.00000000000E+00 -0.45593999997E+02  0.45594000000E+02  0.51100000000E-03 0. -1.
    9900012    2    1    2    0    0  0.10780273542E+01 -0.12886903248E+02  0.41429320655E+02  0.47787273874E+02  0.20000012903E+02 0.  0.
         12    1    1    2    0    0 -0.10780273542E+01  0.12886903248E+02 -0.41429320655E+02  0.43400726126E+02  0.00000000000E+00 0. -1.
         11    1    3    3    0    0  0.39215148411E+01 -0.46719558069E+01  0.46520675046E+01  0.76711916962E+01  0.51100000000E-03 0.  1.
        -11    1    3    3    0    0 -0.20028248626E+01  0.34883991616E+01  0.64904277102E+01  0.76358292453E+01  0.51100000000E-03 0. -1.
         12    1    3    3    0    0 -0.84066262422E+00 -0.11703346603E+02  0.30286825440E+02  0.32480252933E+02  0.00000000000E+00 0. -1.
</event>
<event>
 7    1  0.1418970E-010  0.4778727E+02  0.7816164E-02  0.1312668E+00
        -11   -1    0    0    0    0  0.00000000000E+00  0.00000000000E+00  0.45593999997E+02  0.45594000000E+02  0.51100000000E-03 0.  1.
         11   -1    0    0    0    0 -0.00000000000E+00 -0.00000000000E+00 -0.45593999997E+02  0.45594000000E+02  0.51100000000E-03 0. -1.
    9900012    2    1    2    0    0  0.33847538045E+02 -0.25766035221E+02 -0.86069199900E+01  0.47787268734E+02  0.19999989464E+02 0.  0.
         12    1    1    2    0    0 -0.33847538045E+02  0.25766035221E+02  0.86069199900E+01  0.43400731266E+02  0.00000000000E+00 0. -1.
         11    1    3    3    0    0  0.18575035415E+02 -0.11618283222E+02 -0.16963275874E+01  0.21974848651E+02  0.51100000000E-03 0.  1.
        -11    1    3    3    0    0  0.92504957400E+00 -0.96119061924E+01 -0.12559668574E+01  0.97376542542E+01  0.51100000000E-03 0. -1.
         12    1    3    3    0    0  0.14347453056E+02 -0.45358458070E+01 -0.56546255452E+01  0.16074765829E+02  0.00000000000E+00 0. -1.
</event>
<event>
 7    1  0.1418970E-010  0.4778727E+02  0.7816164E-02  0.1312668E+00
        -11   -1    0    0    0    0  0.00000000000E+00  0.00000000000E+00  0.45593999997E+02  0.45594000000E+02  0.51100000000E-03 0.  1.
         11   -1    0    0    0    0 -0.00000000000E+00 -0.00000000000E+00 -0.45593999997E+02  0.45594000000E+02  0.51100000000E-03 0. -1.
    9900012    2    1    2    0    0  0.24978237676E+02 -0.33492392789E+02  0.11746105307E+02  0.47787265882E+02  0.19999976460E+02 0.  0.
         12    1    1    2    0    0 -0.24978237676E+02  0.33492392789E+02 -0.11746105307E+02  0.43400734118E+02  0.00000000000E+00 0. -1.
         11    1    3    3    0    0  0.12211178035E+02 -0.12983931912E+02 -0.57786194535E+00  0.17833375496E+02  0.51100000000E-03 0. -1.
        -11    1    3    3    0    0  0.56730113242E+01 -0.13790945249E+02  0.92478340967E+00  0.14940831736E+02  0.51100000000E-03 0.  1.
        -12    1    3    3    0    0  0.70940483171E+01 -0.67175156278E+01  0.11399183842E+02  0.15013058649E+02  0.00000000000E+00 0.  1.
</event>
<event>
 7    1  0.1418970E-010  0.4778727E+02  0.7816164E-02  0.1312668E+00
        -11   -1    0    0    0    0  0.00000000000E+00  0.00000000000E+00  0.45593999997E+02  0.45594000000E+02  0.51100000000E-03 0.  1.
         11   -1    0    0    0    0 -0.00000000000E+00 -0.00000000000E+00 -0.45593999997E+02  0.45594000000E+02  0.51100000000E-03 0. -1.
    9900012    2    1    2    0    0 -0.29110839253E+02 -0.79539400635E+01  0.31191620702E+02  0.47787270437E+02  0.19999997232E+02 0.  0.
         12    1    1    2    0    0  0.29110839253E+02  0.79539400635E+01 -0.31191620702E+02  0.43400729563E+02  0.00000000000E+00 0. -1.
         11    1    3    3    0    0 -0.27787974232E+01  0.35446487732E+01 -0.44198623306E+00  0.45256604089E+01  0.51100000000E-03 0. -1.
        -11    1    3    3    0    0 -0.15773188359E+02 -0.39669083251E+01  0.14630207726E+02  0.21876307071E+02  0.51100000000E-03 0.  1.
        -12    1    3    3    0    0 -0.10558853470E+02 -0.75316805116E+01  0.17003399209E+02  0.21385302958E+02  0.00000000000E+00 0.  1.
</event>
<event>
 7    1  0.1418970E-010  0.4778728E+02  0.7816164E-02  0.1312668E+00
        -11   -1    0    0    0    0  0.00000000000E+00  0.00000000000E+00  0.45593999997E+02  0.45594000000E+02  0.51100000000E-03 0. -1.
         11   -1    0    0    0    0 -0.00000000000E+00 -0.00000000000E+00 -0.45593999997E+02  0.45594000000E+02  0.51100000000E-03 0.  1.
    9900012    2    1    2    0    0  0.13930185574E+02  0.23788432700E+02 -0.33521375926E+02  0.47787282905E+02  0.20000054076E+02 0.  0.
         12    1    1    2    0    0 -0.13930185574E+02 -0.23788432700E+02  0.33521375926E+02  0.43400717095E+02  0.00000000000E+00 0. -1.
         11    1    3    3    0    0  0.69199894422E+01  0.12098452566E+02 -0.28223051824E+02  0.31476967180E+02  0.51100000000E-03 0. -1.
        -11    1    3    3    0    0  0.59418697704E+01  0.30702703618E+01 -0.16446645025E+01  0.68874739963E+01  0.51100000000E-03 0.  1.
        -12    1    3    3    0    0  0.10683263616E+01  0.86197097719E+01 -0.36536595994E+01  0.94228417282E+01  0.00000000000E+00 0.  1.
</event>
<event>
 7    1  0.1418970E-010  0.4778727E+02  0.7816164E-02  0.1312668E+00
        -11   -1    0    0    0    0  0.00000000000E+00  0.00000000000E+00  0.45593999997E+02  0.45594000000E+02  0.51100000000E-03 0. -1.
         11   -1    0    0    0    0 -0.00000000000E+00 -0.00000000000E+00 -0.45593999997E+02  0.45594000000E+02  0.51100000000E-03 0.  1.
    9900012    2    1    2    0    0  0.31543558820E+02 -0.14173427777E+02 -0.26224818735E+02  0.47787271024E+02  0.19999999909E+02 0.  0.
         12    1    1    2    0    0 -0.31543558820E+02  0.14173427777E+02  0.26224818735E+02  0.43400728976E+02  0.00000000000E+00 0. -1.
         11    1    3    3    0    0  0.36403572942E+01  0.14373620395E+00  0.82400605776E+00  0.37352172053E+01  0.51100000000E-03 0. -1.
        -11    1    3    3    0    0  0.18774812508E+02 -0.37418043002E+01 -0.22082160505E+02  0.29225271546E+02  0.51100000000E-03 0.  1.
         12    1    3    3    0    0  0.91283890175E+01 -0.10575359681E+02 -0.49666642874E+01  0.14826782273E+02  0.00000000000E+00 0. -1.
</event>
<event>
 7    1  0.1418970E-010  0.4778726E+02  0.7816164E-02  0.1312668E+00
        -11   -1    0    0    0    0  0.00000000000E+00  0.00000000000E+00  0.45593999997E+02  0.45594000000E+02  0.51100000000E-03 0.  1.
         11   -1    0    0    0    0 -0.00000000000E+00 -0.00000000000E+00 -0.45593999997E+02  0.45594000000E+02  0.51100000000E-03 0. -1.
    9900012    2    1    2    0    0  0.13879034342E+01 -0.40431811723E+02  0.15715159768E+02  0.47787263581E+02  0.19999965972E+02 0.  0.
         12    1    1    2    0    0 -0.13879034342E+01  0.40431811723E+02 -0.15715159768E+02  0.43400736419E+02  0.00000000000E+00 0. -1.
         11    1    3    3    0    0  0.36538726459E+00 -0.66425765161E+01  0.80978606584E+01  0.10480108689E+02  0.51100000000E-03 0. -1.
        -11    1    3    3    0    0  0.32499152131E+01 -0.66142856895E+00  0.80685904615E+00  0.34132767871E+01  0.51100000000E-03 0.  1.
        -12    1    3    3    0    0 -0.22273990435E+01 -0.33127806638E+02  0.68104400632E+01  0.33893878105E+02  0.00000000000E+00 0.  1.
</event>
<event>
 7    1  0.1418970E-010  0.4778726E+02  0.7816164E-02  0.1312668E+00
        -11   -1    0    0    0    0  0.00000000000E+00  0.00000000000E+00  0.45593999997E+02  0.45594000000E+02  0.51100000000E-03 0. -1.
         11   -1    0    0    0    0 -0.00000000000E+00 -0.00000000000E+00 -0.45593999997E+02  0.45594000000E+02  0.51100000000E-03 0.  1.
    9900012    2    1    2    0    0  0.10267151499E+02  0.30851197661E+02 -0.28747400681E+02  0.47787264488E+02  0.19999970108E+02 0.  0.
         12    1    1    2    0    0 -0.10267151499E+02 -0.30851197661E+02  0.28747400681E+02  0.43400735512E+02  0.00000000000E+00 0. -1.
         11    1    3    3    0    0  0.42735346975E+01  0.52979802510E+01 -0.45015318906E+01  0.81606055641E+01  0.51100000000E-03 0. -1.
        -11    1    3    3    0    0  0.10666107836E+02  0.22137562627E+02 -0.15220939745E+02  0.28905268420E+02  0.51100000000E-03 0.  1.
         12    1    3    3    0    0 -0.46724910348E+01  0.34156547832E+01 -0.90249290455E+01  0.10721390504E+02  0.00000000000E+00 0. -1.
</event>
<event>
 7    1  0.1418970E-010  0.4778728E+02  0.7816164E-02  0.1312668E+00
        -11   -1    0    0    0    0  0.00000000000E+00  0.00000000000E+00  0.45593999997E+02  0.45594000000E+02  0.51100000000E-03 0.  1.
         11   -1    0    0    0    0 -0.00000000000E+00 -0.00000000000E+00 -0.45593999997E+02  0.45594000000E+02  0.51100000000E-03 0. -1.
    9900012    2    1    2    0    0 -0.12472160116E+02  0.39537986517E+02 -0.12838032934E+02  0.47787282893E+02  0.20000054023E+02 0.  0.
         12    1    1    2    0    0  0.12472160116E+02 -0.39537986517E+02  0.12838032934E+02  0.43400717107E+02  0.00000000000E+00 0. -1.
         11    1    3    3    0    0  0.30402194592E+01  0.14092846698E+02 -0.42505567112E+01  0.15030585319E+02  0.51100000000E-03 0. -1.
        -11    1    3    3    0    0 -0.46591073094E+01  0.41439166241E+01  0.20865842028E+01  0.65751927579E+01  0.51100000000E-03 0.  1.
        -12    1    3    3    0    0 -0.10853272266E+02  0.21301223195E+02 -0.10674060425E+02  0.26181504816E+02  0.00000000000E+00 0.  1.
</event>
<event>
 7    1  0.1418970E-010  0.4778727E+02  0.7816164E-02  0.1312668E+00
        -11   -1    0    0    0    0  0.00000000000E+00  0.00000000000E+00  0.45593999997E+02  0.45594000000E+02  0.51100000000E-03 0. -1.
         11   -1    0    0    0    0 -0.00000000000E+00 -0.00000000000E+00 -0.45593999997E+02  0.45594000000E+02  0.51100000000E-03 0.  1.
    9900012    2    1    2    0    0  0.13829298384E+02 -0.69989826667E+01 -0.40538725785E+02  0.47787267974E+02  0.19999985999E+02 0.  0.
         12    1    1    2    0    0 -0.13829298384E+02  0.69989826667E+01  0.40538725785E+02  0.43400732026E+02  0.00000000000E+00 0. -1.
         11    1    3    3    0    0 -0.12749274720E+01  0.19566938451E+01 -0.25925410903E+01  0.34893209122E+01  0.51100000000E-03 0. -1.
        -11    1    3    3    0    0  0.12682369743E+02 -0.12315669641E+02 -0.35012548907E+02  0.39222401791E+02  0.51100000000E-03 0.  1.
        -12    1    3    3    0    0  0.24218561129E+01  0.33599931296E+01 -0.29336357878E+01  0.50755452710E+01  0.00000000000E+00 0.  1.
</event>
<event>
 7    1  0.1418970E-010  0.4778727E+02  0.7816164E-02  0.1312668E+00
        -11   -1    0    0    0    0  0.00000000000E+00  0.00000000000E+00  0.45593999997E+02  0.45594000000E+02  0.51100000000E-03 0. -1.
         11   -1    0    0    0    0 -0.00000000000E+00 -0.00000000000E+00 -0.45593999997E+02  0.45594000000E+02  0.51100000000E-03 0.  1.
    9900012    2    1    2    0    0  0.54582371526E+01 -0.40446116707E+02 -0.14762868900E+02  0.47787274112E+02  0.20000013986E+02 0.  0.
         12    1    1    2    0    0 -0.54582371526E+01  0.40446116707E+02  0.14762868900E+02  0.43400725888E+02  0.00000000000E+00 0. -1.
         11    1    3    3    0    0  0.69279946532E+01 -0.16699611824E+02 -0.23485081005E+01  0.18231556037E+02  0.51100000000E-03 0.  1.
        -11    1    3    3    0    0 -0.18852992006E+01 -0.24949466868E+02 -0.12951911508E+02  0.28174141726E+02  0.51100000000E-03 0. -1.
         12    1    3    3    0    0  0.41554169995E+00  0.12029619851E+01  0.53755070806E+00  0.13815763481E+01  0.00000000000E+00 0. -1.
</event>
<event>
 7    1  0.1418970E-010  0.4778727E+02  0.7816164E-02  0.1312668E+00
        -11   -1    0    0    0    0  0.00000000000E+00  0.00000000000E+00  0.45593999997E+02  0.45594000000E+02  0.51100000000E-03 0.  1.
         11   -1    0    0    0    0 -0.00000000000E+00 -0.00000000000E+00 -0.45593999997E+02  0.45594000000E+02  0.51100000000E-03 0. -1.
    9900012    2    1    2    0    0  0.33712273361E+01 -0.72410305841E+01  0.42659415547E+02  0.47787269217E+02  0.19999991667E+02 0.  0.
         12    1    1    2    0    0 -0.33712273361E+01  0.72410305841E+01 -0.42659415547E+02  0.43400730783E+02  0.00000000000E+00 0. -1.
         11    1    3    3    0    0  0.20556211222E+01  0.18624195930E+01  0.12840852295E+02  0.13137034401E+02  0.51100000000E-03 0. -1.
        -11    1    3    3    0    0  0.58674668145E+01 -0.11169943880E+02  0.22286838689E+02  0.25610505503E+02  0.51100000000E-03 0.  1.
         12    1    3    3    0    0 -0.45518606006E+01  0.20664937027E+01  0.75317245632E+01  0.90397293126E+01  0.00000000000E+00 0. -1.
</event>
<event>
 7    1  0.1418970E-010  0.4778727E+02  0.7816164E-02  0.1312668E+00
        -11   -1    0    0    0    0  0.00000000000E+00  0.00000000000E+00  0.45593999997E+02  0.45594000000E+02  0.51100000000E-03 0. -1.
         11   -1    0    0    0    0 -0.00000000000E+00 -0.00000000000E+00 -0.45593999997E+02  0.45594000000E+02  0.51100000000E-03 0.  1.
    9900012    2    1    2    0    0 -0.23687520338E+02  0.33736648625E+02 -0.13578037362E+02  0.47787272139E+02  0.20000004991E+02 0.  0.
         12    1    1    2    0    0  0.23687520338E+02 -0.33736648625E+02  0.13578037362E+02  0.43400727861E+02  0.00000000000E+00 0. -1.
         11    1    3    3    0    0 -0.10073407387E+02  0.13243030769E+02  0.18099324184E+00  0.16639836512E+02  0.51100000000E-03 0. -1.
        -11    1    3    3    0    0 -0.99712517728E+01  0.20361309217E+02 -0.15125836263E+02  0.27254351907E+02  0.51100000000E-03 0.  1.
         12    1    3    3    0    0 -0.36428611783E+01  0.13230863888E+00  0.13668056586E+01  0.38930837197E+01  0.00000000000E+00 0. -1.
</event>
<event>
 7    1  0.1418970E-010  0.4778727E+02  0.7816164E-02  0.1312668E+00
        -11   -1    0    0    0    0  0.00000000000E+00  0.00000000000E+00  0.45593999997E+02  0.45594000000E+02  0.51100000000E-03 0.  1.
         11   -1    0    0    0    0 -0.00000000000E+00 -0.00000000000E+00 -0.45593999997E+02  0.45594000000E+02  0.51100000000E-03 0. -1.
    9900012    2    1    2    0    0  0.14657616933E+02  0.34843263912E+02  0.21324272028E+02  0.47787270147E+02  0.19999995910E+02 0.  0.
         12    1    1    2    0    0 -0.14657616933E+02 -0.34843263912E+02 -0.21324272028E+02  0.43400729853E+02  0.00000000000E+00 0. -1.
         11    1    3    3    0    0  0.12779521919E+01  0.11384568635E+01  0.91884691045E+01  0.93465079351E+01  0.51100000000E-03 0. -1.
        -11    1    3    3    0    0  0.65529441811E+01  0.11413142403E+02  0.44931625442E+01  0.13906451987E+02  0.51100000000E-03 0.  1.
         12    1    3    3    0    0  0.68267205597E+01  0.22291664646E+02  0.76426403795E+01  0.24534310226E+02  0.00000000000E+00 0. -1.
</event>
<event>
 7    1  0.1418970E-010  0.4778727E+02  0.7816164E-02  0.1312668E+00
        -11   -1    0    0    0    0  0.00000000000E+00  0.00000000000E+00  0.45593999997E+02  0.45594000000E+02  0.51100000000E-03 0.  1.
         11   -1    0    0    0    0 -0.00000000000E+00 -0.00000000000E+00 -0.45593999997E+02  0.45594000000E+02  0.51100000000E-03 0. -1.
    9900012    2    1    2    0    0 -0.23125109736E+02 -0.32270337802E+02  0.17535053793E+02  0.47787268281E+02  0.19999987403E+02 0.  0.
         12    1    1    2    0    0  0.23125109736E+02  0.32270337802E+02 -0.17535053793E+02  0.43400731719E+02  0.00000000000E+00 0. -1.
         11    1    3    3    0    0  0.18513295724E+01 -0.70925150300E+01  0.81308647080E+00  0.73751135928E+01  0.51100000000E-03 0.  1.
        -11    1    3    3    0    0 -0.58093529497E+01 -0.45086844517E+01 -0.51417514244E+00  0.73716479513E+01  0.51100000000E-03 0. -1.
        -12    1    3    3    0    0 -0.19167086359E+02 -0.20669138320E+02  0.17236142465E+02  0.33040506737E+02  0.00000000000E+00 0.  1.
</event>
<event>
 7    1  0.1418970E-010  0.4778727E+02  0.7816164E-02  0.1312668E+00
        -11   -1    0    0    0    0  0.00000000000E+00  0.00000000000E+00  0.45593999997E+02  0.45594000000E+02  0.51100000000E-03 0.  1.
         11   -1    0    0    0    0 -0.00000000000E+00 -0.00000000000E+00 -0.45593999997E+02  0.45594000000E+02  0.51100000000E-03 0. -1.
    9900012    2    1    2    0    0  0.43225959492E+02 -0.25685848556E+01  0.29226732282E+01  0.47787271654E+02  0.20000002778E+02 0.  0.
         12    1    1    2    0    0 -0.43225959492E+02  0.25685848556E+01 -0.29226732282E+01  0.43400728346E+02  0.00000000000E+00 0. -1.
         11    1    3    3    0    0  0.50875050580E+01 -0.46457580248E+01  0.24114502834E+01  0.72993744986E+01  0.51100000000E-03 0. -1.
        -11    1    3    3    0    0  0.25582810271E+02 -0.48760461427E+01 -0.95458608653E+00  0.26060837327E+02  0.51100000000E-03 0.  1.
        -12    1    3    3    0    0  0.12555644163E+02  0.69532193119E+01  0.14658090314E+01  0.14427059828E+02  0.00000000000E+00 0.  1.
</event>
<event>
 7    1  0.1418970E-010  0.4778727E+02  0.7816164E-02  0.1312668E+00
        -11   -1    0    0    0    0  0.00000000000E+00  0.00000000000E+00  0.45593999997E+02  0.45594000000E+02  0.51100000000E-03 0.  1.
         11   -1    0    0    0    0 -0.00000000000E+00 -0.00000000000E+00 -0.45593999997E+02  0.45594000000E+02  0.51100000000E-03 0. -1.
    9900012    2    1    2    0    0 -0.22104979249E+02 -0.20118011395E+02  0.31468377960E+02  0.47787270726E+02  0.19999998548E+02 0.  0.
         12    1    1    2    0    0  0.22104979249E+02  0.20118011395E+02 -0.31468377960E+02  0.43400729274E+02  0.00000000000E+00 0. -1.
         11    1    3    3    0    0 -0.14127522744E+02 -0.39591848976E+01  0.10332612978E+02  0.17945053222E+02  0.51100000000E-03 0. -1.
        -11    1    3    3    0    0 -0.37557144813E+01 -0.54502574333E+01  0.15848731605E+02  0.17175359999E+02  0.51100000000E-03 0.  1.
        -12    1    3    3    0    0 -0.42217420241E+01 -0.10708569064E+02  0.52870333773E+01  0.12666857505E+02  0.00000000000E+00 0.  1.
</event>
<event>
 7    1  0.1418970E-010  0.4778727E+02  0.7816164E-02  0.1312668E+00
        -11   -1    0    0    0    0  0.00000000000E+00  0.00000000000E+00  0.45593999997E+02  0.45594000000E+02  0.51100000000E-03 0.  1.
         11   -1    0    0    0    0 -0.00000000000E+00 -0.00000000000E+00 -0.45593999997E+02  0.45594000000E+02  0.51100000000E-03 0. -1.
    9900012    2    1    2    0    0  0.15795650364E+02  0.38213641267E+02  0.13184774156E+02  0.47787271679E+02  0.20000002892E+02 0.  0.
         12    1    1    2    0    0 -0.15795650364E+02 -0.38213641267E+02 -0.13184774156E+02  0.43400728321E+02  0.00000000000E+00 0. -1.
         11    1    3    3    0    0  0.63238135025E+01  0.86591991706E+01  0.10271411355E+01  0.10771600005E+02  0.51100000000E-03 0. -1.
        -11    1    3    3    0    0  0.63727671850E+01  0.67291474953E+01 -0.26410715779E+01  0.96368483929E+01  0.51100000000E-03 0.  1.
        -12    1    3    3    0    0  0.30990696765E+01  0.22825294601E+02  0.14798704598E+02  0.27378823281E+02  0.00000000000E+00 0.  1.
</event>
<event>
 7    1  0.1418970E-010  0.4778725E+02  0.7816164E-02  0.1312668E+00
        -11   -1    0    0    0    0  0.00000000000E+00  0.00000000000E+00  0.45593999997E+02  0.45594000000E+02  0.51100000000E-03 0.  1.
         11   -1    0    0    0    0 -0.00000000000E+00 -0.00000000000E+00 -0.45593999997E+02  0.45594000000E+02  0.51100000000E-03 0. -1.
    9900012    2    1    2    0    0  0.16250782203E+02 -0.41126115628E+01  0.40032781994E+02  0.47787249658E+02  0.19999902489E+02 0.  0.
         12    1    1    2    0    0 -0.16250782203E+02  0.41126115628E+01 -0.40032781994E+02  0.43400750342E+02  0.00000000000E+00 0. -1.
         11    1    3    3    0    0 -0.14452886361E+01 -0.42849236726E+01  0.55309337406E+01  0.71442745206E+01  0.51100000000E-03 0. -1.
        -11    1    3    3    0    0  0.14325738641E+02 -0.50753755281E+01  0.25651857092E+02  0.29816170058E+02  0.51100000000E-03 0.  1.
        -12    1    3    3    0    0  0.33703321977E+01  0.52476876379E+01  0.88499911614E+01  0.10826805079E+02  0.00000000000E+00 0.  1.
</event>
<event>
 7    1  0.1418970E-010  0.4778727E+02  0.7816164E-02  0.1312668E+00
        -11   -1    0    0    0    0  0.00000000000E+00  0.00000000000E+00  0.45593999997E+02  0.45594000000E+02  0.51100000000E-03 0.  1.
         11   -1    0    0    0    0 -0.00000000000E+00 -0.00000000000E+00 -0.45593999997E+02  0.45594000000E+02  0.51100000000E-03 0. -1.
    9900012    2    1    2    0    0 -0.44214778651E+01  0.22686531398E+02  0.36734109965E+02  0.47787274103E+02  0.20000013947E+02 0.  0.
         12    1    1    2    0    0  0.44214778651E+01 -0.22686531398E+02 -0.36734109965E+02  0.43400725897E+02  0.00000000000E+00 0. -1.
         11    1    3    3    0    0 -0.23946048770E+01  0.23031714568E+01  0.87104062056E+00  0.34347406453E+01  0.51100000000E-03 0. -1.
        -11    1    3    3    0    0  0.27757201778E+01  0.20635230527E+02  0.32030371440E+02  0.38202906385E+02  0.51100000000E-03 0.  1.
        -12    1    3    3    0    0 -0.48025931659E+01 -0.25187058565E+00  0.38326979042E+01  0.61496270728E+01  0.00000000000E+00 0.  1.
</event>
<event>
 7    1  0.1418970E-010  0.4778728E+02  0.7816164E-02  0.1312668E+00
        -11   -1    0    0    0    0  0.00000000000E+00  0.00000000000E+00  0.45593999997E+02  0.45594000000E+02  0.51100000000E-03 0.  1.
         11   -1    0    0    0    0 -0.00000000000E+00 -0.00000000000E+00 -0.45593999997E+02  0.45594000000E+02  0.51100000000E-03 0. -1.
    9900012    2    1    2    0    0  0.45622385474E+01 -0.34229466458E+02  0.26289768443E+02  0.47787282041E+02  0.20000050139E+02 0.  0.
         12    1    1    2    0    0 -0.45622385474E+01  0.34229466458E+02 -0.26289768443E+02  0.43400717959E+02  0.00000000000E+00 0. -1.
         11    1    3    3    0    0  0.42939717101E+00 -0.14110146793E+01  0.63001657137E+01  0.64705048209E+01  0.51100000000E-03 0. -1.
        -11    1    3    3    0    0  0.73629821226E+01 -0.10330834272E+02  0.11313316074E+02  0.16997963505E+02  0.51100000000E-03 0.  1.
        -12    1    3    3    0    0 -0.32301407462E+01 -0.22487617507E+02  0.86762866552E+01  0.24318813715E+02  0.00000000000E+00 0.  1.
</event>
<event>
 7    1  0.1418970E-010  0.4778727E+02  0.7816164E-02  0.1312668E+00
        -11   -1    0    0    0    0  0.00000000000E+00  0.00000000000E+00  0.45593999997E+02  0.45594000000E+02  0.51100000000E-03 0. -1.
         11   -1    0    0    0    0 -0.00000000000E+00 -0.00000000000E+00 -0.45593999997E+02  0.45594000000E+02  0.51100000000E-03 0.  1.
    9900012    2    1    2    0    0 -0.23478312812E+02  0.25212735155E+02  0.26395265967E+02  0.47787271297E+02  0.20000001152E+02 0.  0.
         12    1    1    2    0    0  0.23478312812E+02 -0.25212735155E+02 -0.26395265967E+02  0.43400728703E+02  0.00000000000E+00 0. -1.
         11    1    3    3    0    0 -0.96714092132E+01  0.15035560231E+02  0.13584474794E+02  0.22453110771E+02  0.51100000000E-03 0. -1.
        -11    1    3    3    0    0 -0.10963085934E+02  0.56474974941E+01  0.10046647546E+01  0.12373068846E+02  0.51100000000E-03 0.  1.
         12    1    3    3    0    0 -0.28438176651E+01  0.45296774298E+01  0.11806126418E+02  0.12961091680E+02  0.00000000000E+00 0. -1.
</event>
<event>
 7    1  0.1418970E-010  0.4778727E+02  0.7816164E-02  0.1312668E+00
        -11   -1    0    0    0    0  0.00000000000E+00  0.00000000000E+00  0.45593999997E+02  0.45594000000E+02  0.51100000000E-03 0. -1.
         11   -1    0    0    0    0 -0.00000000000E+00 -0.00000000000E+00 -0.45593999997E+02  0.45594000000E+02  0.51100000000E-03 0.  1.
    9900012    2    1    2    0    0 -0.41461527670E+01  0.16592537810E+02 -0.39888856710E+02  0.47787265175E+02  0.19999973238E+02 0.  0.
         12    1    1    2    0    0  0.41461527670E+01 -0.16592537810E+02  0.39888856710E+02  0.43400734825E+02  0.00000000000E+00 0. -1.
         11    1    3    3    0    0 -0.84900994262E+01  0.91695416318E+01 -0.14098820839E+02  0.18839825671E+02  0.51100000000E-03 0. -1.
        -11    1    3    3    0    0  0.35867712085E+00 -0.15873086365E+01 -0.11352753353E+02  0.11468792741E+02  0.51100000000E-03 0.  1.
        -12    1    3    3    0    0  0.39852695383E+01  0.90103048149E+01 -0.14437282518E+02  0.17478646762E+02  0.00000000000E+00 0.  1.
</event>
<event>
 7    1  0.1418970E-010  0.4778728E+02  0.7816164E-02  0.1312668E+00
        -11   -1    0    0    0    0  0.00000000000E+00  0.00000000000E+00  0.45593999997E+02  0.45594000000E+02  0.51100000000E-03 0.  1.
         11   -1    0    0    0    0 -0.00000000000E+00 -0.00000000000E+00 -0.45593999997E+02  0.45594000000E+02  0.51100000000E-03 0. -1.
    9900012    2    1    2    0    0  0.11970681816E+02  0.38608987840E+02  0.15801003575E+02  0.47787275592E+02  0.20000020735E+02 0.  0.
         12    1    1    2    0    0 -0.11970681816E+02 -0.38608987840E+02 -0.15801003575E+02  0.43400724408E+02  0.00000000000E+00 0. -1.
         11    1    3    3    0    0  0.14083731494E+02  0.31615038291E+02  0.18036056588E+02  0.39027701398E+02  0.51100000000E-03 0. -1.
        -11    1    3    3    0    0 -0.34245349879E-01 -0.66840226624E-01 -0.13431930229E+01  0.13452910903E+01  0.51100000000E-03 0.  1.
        -12    1    3    3    0    0 -0.20788043284E+01  0.70607897760E+01 -0.89185999055E+00  0.74142831036E+01  0.00000000000E+00 0.  1.
</event>
<event>
 7    1  0.1418970E-010  0.4778727E+02  0.7816164E-02  0.1312668E+00
        -11   -1    0    0    0    0  0.00000000000E+00  0.00000000000E+00  0.45593999997E+02  0.45594000000E+02  0.51100000000E-03 0. -1.
         11   -1    0    0    0    0 -0.00000000000E+00 -0.00000000000E+00 -0.45593999997E+02  0.45594000000E+02  0.51100000000E-03 0.  1.
    9900012    2    1    2    0    0  0.30193008231E+02 -0.27240534695E+02  0.15164386235E+02  0.47787273205E+02  0.20000009850E+02 0.  0.
         12    1    1    2    0    0 -0.30193008231E+02  0.27240534695E+02 -0.15164386235E+02  0.43400726795E+02  0.00000000000E+00 0. -1.
         11    1    3    3    0    0 -0.20590661887E+01 -0.63207434503E+01  0.38652852373E+01  0.76897322165E+01  0.51100000000E-03 0. -1.
        -11    1    3    3    0    0  0.89225548783E+01 -0.52520724459E+01  0.25205483336E+01  0.10655956771E+02  0.51100000000E-03 0.  1.
         12    1    3    3    0    0  0.23329519541E+02 -0.15667718799E+02  0.87785526641E+01  0.29441584218E+02  0.00000000000E+00 0. -1.
</event>
<event>
 7    1  0.1418970E-010  0.4778727E+02  0.7816164E-02  0.1312668E+00
        -11   -1    0    0    0    0  0.00000000000E+00  0.00000000000E+00  0.45593999997E+02  0.45594000000E+02  0.51100000000E-03 0.  1.
         11   -1    0    0    0    0 -0.00000000000E+00 -0.00000000000E+00 -0.45593999997E+02  0.45594000000E+02  0.51100000000E-03 0. -1.
    9900012    2    1    2    0    0 -0.15498318194E+02  0.40402725945E+02  0.33234957401E+01  0.47787265507E+02  0.19999974751E+02 0.  0.
         12    1    1    2    0    0  0.15498318194E+02 -0.40402725945E+02 -0.33234957401E+01  0.43400734493E+02  0.00000000000E+00 0. -1.
         11    1    3    3    0    0  0.11883674773E+01  0.38547089737E+01  0.24147348046E+01  0.47012703571E+01  0.51100000000E-03 0. -1.
        -11    1    3    3    0    0 -0.13393346576E+02  0.16655585446E+02 -0.52408736638E+01  0.22005840499E+02  0.51100000000E-03 0.  1.
        -12    1    3    3    0    0 -0.32933390955E+01  0.19892431525E+02  0.61496345993E+01  0.21080154650E+02  0.00000000000E+00 0.  1.
</event>
<event>
 7    1  0.1418970E-010  0.4778727E+02  0.7816164E-02  0.1312668E+00
        -11   -1    0    0    0    0  0.00000000000E+00  0.00000000000E+00  0.45593999997E+02  0.45594000000E+02  0.51100000000E-03 0. -1.
         11   -1    0    0    0    0 -0.00000000000E+00 -0.00000000000E+00 -0.45593999997E+02  0.45594000000E+02  0.51100000000E-03 0.  1.
    9900012    2    1    2    0    0 -0.40889746065E+02 -0.10513893664E+02  0.10055332715E+02  0.47787274094E+02  0.20000013902E+02 0.  0.
         12    1    1    2    0    0  0.40889746065E+02  0.10513893664E+02 -0.10055332715E+02  0.43400725906E+02  0.00000000000E+00 0. -1.
         11    1    3    3    0    0 -0.12313185727E+02 -0.84282319153E+01  0.54462377041E+01  0.15884304874E+02  0.51100000000E-03 0. -1.
        -11    1    3    3    0    0 -0.25849611323E+02 -0.65168339497E+00  0.82419195453E+01  0.27139571383E+02  0.51100000000E-03 0.  1.
        -12    1    3    3    0    0 -0.27269490150E+01 -0.14339783533E+01 -0.36328245342E+01  0.47633978361E+01  0.00000000000E+00 0.  1.
</event>
<event>
 7    1  0.1418970E-010  0.4778726E+02  0.7816164E-02  0.1312668E+00
        -11   -1    0    0    0    0  0.00000000000E+00  0.00000000000E+00  0.45593999997E+02  0.45594000000E+02  0.51100000000E-03 0.  1.
         11   -1    0    0    0    0 -0.00000000000E+00 -0.00000000000E+00 -0.45593999997E+02  0.45594000000E+02  0.51100000000E-03 0. -1.
    9900012    2    1    2    0    0 -0.15961938850E+02  0.11150535882E+02  0.38787960876E+02  0.47787264393E+02  0.19999969675E+02 0.  0.
         12    1    1    2    0    0  0.15961938850E+02 -0.11150535882E+02 -0.38787960876E+02  0.43400735607E+02  0.00000000000E+00 0. -1.
         11    1    3    3    0    0 -0.25695903644E+01 -0.26222341864E+01  0.36741984940E+01  0.51940968035E+01  0.51100000000E-03 0. -1.
        -11    1    3    3    0    0 -0.89647578456E+00  0.89597021520E+01  0.22342085664E+02  0.24088352446E+02  0.51100000000E-03 0.  1.
        -12    1    3    3    0    0 -0.12495872701E+02  0.48130679161E+01  0.12771676718E+02  0.18504815144E+02  0.00000000000E+00 0.  1.
</event>
<event>
 7    1  0.1418970E-010  0.4778727E+02  0.7816164E-02  0.1312668E+00
        -11   -1    0    0    0    0  0.00000000000E+00  0.00000000000E+00  0.45593999997E+02  0.45594000000E+02  0.51100000000E-03 0.  1.
         11   -1    0    0    0    0 -0.00000000000E+00 -0.00000000000E+00 -0.45593999997E+02  0.45594000000E+02  0.51100000000E-03 0. -1.
    9900012    2    1    2    0    0  0.22568033010E+02  0.11946261689E+02  0.35094073714E+02  0.47787270835E+02  0.19999999043E+02 0.  0.
         12    1    1    2    0    0 -0.22568033010E+02 -0.11946261689E+02 -0.35094073714E+02  0.43400729165E+02  0.00000000000E+00 0. -1.
         11    1    3    3    0    0  0.69863259533E+00  0.27018359596E+01 -0.82987663382E+00  0.29114773817E+01  0.51100000000E-03 0. -1.
        -11    1    3    3    0    0  0.14861895831E+02  0.11927132381E+02  0.22394048990E+02  0.29404521165E+02  0.51100000000E-03 0.  1.
         12    1    3    3    0    0  0.70075045840E+01 -0.26827066511E+01  0.13529901357E+02  0.15471272288E+02  0.00000000000E+00 0. -1.
</event>
<event>
 7    1  0.1418970E-010  0.4778727E+02  0.7816164E-02  0.1312668E+00
        -11   -1    0    0    0    0  0.00000000000E+00  0.00000000000E+00  0.45593999997E+02  0.45594000000E+02  0.51100000000E-03 0.  1.
         11   -1    0    0    0    0 -0.00000000000E+00 -0.00000000000E+00 -0.45593999997E+02  0.45594000000E+02  0.51100000000E-03 0. -1.
    9900012    2    1    2    0    0 -0.96833075036E+00  0.39575862224E+02  0.17788678327E+02  0.47787267151E+02  0.19999982247E+02 0.  0.
         12    1    1    2    0    0  0.96833075036E+00 -0.39575862224E+02 -0.17788678327E+02  0.43400732849E+02  0.00000000000E+00 0. -1.
         11    1    3    3    0    0 -0.23109705934E+01  0.10509126926E+01 -0.98258226618E+00  0.27222179821E+01  0.51100000000E-03 0. -1.
        -11    1    3    3    0    0 -0.20704506239E+01  0.21167365688E+02  0.17111497871E+02  0.27297389905E+02  0.51100000000E-03 0.  1.
         12    1    3    3    0    0  0.34130904670E+01  0.17357583844E+02  0.16597627216E+01  0.17767659264E+02  0.00000000000E+00 0. -1.
</event>
<event>
 7    1  0.1418970E-010  0.4778727E+02  0.7816164E-02  0.1312668E+00
        -11   -1    0    0    0    0  0.00000000000E+00  0.00000000000E+00  0.45593999997E+02  0.45594000000E+02  0.51100000000E-03 0. -1.
         11   -1    0    0    0    0 -0.00000000000E+00 -0.00000000000E+00 -0.45593999997E+02  0.45594000000E+02  0.51100000000E-03 0.  1.
    9900012    2    1    2    0    0 -0.18123866107E+02 -0.28707333468E+02 -0.27037715442E+02  0.47787267588E+02  0.19999984241E+02 0.  0.
         12    1    1    2    0    0  0.18123866107E+02  0.28707333468E+02  0.27037715442E+02  0.43400732412E+02  0.00000000000E+00 0. -1.
         11    1    3    3    0    0 -0.32693328315E+01 -0.16732129987E+02 -0.92750704314E+01  0.19408236469E+02  0.51100000000E-03 0. -1.
        -11    1    3    3    0    0 -0.35678774149E+01 -0.27446544873E+01 -0.11794555189E+02  0.12624357800E+02  0.51100000000E-03 0.  1.
        -12    1    3    3    0    0 -0.11286655861E+02 -0.92305489937E+01 -0.59680898217E+01  0.15754673318E+02  0.00000000000E+00 0.  1.
</event>
<event>
 7    1  0.1418970E-010  0.4778727E+02  0.7816164E-02  0.1312668E+00
        -11   -1    0    0    0    0  0.00000000000E+00  0.00000000000E+00  0.45593999997E+02  0.45594000000E+02  0.51100000000E-03 0.  1.
         11   -1    0    0    0    0 -0.00000000000E+00 -0.00000000000E+00 -0.45593999997E+02  0.45594000000E+02  0.51100000000E-03 0. -1.
    9900012    2    1    2    0    0  0.13118218255E+02 -0.30165653438E+02  0.28311992978E+02  0.47787271389E+02  0.20000001571E+02 0.  0.
         12    1    1    2    0    0 -0.13118218255E+02  0.30165653438E+02 -0.28311992978E+02  0.43400728611E+02  0.00000000000E+00 0. -1.
         11    1    3    3    0    0  0.86073026993E+01 -0.18764035644E+02  0.15332844633E+02  0.25715186529E+02  0.51100000000E-03 0. -1.
        -11    1    3    3    0    0  0.18967118878E+01 -0.20013971378E+01 -0.25345335632E+01  0.37452592878E+01  0.51100000000E-03 0.  1.
         12    1    3    3    0    0  0.26142036683E+01 -0.94002206561E+01  0.15513681908E+02  0.18326825572E+02  0.00000000000E+00 0. -1.
</event>
<event>
 7    1  0.1418970E-010  0.4778727E+02  0.7816164E-02  0.1312668E+00
        -11   -1    0    0    0    0  0.00000000000E+00  0.00000000000E+00  0.45593999997E+02  0.45594000000E+02  0.51100000000E-03 0.  1.
         11   -1    0    0    0    0 -0.00000000000E+00 -0.00000000000E+00 -0.45593999997E+02  0.45594000000E+02  0.51100000000E-03 0. -1.
    9900012    2    1    2    0    0  0.41236819018E+02  0.59919899848E+01  0.12134421505E+02  0.47787269914E+02  0.19999994847E+02 0.  0.
         12    1    1    2    0    0 -0.41236819018E+02 -0.59919899848E+01 -0.12134421505E+02  0.43400730086E+02  0.00000000000E+00 0. -1.
         11    1    3    3    0    0 -0.73615207757E+00  0.74030312292E+00 -0.52121640518E+00  0.11668913391E+01  0.51100000000E-03 0. -1.
        -11    1    3    3    0    0  0.37588821015E+02  0.93456527685E+01  0.96801931451E+01  0.39924514156E+02  0.51100000000E-03 0.  1.
        -12    1    3    3    0    0  0.43841500803E+01 -0.40939659066E+01  0.29754447654E+01  0.66958644194E+01  0.00000000000E+00 0.  1.
</event>
<event>
 7    1  0.1418970E-010  0.4778727E+02  0.7816164E-02  0.1312668E+00
        -11   -1    0    0    0    0  0.00000000000E+00  0.00000000000E+00  0.45593999997E+02  0.45594000000E+02  0.51100000000E-03 0.  1.
         11   -1    0    0    0    0 -0.00000000000E+00 -0.00000000000E+00 -0.45593999997E+02  0.45594000000E+02  0.51100000000E-03 0. -1.
    9900012    2    1    2    0    0 -0.13629891192E+02 -0.36481710532E+02  0.19155516973E+02  0.47787274571E+02  0.20000016081E+02 0.  0.
         12    1    1    2    0    0  0.13629891192E+02  0.36481710532E+02 -0.19155516973E+02  0.43400725429E+02  0.00000000000E+00 0. -1.
         11    1    3    3    0    0 -0.92920504975E+00  0.49397131050E+00  0.17092851561E+01  0.20072582510E+01  0.51100000000E-03 0. -1.
        -11    1    3    3    0    0 -0.10178207970E+02 -0.37023810901E+02  0.18975041734E+02  0.42830021015E+02  0.51100000000E-03 0.  1.
         12    1    3    3    0    0 -0.25224781723E+01  0.48129058444E-01 -0.15288099175E+01  0.29499953050E+01  0.00000000000E+00 0. -1.
</event>
<event>
 7    1  0.1418970E-010  0.4778727E+02  0.7816164E-02  0.1312668E+00
        -11   -1    0    0    0    0  0.00000000000E+00  0.00000000000E+00  0.45593999997E+02  0.45594000000E+02  0.51100000000E-03 0.  1.
         11   -1    0    0    0    0 -0.00000000000E+00 -0.00000000000E+00 -0.45593999997E+02  0.45594000000E+02  0.51100000000E-03 0. -1.
    9900012    2    1    2    0    0 -0.30747848752E+02  0.29809700374E+02  0.70409527539E+01  0.47787268958E+02  0.19999990486E+02 0.  0.
         12    1    1    2    0    0  0.30747848752E+02 -0.29809700374E+02 -0.70409527539E+01  0.43400731042E+02  0.00000000000E+00 0. -1.
         11    1    3    3    0    0 -0.94944588755E+01  0.31913862549E+01 -0.11870972789E+01  0.10086570070E+02  0.51100000000E-03 0. -1.
        -11    1    3    3    0    0 -0.10223079689E+02  0.10086303744E+02  0.10366734245E+02  0.17711975066E+02  0.51100000000E-03 0.  1.
        -12    1    3    3    0    0 -0.11030310188E+02  0.16532010375E+02 -0.21386842124E+01  0.19988723822E+02  0.00000000000E+00 0.  1.
</event>
<event>
 7    1  0.1572227E-010  0.4778727E+02  0.7816164E-02  0.1312668E+00
        -11   -1    0    0    0    0  0.00000000000E+00  0.00000000000E+00  0.45593999997E+02  0.45594000000E+02  0.51100000000E-03 0.  1.
         11   -1    0    0    0    0 -0.00000000000E+00 -0.00000000000E+00 -0.45593999997E+02  0.45594000000E+02  0.51100000000E-03 0. -1.
    9900012    2    1    2    0    0  0.31932138035E+02  0.29347495612E+02  0.16390793267E+01  0.47787268219E+02  0.19999987116E+02 0.  0.
         12    1    1    2    0    0 -0.31932138035E+02 -0.29347495612E+02 -0.16390793267E+01  0.43400731781E+02  0.00000000000E+00 0. -1.
         11    1    3    3    0    0  0.30787902791E+01  0.23809865712E+01  0.48873038245E+01  0.62477024232E+01  0.51100000000E-03 0. -1.
        -11    1    3    3    0    0  0.24177569732E+02  0.16894374320E+02  0.13369779104E+01  0.29525620603E+02  0.51100000000E-03 0.  1.
         12    1    3    3    0    0  0.46757780230E+01  0.10072134721E+02 -0.45852024082E+01  0.12013945192E+02  0.00000000000E+00 0. -1.
</event>
<event>
 7    1  0.1418970E-010  0.4778726E+02  0.7816164E-02  0.1312668E+00
        -11   -1    0    0    0    0  0.00000000000E+00  0.00000000000E+00  0.45593999997E+02  0.45594000000E+02  0.51100000000E-03 0. -1.
         11   -1    0    0    0    0 -0.00000000000E+00 -0.00000000000E+00 -0.45593999997E+02  0.45594000000E+02  0.51100000000E-03 0.  1.
    9900012    2    1    2    0    0  0.84288926867E+01 -0.42538592978E+02 -0.17454083600E+01  0.47787256056E+02  0.19999931664E+02 0.  0.
         12    1    1    2    0    0 -0.84288926867E+01  0.42538592978E+02  0.17454083600E+01  0.43400743944E+02  0.00000000000E+00 0. -1.
         11    1    3    3    0    0  0.71875612988E+01 -0.80038200328E+01 -0.31671994978E+01  0.11213979020E+02  0.51100000000E-03 0. -1.
        -11    1    3    3    0    0  0.33703751184E+01 -0.15124777730E+02 -0.45572156270E+01  0.16151982675E+02  0.51100000000E-03 0.  1.
         12    1    3    3    0    0 -0.21290437305E+01 -0.19409995216E+02  0.59790067647E+01  0.20421294361E+02  0.00000000000E+00 0. -1.
</event>
<event>
 7    1  0.1418970E-010  0.4778727E+02  0.7816164E-02  0.1312668E+00
        -11   -1    0    0    0    0  0.00000000000E+00  0.00000000000E+00  0.45593999997E+02  0.45594000000E+02  0.51100000000E-03 0.  1.
         11   -1    0    0    0    0 -0.00000000000E+00 -0.00000000000E+00 -0.45593999997E+02  0.45594000000E+02  0.51100000000E-03 0. -1.
    9900012    2    1    2    0    0 -0.22681428063E+02  0.31627577909E+02  0.19206044639E+02  0.47787274038E+02  0.20000013649E+02 0.  0.
         12    1    1    2    0    0  0.22681428063E+02 -0.31627577909E+02 -0.19206044639E+02  0.43400725962E+02  0.00000000000E+00 0. -1.
         11    1    3    3    0    0 -0.67926338975E+00  0.71631047859E+00 -0.28753427795E+01  0.30400815475E+01  0.51100000000E-03 0. -1.
        -11    1    3    3    0    0  0.21871289257E+00  0.38451164859E+01  0.28817372723E+01  0.48101108186E+01  0.51100000000E-03 0.  1.
        -12    1    3    3    0    0 -0.22220877566E+02  0.27066150944E+02  0.19199650146E+02  0.39937081672E+02  0.00000000000E+00 0.  1.
</event>
<event>
 7    1  0.1418970E-010  0.4778727E+02  0.7816164E-02  0.1312668E+00
        -11   -1    0    0    0    0  0.00000000000E+00  0.00000000000E+00  0.45593999997E+02  0.45594000000E+02  0.51100000000E-03 0. -1.
         11   -1    0    0    0    0 -0.00000000000E+00 -0.00000000000E+00 -0.45593999997E+02  0.45594000000E+02  0.51100000000E-03 0.  1.
    9900012    2    1    2    0    0 -0.99925947081E+01  0.55788965903E+01 -0.41864628617E+02  0.47787272294E+02  0.20000005696E+02 0.  0.
         12    1    1    2    0    0  0.99925947081E+01 -0.55788965903E+01  0.41864628617E+02  0.43400727706E+02  0.00000000000E+00 0. -1.
         11    1    3    3    0    0 -0.26179716624E+01 -0.51398588450E+01 -0.10576098542E+02  0.12046816393E+02  0.51100000000E-03 0. -1.
        -11    1    3    3    0    0 -0.51272642908E+01  0.75072950536E+01 -0.79555337164E+01  0.12080514687E+02  0.51100000000E-03 0.  1.
         12    1    3    3    0    0 -0.22473587549E+01  0.32114603817E+01 -0.23332996359E+02  0.23659941214E+02  0.00000000000E+00 0. -1.
</event>
<event>
 7    1  0.1418970E-010  0.4778727E+02  0.7816164E-02  0.1312668E+00
        -11   -1    0    0    0    0  0.00000000000E+00  0.00000000000E+00  0.45593999997E+02  0.45594000000E+02  0.51100000000E-03 0. -1.
         11   -1    0    0    0    0 -0.00000000000E+00 -0.00000000000E+00 -0.45593999997E+02  0.45594000000E+02  0.51100000000E-03 0.  1.
    9900012    2    1    2    0    0 -0.60696731389E+01 -0.28810515739E+02 -0.31886306535E+02  0.47787270817E+02  0.19999998965E+02 0.  0.
         12    1    1    2    0    0  0.60696731389E+01  0.28810515739E+02  0.31886306535E+02  0.43400729183E+02  0.00000000000E+00 0. -1.
         11    1    3    3    0    0  0.26730902666E-01 -0.37448696593E+01 -0.91522039279E+00  0.38551772897E+01  0.51100000000E-03 0. -1.
        -11    1    3    3    0    0 -0.40797670740E+01 -0.19981859710E+02 -0.10889888739E+02  0.23119448390E+02  0.51100000000E-03 0.  1.
         12    1    3    3    0    0 -0.20166369676E+01 -0.50837863701E+01 -0.20081197403E+02  0.20812645138E+02  0.00000000000E+00 0. -1.
</event>
<event>
 7    1  0.1418970E-010  0.4778727E+02  0.7816164E-02  0.1312668E+00
        -11   -1    0    0    0    0  0.00000000000E+00  0.00000000000E+00  0.45593999997E+02  0.45594000000E+02  0.51100000000E-03 0. -1.
         11   -1    0    0    0    0 -0.00000000000E+00 -0.00000000000E+00 -0.45593999997E+02  0.45594000000E+02  0.51100000000E-03 0.  1.
    9900012    2    1    2    0    0 -0.75992537854E+01  0.38280665509E+02 -0.18985918877E+02  0.47787272754E+02  0.20000007793E+02 0.  0.
         12    1    1    2    0    0  0.75992537854E+01 -0.38280665509E+02  0.18985918877E+02  0.43400727246E+02  0.00000000000E+00 0. -1.
         11    1    3    3    0    0 -0.57814502084E+00  0.23696668902E+02 -0.19748093833E+02  0.30852124384E+02  0.51100000000E-03 0.  1.
        -11    1    3    3    0    0 -0.37273930317E+01  0.30257137727E+01 -0.60654480820E+00  0.48390391105E+01  0.51100000000E-03 0. -1.
        -12    1    3    3    0    0 -0.32937157329E+01  0.11558282834E+02  0.13687197646E+01  0.12096109259E+02  0.00000000000E+00 0.  1.
</event>
<event>
 7    1  0.1418970E-010  0.4778727E+02  0.7816164E-02  0.1312668E+00
        -11   -1    0    0    0    0  0.00000000000E+00  0.00000000000E+00  0.45593999997E+02  0.45594000000E+02  0.51100000000E-03 0. -1.
         11   -1    0    0    0    0 -0.00000000000E+00 -0.00000000000E+00 -0.45593999997E+02  0.45594000000E+02  0.51100000000E-03 0.  1.
    9900012    2    1    2    0    0 -0.76647438542E+01 -0.11587206026E+02 -0.41117045656E+02  0.47787273217E+02  0.20000009906E+02 0.  0.
         12    1    1    2    0    0  0.76647438542E+01  0.11587206026E+02  0.41117045656E+02  0.43400726783E+02  0.00000000000E+00 0. -1.
         11    1    3    3    0    0 -0.38225575063E+01  0.33467910219E+01 -0.19009769387E+01  0.54246354362E+01  0.51100000000E-03 0. -1.
        -11    1    3    3    0    0 -0.73123346405E+00 -0.14590076624E+01 -0.16022617085E+01  0.22870611233E+01  0.51100000000E-03 0.  1.
        -12    1    3    3    0    0 -0.31109528839E+01 -0.13474989385E+02 -0.37613807008E+02  0.40075576658E+02  0.00000000000E+00 0.  1.
</event>
<event>
 7    1  0.1418970E-010  0.4778727E+02  0.7816164E-02  0.1312668E+00
        -11   -1    0    0    0    0  0.00000000000E+00  0.00000000000E+00  0.45593999997E+02  0.45594000000E+02  0.51100000000E-03 0. -1.
         11   -1    0    0    0    0 -0.00000000000E+00 -0.00000000000E+00 -0.45593999997E+02  0.45594000000E+02  0.51100000000E-03 0.  1.
    9900012    2    1    2    0    0  0.63094843278E+01  0.31056229739E+02 -0.29653401230E+02  0.47787271866E+02  0.20000003745E+02 0.  0.
         12    1    1    2    0    0 -0.63094843278E+01 -0.31056229739E+02  0.29653401230E+02  0.43400728134E+02  0.00000000000E+00 0. -1.
         11    1    3    3    0    0 -0.32778046114E+01 -0.11980476074E+01 -0.13066380321E+01  0.37264761301E+01  0.51100000000E-03 0. -1.
        -11    1    3    3    0    0  0.31681967299E+01  0.99129970979E+01 -0.73948815950E+01  0.12766724562E+02  0.51100000000E-03 0.  1.
         12    1    3    3    0    0  0.64190922092E+01  0.22341280248E+02 -0.20951881603E+02  0.31294071174E+02  0.00000000000E+00 0. -1.
</event>
<event>
 7    1  0.1418970E-010  0.4778728E+02  0.7816164E-02  0.1312668E+00
        -11   -1    0    0    0    0  0.00000000000E+00  0.00000000000E+00  0.45593999997E+02  0.45594000000E+02  0.51100000000E-03 0.  1.
         11   -1    0    0    0    0 -0.00000000000E+00 -0.00000000000E+00 -0.45593999997E+02  0.45594000000E+02  0.51100000000E-03 0. -1.
    9900012    2    1    2    0    0 -0.43249255543E+01 -0.31521184048E+02  0.29518344255E+02  0.47787277974E+02  0.20000031596E+02 0.  0.
         12    1    1    2    0    0  0.43249255543E+01  0.31521184048E+02 -0.29518344255E+02  0.43400722026E+02  0.00000000000E+00 0. -1.
         11    1    3    3    0    0 -0.52391093235E+01 -0.81617264927E+01  0.10868700789E+02  0.14566767072E+02  0.51100000000E-03 0. -1.
        -11    1    3    3    0    0  0.28378395325E+01 -0.26012733859E+01 -0.15895385011E+01  0.41649236906E+01  0.51100000000E-03 0.  1.
        -12    1    3    3    0    0 -0.19236557634E+01 -0.20758184169E+02  0.20239181967E+02  0.29055587211E+02  0.00000000000E+00 0.  1.
</event>
<event>
 7    1  0.1418970E-010  0.4778727E+02  0.7816164E-02  0.1312668E+00
        -11   -1    0    0    0    0  0.00000000000E+00  0.00000000000E+00  0.45593999997E+02  0.45594000000E+02  0.51100000000E-03 0.  1.
         11   -1    0    0    0    0 -0.00000000000E+00 -0.00000000000E+00 -0.45593999997E+02  0.45594000000E+02  0.51100000000E-03 0. -1.
    9900012    2    1    2    0    0  0.99447418029E+01 -0.11685118038E+02  0.40597828705E+02  0.47787267648E+02  0.19999984516E+02 0.  0.
         12    1    1    2    0    0 -0.99447418029E+01  0.11685118038E+02 -0.40597828705E+02  0.43400732352E+02  0.00000000000E+00 0. -1.
         11    1    3    3    0    0  0.37767016765E-01 -0.25384261793E+01  0.94251338564E+00  0.27080187515E+01  0.51100000000E-03 0. -1.
        -11    1    3    3    0    0  0.33010042162E+01 -0.25013754049E+00  0.30573238193E+02  0.30751944515E+02  0.51100000000E-03 0.  1.
        -12    1    3    3    0    0  0.66059705699E+01 -0.88965543184E+01  0.90820771267E+01  0.14327304382E+02  0.00000000000E+00 0.  1.
</event>
<event>
 7    1  0.1418970E-010  0.4778727E+02  0.7816164E-02  0.1312668E+00
        -11   -1    0    0    0    0  0.00000000000E+00  0.00000000000E+00  0.45593999997E+02  0.45594000000E+02  0.51100000000E-03 0.  1.
         11   -1    0    0    0    0 -0.00000000000E+00 -0.00000000000E+00 -0.45593999997E+02  0.45594000000E+02  0.51100000000E-03 0. -1.
    9900012    2    1    2    0    0 -0.12855218506E+02  0.24663791850E+02  0.33317623270E+02  0.47787270840E+02  0.19999999069E+02 0.  0.
         12    1    1    2    0    0  0.12855218506E+02 -0.24663791850E+02 -0.33317623270E+02  0.43400729160E+02  0.00000000000E+00 0. -1.
         11    1    3    3    0    0 -0.32212266396E+01 -0.11072586067E+01  0.16121069826E+01  0.37684495313E+01  0.51100000000E-03 0. -1.
        -11    1    3    3    0    0 -0.74847676353E+01  0.50725498415E+01  0.56055572282E+01  0.10638363622E+02  0.51100000000E-03 0.  1.
         12    1    3    3    0    0 -0.21492242308E+01  0.20698500615E+02  0.26099959059E+02  0.33380457687E+02  0.00000000000E+00 0. -1.
</event>
<event>
 7    1  0.1418970E-010  0.4778728E+02  0.7816164E-02  0.1312668E+00
        -11   -1    0    0    0    0  0.00000000000E+00  0.00000000000E+00  0.45593999997E+02  0.45594000000E+02  0.51100000000E-03 0.  1.
         11   -1    0    0    0    0 -0.00000000000E+00 -0.00000000000E+00 -0.45593999997E+02  0.45594000000E+02  0.51100000000E-03 0. -1.
    9900012    2    1    2    0    0 -0.28763823229E+02 -0.77647616351E+00  0.32490949602E+02  0.47787282863E+02  0.20000053884E+02 0.  0.
         12    1    1    2    0    0  0.28763823229E+02  0.77647616351E+00 -0.32490949602E+02  0.43400717137E+02  0.00000000000E+00 0. -1.
         11    1    3    3    0    0 -0.15522453430E+02 -0.26134660797E+01  0.19768369400E+02  0.25269847535E+02  0.51100000000E-03 0.  1.
        -11    1    3    3    0    0  0.14496567950E+01 -0.21340137752E+01  0.45828588462E+01  0.52590983145E+01  0.51100000000E-03 0. -1.
        -12    1    3    3    0    0 -0.14691026594E+02  0.39710036914E+01  0.81397213555E+01  0.17258337013E+02  0.00000000000E+00 0.  1.
</event>
<event>
 7    1  0.1418970E-010  0.4778727E+02  0.7816164E-02  0.1312668E+00
        -11   -1    0    0    0    0  0.00000000000E+00  0.00000000000E+00  0.45593999997E+02  0.45594000000E+02  0.51100000000E-03 0. -1.
         11   -1    0    0    0    0 -0.00000000000E+00 -0.00000000000E+00 -0.45593999997E+02  0.45594000000E+02  0.51100000000E-03 0.  1.
    9900012    2    1    2    0    0 -0.16569460718E+02  0.40101656279E+02 -0.96619368578E+00  0.47787269648E+02  0.19999993633E+02 0.  0.
         12    1    1    2    0    0  0.16569460718E+02 -0.40101656279E+02  0.96619368578E+00  0.43400730352E+02  0.00000000000E+00 0. -1.
         11    1    3    3    0    0 -0.12573321691E+01  0.17919341477E+02  0.82592597609E+00  0.17982375736E+02  0.51100000000E-03 0. -1.
        -11    1    3    3    0    0 -0.10355956927E+02  0.15275022950E+02 -0.71104065184E+01  0.19777008144E+02  0.51100000000E-03 0.  1.
         12    1    3    3    0    0 -0.49561716226E+01  0.69072918528E+01  0.53182868566E+01  0.10027885768E+02  0.00000000000E+00 0. -1.
</event>
<event>
 7    1  0.1418970E-010  0.4778727E+02  0.7816164E-02  0.1312668E+00
        -11   -1    0    0    0    0  0.00000000000E+00  0.00000000000E+00  0.45593999997E+02  0.45594000000E+02  0.51100000000E-03 0.  1.
         11   -1    0    0    0    0 -0.00000000000E+00 -0.00000000000E+00 -0.45593999997E+02  0.45594000000E+02  0.51100000000E-03 0. -1.
    9900012    2    1    2    0    0 -0.20118615460E+01 -0.41834678179E+02  0.11376967942E+02  0.47787270918E+02  0.19999999426E+02 0.  0.
         12    1    1    2    0    0  0.20118615460E+01  0.41834678179E+02 -0.11376967942E+02  0.43400729082E+02  0.00000000000E+00 0. -1.
         11    1    3    3    0    0  0.18093067037E+01 -0.10172038698E+00  0.13868700186E+01  0.22819611072E+01  0.51100000000E-03 0. -1.
        -11    1    3    3    0    0  0.54957922157E+00 -0.37790274745E+02  0.11354377720E+02  0.39463005414E+02  0.51100000000E-03 0.  1.
         12    1    3    3    0    0 -0.43707474713E+01 -0.39426830475E+01 -0.13642797962E+01  0.60423043976E+01  0.00000000000E+00 0. -1.
</event>
<event>
 7    1  0.1418970E-010  0.4778727E+02  0.7816164E-02  0.1312668E+00
        -11   -1    0    0    0    0  0.00000000000E+00  0.00000000000E+00  0.45593999997E+02  0.45594000000E+02  0.51100000000E-03 0. -1.
         11   -1    0    0    0    0 -0.00000000000E+00 -0.00000000000E+00 -0.45593999997E+02  0.45594000000E+02  0.51100000000E-03 0.  1.
    9900012    2    1    2    0    0 -0.41638382462E+02 -0.85358184567E+01  0.87754301062E+01  0.47787271154E+02  0.20000000500E+02 0.  0.
         12    1    1    2    0    0  0.41638382462E+02  0.85358184567E+01 -0.87754301062E+01  0.43400728846E+02  0.00000000000E+00 0. -1.
         11    1    3    3    0    0 -0.82056967305E+01  0.15173561140E+01  0.45867059946E+01  0.95222739170E+01  0.51100000000E-03 0. -1.
        -11    1    3    3    0    0 -0.10227379630E+02 -0.25218948560E+01 -0.56566798629E+01  0.11956474192E+02  0.51100000000E-03 0.  1.
        -12    1    3    3    0    0 -0.23205306101E+02 -0.75312797146E+01  0.98454039745E+01  0.26308523045E+02  0.00000000000E+00 0.  1.
</event>
<event>
 7    1  0.1418970E-010  0.4778726E+02  0.7816164E-02  0.1312668E+00
        -11   -1    0    0    0    0  0.00000000000E+00  0.00000000000E+00  0.45593999997E+02  0.45594000000E+02  0.51100000000E-03 0.  1.
         11   -1    0    0    0    0 -0.00000000000E+00 -0.00000000000E+00 -0.45593999997E+02  0.45594000000E+02  0.51100000000E-03 0. -1.
    9900012    2    1    2    0    0  0.31784692195E+00  0.27510301219E+02  0.33566443217E+02  0.47787264867E+02  0.19999971836E+02 0.  0.
         12    1    1    2    0    0 -0.31784692195E+00 -0.27510301219E+02 -0.33566443217E+02  0.43400735133E+02  0.00000000000E+00 0. -1.
         11    1    3    3    0    0  0.31073558151E+01  0.18635701619E+02  0.17274185046E+02  0.25599658284E+02  0.51100000000E-03 0. -1.
        -11    1    3    3    0    0  0.36329906644E+01  0.75899708763E-01  0.17927097534E+01  0.40519366301E+01  0.51100000000E-03 0.  1.
         12    1    3    3    0    0 -0.64224995575E+01  0.87986998907E+01  0.14499548418E+02  0.18135669953E+02  0.00000000000E+00 0. -1.
</event>
<event>
 7    1  0.1418970E-010  0.4778727E+02  0.7816164E-02  0.1312668E+00
        -11   -1    0    0    0    0  0.00000000000E+00  0.00000000000E+00  0.45593999997E+02  0.45594000000E+02  0.51100000000E-03 0. -1.
         11   -1    0    0    0    0 -0.00000000000E+00 -0.00000000000E+00 -0.45593999997E+02  0.45594000000E+02  0.51100000000E-03 0.  1.
    9900012    2    1    2    0    0  0.24543592749E+02  0.27441432673E+02 -0.22982673204E+02  0.47787269133E+02  0.19999991285E+02 0.  0.
         12    1    1    2    0    0 -0.24543592749E+02 -0.27441432673E+02  0.22982673204E+02  0.43400730867E+02  0.00000000000E+00 0. -1.
         11    1    3    3    0    0  0.79636433953E+01  0.22760582942E+01 -0.10511739578E+02  0.13382702519E+02  0.51100000000E-03 0. -1.
        -11    1    3    3    0    0  0.95843001397E+01  0.10565071734E+02 -0.11253282767E+02  0.18169092526E+02  0.51100000000E-03 0.  1.
         12    1    3    3    0    0  0.69956492143E+01  0.14600302645E+02 -0.12176508580E+01  0.16235474088E+02  0.00000000000E+00 0. -1.
</event>
<event>
 7    1  0.1418970E-010  0.4778728E+02  0.7816164E-02  0.1312668E+00
        -11   -1    0    0    0    0  0.00000000000E+00  0.00000000000E+00  0.45593999997E+02  0.45594000000E+02  0.51100000000E-03 0. -1.
         11   -1    0    0    0    0 -0.00000000000E+00 -0.00000000000E+00 -0.45593999997E+02  0.45594000000E+02  0.51100000000E-03 0.  1.
    9900012    2    1    2    0    0  0.20224834557E+02  0.32308120196E+02 -0.20754845943E+02  0.47787283490E+02  0.20000056745E+02 0.  0.
         12    1    1    2    0    0 -0.20224834557E+02 -0.32308120196E+02  0.20754845943E+02  0.43400716510E+02  0.00000000000E+00 0. -1.
         11    1    3    3    0    0 -0.13926726382E+01  0.38508723513E+01 -0.12301998190E+00  0.40968145089E+01  0.51100000000E-03 0. -1.
        -11    1    3    3    0    0  0.18705141853E+02  0.27160983886E+02 -0.22567354144E+02  0.39961066686E+02  0.51100000000E-03 0.  1.
         12    1    3    3    0    0  0.29123653422E+01  0.12962639584E+01  0.19355281821E+01  0.37294022953E+01  0.00000000000E+00 0. -1.
</event>
<event>
 7    1  0.1418970E-010  0.4778727E+02  0.7816164E-02  0.1312668E+00
        -11   -1    0    0    0    0  0.00000000000E+00  0.00000000000E+00  0.45593999997E+02  0.45594000000E+02  0.51100000000E-03 0. -1.
         11   -1    0    0    0    0 -0.00000000000E+00 -0.00000000000E+00 -0.45593999997E+02  0.45594000000E+02  0.51100000000E-03 0.  1.
    9900012    2    1    2    0    0  0.72062028677E+01 -0.42128151446E+02 -0.75440470421E+01  0.47787272473E+02  0.20000006516E+02 0.  0.
         12    1    1    2    0    0 -0.72062028677E+01  0.42128151446E+02  0.75440470421E+01  0.43400727527E+02  0.00000000000E+00 0. -1.
         11    1    3    3    0    0 -0.21521694709E+01 -0.12312734038E+02  0.54282880690E+01  0.13627236130E+02  0.51100000000E-03 0. -1.
        -11    1    3    3    0    0  0.20759903407E+00 -0.12277626906E+01 -0.16767545935E+01  0.20885413119E+01  0.51100000000E-03 0.  1.
         12    1    3    3    0    0  0.91507733046E+01 -0.28587654718E+02 -0.11295580518E+02  0.32071495031E+02  0.00000000000E+00 0. -1.
</event>
<event>
 7    1  0.1418970E-010  0.4778727E+02  0.7816164E-02  0.1312668E+00
        -11   -1    0    0    0    0  0.00000000000E+00  0.00000000000E+00  0.45593999997E+02  0.45594000000E+02  0.51100000000E-03 0.  1.
         11   -1    0    0    0    0 -0.00000000000E+00 -0.00000000000E+00 -0.45593999997E+02  0.45594000000E+02  0.51100000000E-03 0. -1.
    9900012    2    1    2    0    0  0.12656589092E+02  0.18337199314E+02  0.37244878921E+02  0.47787272679E+02  0.20000007452E+02 0.  0.
         12    1    1    2    0    0 -0.12656589092E+02 -0.18337199314E+02 -0.37244878921E+02  0.43400727321E+02  0.00000000000E+00 0. -1.
         11    1    3    3    0    0  0.49034740644E+00  0.12139715219E+02  0.11165567496E+02  0.16501000696E+02  0.51100000000E-03 0. -1.
        -11    1    3    3    0    0 -0.31929572613E+00 -0.42998043504E+00  0.94320444912E+01  0.94472375052E+01  0.51100000000E-03 0.  1.
         12    1    3    3    0    0  0.12485537412E+02  0.66274645300E+01  0.16647266934E+02  0.21839034478E+02  0.00000000000E+00 0. -1.
</event>
<event>
 7    1  0.1418970E-010  0.4778727E+02  0.7816164E-02  0.1312668E+00
        -11   -1    0    0    0    0  0.00000000000E+00  0.00000000000E+00  0.45593999997E+02  0.45594000000E+02  0.51100000000E-03 0.  1.
         11   -1    0    0    0    0 -0.00000000000E+00 -0.00000000000E+00 -0.45593999997E+02  0.45594000000E+02  0.51100000000E-03 0. -1.
    9900012    2    1    2    0    0 -0.24846373978E+02 -0.17945821593E+01  0.35539560567E+02  0.47787272007E+02  0.20000004390E+02 0.  0.
         12    1    1    2    0    0  0.24846373978E+02  0.17945821593E+01 -0.35539560567E+02  0.43400727993E+02  0.00000000000E+00 0. -1.
         11    1    3    3    0    0 -0.87743323867E+01 -0.48568069554E+01  0.18916707772E+02  0.21410728988E+02  0.51100000000E-03 0. -1.
        -11    1    3    3    0    0 -0.51056699587E+01 -0.16052100146E+00  0.13637802087E+02  0.14563079302E+02  0.51100000000E-03 0.  1.
         12    1    3    3    0    0 -0.10966371633E+02  0.32227457975E+01  0.29850507082E+01  0.11813463717E+02  0.00000000000E+00 0. -1.
</event>
<event>
 7    1  0.1418970E-010  0.4778728E+02  0.7816164E-02  0.1312668E+00
        -11   -1    0    0    0    0  0.00000000000E+00  0.00000000000E+00  0.45593999997E+02  0.45594000000E+02  0.51100000000E-03 0.  1.
         11   -1    0    0    0    0 -0.00000000000E+00 -0.00000000000E+00 -0.45593999997E+02  0.45594000000E+02  0.51100000000E-03 0. -1.
    9900012    2    1    2    0    0  0.13576040651E+02 -0.28885428558E+02  0.29409957650E+02  0.47787280285E+02  0.20000042133E+02 0.  0.
         12    1    1    2    0    0 -0.13576040651E+02  0.28885428558E+02 -0.29409957650E+02  0.43400719715E+02  0.00000000000E+00 0. -1.
         11    1    3    3    0    0 -0.41529702284E+00 -0.53731110494E+01  0.10330745986E+02  0.11651914300E+02  0.51100000000E-03 0. -1.
        -11    1    3    3    0    0  0.24083787388E+01 -0.66119331266E+00  0.77144562096E+01  0.81086558453E+01  0.51100000000E-03 0.  1.
        -12    1    3    3    0    0  0.11582958935E+02 -0.22851124196E+02  0.11364755455E+02  0.28026710140E+02  0.00000000000E+00 0.  1.
</event>
<event>
 7    1  0.1418970E-010  0.4778727E+02  0.7816164E-02  0.1312668E+00
        -11   -1    0    0    0    0  0.00000000000E+00  0.00000000000E+00  0.45593999997E+02  0.45594000000E+02  0.51100000000E-03 0.  1.
         11   -1    0    0    0    0 -0.00000000000E+00 -0.00000000000E+00 -0.45593999997E+02  0.45594000000E+02  0.51100000000E-03 0. -1.
    9900012    2    1    2    0    0  0.32356639368E+02 -0.19710969744E+02  0.21169528423E+02  0.47787269902E+02  0.19999994792E+02 0.  0.
         12    1    1    2    0    0 -0.32356639368E+02  0.19710969744E+02 -0.21169528423E+02  0.43400730098E+02  0.00000000000E+00 0. -1.
         11    1    3    3    0    0  0.28627533301E+02 -0.11851358867E+02  0.11623717649E+02  0.33092313037E+02  0.51100000000E-03 0. -1.
        -11    1    3    3    0    0 -0.16394670021E+01 -0.32919849334E+00  0.46910700904E+00  0.17367456192E+01  0.51100000000E-03 0.  1.
        -12    1    3    3    0    0  0.53685730683E+01 -0.75304123836E+01  0.90767037649E+01  0.12958211246E+02  0.00000000000E+00 0.  1.
</event>
<event>
 7    1  0.1418970E-010  0.4778728E+02  0.7816164E-02  0.1312668E+00
        -11   -1    0    0    0    0  0.00000000000E+00  0.00000000000E+00  0.45593999997E+02  0.45594000000E+02  0.51100000000E-03 0.  1.
         11   -1    0    0    0    0 -0.00000000000E+00 -0.00000000000E+00 -0.45593999997E+02  0.45594000000E+02  0.51100000000E-03 0. -1.
    9900012    2    1    2    0    0 -0.20926728026E+02  0.34882373518E+02 -0.15129927909E+02  0.47787278271E+02  0.20000032947E+02 0.  0.
         12    1    1    2    0    0  0.20926728026E+02 -0.34882373518E+02  0.15129927909E+02  0.43400721729E+02  0.00000000000E+00 0. -1.
         11    1    3    3    0    0 -0.93379068404E+01  0.11311199498E+02 -0.74102113346E+01  0.16433227636E+02  0.51100000000E-03 0. -1.
        -11    1    3    3    0    0 -0.59532959312E+01  0.97638887252E+01  0.42823038712E+01  0.12211199048E+02  0.51100000000E-03 0.  1.
        -12    1    3    3    0    0 -0.56355252543E+01  0.13807285294E+02 -0.12002020446E+02  0.19142851587E+02  0.00000000000E+00 0.  1.
</event>
<event>
 7    1  0.1418970E-010  0.4778727E+02  0.7816164E-02  0.1312668E+00
        -11   -1    0    0    0    0  0.00000000000E+00  0.00000000000E+00  0.45593999997E+02  0.45594000000E+02  0.51100000000E-03 0. -1.
         11   -1    0    0    0    0 -0.00000000000E+00 -0.00000000000E+00 -0.45593999997E+02  0.45594000000E+02  0.51100000000E-03 0.  1.
    9900012    2    1    2    0    0 -0.29982082159E+02  0.31046871065E+02  0.45595540572E+01  0.47787274352E+02  0.20000015083E+02 0.  0.
         12    1    1    2    0    0  0.29982082159E+02 -0.31046871065E+02 -0.45595540572E+01  0.43400725648E+02  0.00000000000E+00 0. -1.
         11    1    3    3    0    0 -0.16396678114E+02  0.21159434409E+02  0.18229570567E+01  0.26830875692E+02  0.51100000000E-03 0.  1.
        -11    1    3    3    0    0 -0.13034245472E+02  0.54765743015E+01 -0.22057983032E+01  0.14309086886E+02  0.51100000000E-03 0. -1.
        -12    1    3    3    0    0 -0.55115857240E+00  0.44108623546E+01  0.49423953037E+01  0.66473117740E+01  0.00000000000E+00 0.  1.
</event>
<event>
 7    1  0.1418970E-010  0.4778727E+02  0.7816164E-02  0.1312668E+00
        -11   -1    0    0    0    0  0.00000000000E+00  0.00000000000E+00  0.45593999997E+02  0.45594000000E+02  0.51100000000E-03 0. -1.
         11   -1    0    0    0    0 -0.00000000000E+00 -0.00000000000E+00 -0.45593999997E+02  0.45594000000E+02  0.51100000000E-03 0.  1.
    9900012    2    1    2    0    0 -0.15898083012E+02 -0.39508417496E+02 -0.83641596246E+01  0.47787271173E+02  0.20000000585E+02 0.  0.
         12    1    1    2    0    0  0.15898083012E+02  0.39508417496E+02  0.83641596246E+01  0.43400728827E+02  0.00000000000E+00 0. -1.
         11    1    3    3    0    0 -0.14892846880E+01  0.17537696680E+01 -0.55195472919E+00  0.23660792917E+01  0.51100000000E-03 0. -1.
        -11    1    3    3    0    0  0.16788320674E+00 -0.11964216421E+02 -0.30940065454E+01  0.12358945590E+02  0.51100000000E-03 0.  1.
        -12    1    3    3    0    0 -0.14576681531E+02 -0.29297970743E+02 -0.47181983500E+01  0.33062246291E+02  0.00000000000E+00 0.  1.
</event>
<event>
 7    1  0.1418970E-010  0.4778726E+02  0.7816164E-02  0.1312668E+00
        -11   -1    0    0    0    0  0.00000000000E+00  0.00000000000E+00  0.45593999997E+02  0.45594000000E+02  0.51100000000E-03 0. -1.
         11   -1    0    0    0    0 -0.00000000000E+00 -0.00000000000E+00 -0.45593999997E+02  0.45594000000E+02  0.51100000000E-03 0.  1.
    9900012    2    1    2    0    0  0.42204082084E+02  0.36698179906E+01 -0.94324922142E+01  0.47787262471E+02  0.19999960911E+02 0.  0.
         12    1    1    2    0    0 -0.42204082084E+02 -0.36698179906E+01  0.94324922142E+01  0.43400737529E+02  0.00000000000E+00 0. -1.
         11    1    3    3    0    0  0.97709732900E+01 -0.13597200060E+01 -0.89829889515E+01  0.13342220516E+02  0.51100000000E-03 0. -1.
        -11    1    3    3    0    0  0.20296732448E+02 -0.20243987128E+01  0.80597587216E-01  0.20397598742E+02  0.51100000000E-03 0.  1.
        -12    1    3    3    0    0  0.12136376346E+02  0.70539367093E+01 -0.53010084992E+00  0.14047443213E+02  0.00000000000E+00 0.  1.
</event>
<event>
 7    1  0.1418970E-010  0.4778726E+02  0.7816164E-02  0.1312668E+00
        -11   -1    0    0    0    0  0.00000000000E+00  0.00000000000E+00  0.45593999997E+02  0.45594000000E+02  0.51100000000E-03 0.  1.
         11   -1    0    0    0    0 -0.00000000000E+00 -0.00000000000E+00 -0.45593999997E+02  0.45594000000E+02  0.51100000000E-03 0. -1.
    9900012    2    1    2    0    0  0.18298570279E+02 -0.37157044500E+02  0.12966889106E+02  0.47787264484E+02  0.19999970087E+02 0.  0.
         12    1    1    2    0    0 -0.18298570279E+02  0.37157044500E+02 -0.12966889106E+02  0.43400735516E+02  0.00000000000E+00 0. -1.
         11    1    3    3    0    0  0.18981586549E+00 -0.63610870308E+01 -0.23257098553E+01  0.67755726598E+01  0.51100000000E-03 0. -1.
        -11    1    3    3    0    0  0.62886759070E+01 -0.85662743340E+01 -0.15234409640E+01  0.10735426087E+02  0.51100000000E-03 0.  1.
        -12    1    3    3    0    0  0.11820078507E+02 -0.22229683136E+02  0.16816039926E+02  0.30276265737E+02  0.00000000000E+00 0.  1.
</event>
<event>
 7    1  0.1418970E-010  0.4778727E+02  0.7816164E-02  0.1312668E+00
        -11   -1    0    0    0    0  0.00000000000E+00  0.00000000000E+00  0.45593999997E+02  0.45594000000E+02  0.51100000000E-03 0.  1.
         11   -1    0    0    0    0 -0.00000000000E+00 -0.00000000000E+00 -0.45593999997E+02  0.45594000000E+02  0.51100000000E-03 0. -1.
    9900012    2    1    2    0    0  0.15147734408E+02 -0.38680586355E+02  0.12569063181E+02  0.47787274571E+02  0.20000016081E+02 0.  0.
         12    1    1    2    0    0 -0.15147734408E+02  0.38680586355E+02 -0.12569063181E+02  0.43400725429E+02  0.00000000000E+00 0. -1.
         11    1    3    3    0    0  0.18461444268E+01 -0.61162157339E+01 -0.38463214469E+01  0.74572470176E+01  0.51100000000E-03 0. -1.
        -11    1    3    3    0    0  0.39832765221E+00 -0.68647770498E+01  0.76069853588E+01  0.10254270104E+02  0.51100000000E-03 0.  1.
        -12    1    3    3    0    0  0.12903262329E+02 -0.25699593572E+02  0.88083992692E+01  0.30075757449E+02  0.00000000000E+00 0.  1.
</event>
<event>
 7    1  0.1418970E-010  0.4778727E+02  0.7816164E-02  0.1312668E+00
        -11   -1    0    0    0    0  0.00000000000E+00  0.00000000000E+00  0.45593999997E+02  0.45594000000E+02  0.51100000000E-03 0. -1.
         11   -1    0    0    0    0 -0.00000000000E+00 -0.00000000000E+00 -0.45593999997E+02  0.45594000000E+02  0.51100000000E-03 0.  1.
    9900012    2    1    2    0    0 -0.33079743536E+02 -0.20133367197E+02 -0.19595956105E+02  0.47787269560E+02  0.19999993232E+02 0.  0.
         12    1    1    2    0    0  0.33079743536E+02  0.20133367197E+02  0.19595956105E+02  0.43400730440E+02  0.00000000000E+00 0. -1.
         11    1    3    3    0    0 -0.70264048554E+01 -0.11062210109E+02 -0.14614735641E+01  0.13186309678E+02  0.51100000000E-03 0. -1.
        -11    1    3    3    0    0 -0.48397174912E+01  0.85502610638E+00 -0.72879334840E+01  0.87902167076E+01  0.51100000000E-03 0.  1.
        -12    1    3    3    0    0 -0.21213621189E+02 -0.99261831937E+01 -0.10846549056E+02  0.25810743174E+02  0.00000000000E+00 0.  1.
</event>
<event>
 7    1  0.1418970E-010  0.4778727E+02  0.7816164E-02  0.1312668E+00
        -11   -1    0    0    0    0  0.00000000000E+00  0.00000000000E+00  0.45593999997E+02  0.45594000000E+02  0.51100000000E-03 0. -1.
         11   -1    0    0    0    0 -0.00000000000E+00 -0.00000000000E+00 -0.45593999997E+02  0.45594000000E+02  0.51100000000E-03 0.  1.
    9900012    2    1    2    0    0 -0.18880521641E+02 -0.23143259816E+02 -0.31488712585E+02  0.47787267372E+02  0.19999983257E+02 0.  0.
         12    1    1    2    0    0  0.18880521641E+02  0.23143259816E+02  0.31488712585E+02  0.43400732628E+02  0.00000000000E+00 0. -1.
         11    1    3    3    0    0  0.18795396071E+00  0.92195345927E+00 -0.34672331442E+01  0.35926356355E+01  0.51100000000E-03 0. -1.
        -11    1    3    3    0    0 -0.10406553996E+02 -0.18230231014E+02 -0.97417224633E+01  0.23141712247E+02  0.51100000000E-03 0.  1.
        -12    1    3    3    0    0 -0.86619216061E+01 -0.58349822615E+01 -0.18279756978E+02  0.21052919490E+02  0.00000000000E+00 0.  1.
</event>
<event>
 7    1  0.1418970E-010  0.4778727E+02  0.7816164E-02  0.1312668E+00
        -11   -1    0    0    0    0  0.00000000000E+00  0.00000000000E+00  0.45593999997E+02  0.45594000000E+02  0.51100000000E-03 0.  1.
         11   -1    0    0    0    0 -0.00000000000E+00 -0.00000000000E+00 -0.45593999997E+02  0.45594000000E+02  0.51100000000E-03 0. -1.
    9900012    2    1    2    0    0  0.13053510614E+02 -0.36230637510E+02  0.20014250240E+02  0.47787269057E+02  0.19999990937E+02 0.  0.
         12    1    1    2    0    0 -0.13053510614E+02  0.36230637510E+02 -0.20014250240E+02  0.43400730943E+02  0.00000000000E+00 0. -1.
         11    1    3    3    0    0 -0.21018169199E+01 -0.54784822342E+01  0.17099099024E+01  0.61118895679E+01  0.51100000000E-03 0. -1.
        -11    1    3    3    0    0  0.12569016263E+02 -0.16521964230E+02  0.36356311602E+01  0.21075419000E+02  0.51100000000E-03 0.  1.
        -12    1    3    3    0    0  0.25863112709E+01 -0.14230191046E+02  0.14668709178E+02  0.20599960489E+02  0.00000000000E+00 0.  1.
</event>
<event>
 7    1  0.1418970E-010  0.4778727E+02  0.7816164E-02  0.1312668E+00
        -11   -1    0    0    0    0  0.00000000000E+00  0.00000000000E+00  0.45593999997E+02  0.45594000000E+02  0.51100000000E-03 0.  1.
         11   -1    0    0    0    0 -0.00000000000E+00 -0.00000000000E+00 -0.45593999997E+02  0.45594000000E+02  0.51100000000E-03 0. -1.
    9900012    2    1    2    0    0  0.17988929914E+02  0.38487463605E+02  0.88733908322E+01  0.47787268219E+02  0.19999987119E+02 0.  0.
         12    1    1    2    0    0 -0.17988929914E+02 -0.38487463605E+02 -0.88733908322E+01  0.43400731781E+02  0.00000000000E+00 0. -1.
         11    1    3    3    0    0 -0.12770922865E+01  0.79632210837E+00  0.26730052018E+01  0.30675805904E+01  0.51100000000E-03 0. -1.
        -11    1    3    3    0    0  0.75130783023E+01  0.26419611205E+02  0.72303759605E+01  0.28402826243E+02  0.51100000000E-03 0.  1.
        -12    1    3    3    0    0  0.11752943899E+02  0.11271530292E+02 -0.10299903301E+01  0.16316861386E+02  0.00000000000E+00 0.  1.
</event>
<event>
 7    1  0.1418970E-010  0.4778727E+02  0.7816164E-02  0.1312668E+00
        -11   -1    0    0    0    0  0.00000000000E+00  0.00000000000E+00  0.45593999997E+02  0.45594000000E+02  0.51100000000E-03 0.  1.
         11   -1    0    0    0    0 -0.00000000000E+00 -0.00000000000E+00 -0.45593999997E+02  0.45594000000E+02  0.51100000000E-03 0. -1.
    9900012    2    1    2    0    0 -0.12542507869E+02  0.36697423066E+02  0.19483542081E+02  0.47787265267E+02  0.19999973658E+02 0.  0.
         12    1    1    2    0    0  0.12542507869E+02 -0.36697423066E+02 -0.19483542081E+02  0.43400734733E+02  0.00000000000E+00 0. -1.
         11    1    3    3    0    0 -0.48460569854E+01  0.16206708211E+02  0.14640096546E+02  0.22371278159E+02  0.51100000000E-03 0.  1.
        -11    1    3    3    0    0 -0.10288766267E+02  0.19570792590E+02  0.36176030855E+01  0.22404501473E+02  0.51100000000E-03 0. -1.
         12    1    3    3    0    0  0.25923153829E+01  0.91992226538E+00  0.12258424501E+01  0.30114856353E+01  0.00000000000E+00 0. -1.
</event>
<event>
 7    1  0.1418970E-010  0.4778727E+02  0.7816164E-02  0.1312668E+00
        -11   -1    0    0    0    0  0.00000000000E+00  0.00000000000E+00  0.45593999997E+02  0.45594000000E+02  0.51100000000E-03 0.  1.
         11   -1    0    0    0    0 -0.00000000000E+00 -0.00000000000E+00 -0.45593999997E+02  0.45594000000E+02  0.51100000000E-03 0. -1.
    9900012    2    1    2    0    0 -0.16888318001E+02  0.36913291253E+02  0.15356322968E+02  0.47787274071E+02  0.20000013801E+02 0.  0.
         12    1    1    2    0    0  0.16888318001E+02 -0.36913291253E+02 -0.15356322968E+02  0.43400725929E+02  0.00000000000E+00 0. -1.
         11    1    3    3    0    0 -0.22567544590E+01  0.20660235167E+00 -0.15310991403E+01  0.27349387669E+01  0.51100000000E-03 0. -1.
        -11    1    3    3    0    0 -0.16527062953E+02  0.26833408213E+02  0.14647058209E+02  0.34752149871E+02  0.51100000000E-03 0.  1.
        -12    1    3    3    0    0  0.18954994115E+01  0.98732806883E+01  0.22403638984E+01  0.10300185434E+02  0.00000000000E+00 0.  1.
</event>
<event>
 7    1  0.1418970E-010  0.4778726E+02  0.7816164E-02  0.1312668E+00
        -11   -1    0    0    0    0  0.00000000000E+00  0.00000000000E+00  0.45593999997E+02  0.45594000000E+02  0.51100000000E-03 0. -1.
         11   -1    0    0    0    0 -0.00000000000E+00 -0.00000000000E+00 -0.45593999997E+02  0.45594000000E+02  0.51100000000E-03 0.  1.
    9900012    2    1    2    0    0 -0.12498601218E+02 -0.32531207766E+02 -0.25867539808E+02  0.47787261218E+02  0.19999955198E+02 0.  0.
         12    1    1    2    0    0  0.12498601218E+02  0.32531207766E+02  0.25867539808E+02  0.43400738782E+02  0.00000000000E+00 0. -1.
         11    1    3    3    0    0 -0.62146034711E+00 -0.18617623035E+02 -0.16582750181E+02  0.24939721415E+02  0.51100000000E-03 0.  1.
        -11    1    3    3    0    0 -0.34138594770E+00  0.15190407065E+01 -0.28953409307E+00  0.15836222042E+01  0.51100000000E-03 0. -1.
        -12    1    3    3    0    0 -0.11535754923E+02 -0.15432625438E+02 -0.89952555334E+01  0.21263917599E+02  0.00000000000E+00 0.  1.
</event>
<event>
 7    1  0.1418970E-010  0.4778727E+02  0.7816164E-02  0.1312668E+00
        -11   -1    0    0    0    0  0.00000000000E+00  0.00000000000E+00  0.45593999997E+02  0.45594000000E+02  0.51100000000E-03 0.  1.
         11   -1    0    0    0    0 -0.00000000000E+00 -0.00000000000E+00 -0.45593999997E+02  0.45594000000E+02  0.51100000000E-03 0. -1.
    9900012    2    1    2    0    0 -0.23032314465E+02  0.78414099142E+01  0.35939503221E+02  0.47787272923E+02  0.20000008563E+02 0.  0.
         12    1    1    2    0    0  0.23032314465E+02 -0.78414099142E+01 -0.35939503221E+02  0.43400727077E+02  0.00000000000E+00 0. -1.
         11    1    3    3    0    0 -0.12816564393E+02  0.11864817697E+02  0.14773632491E+02  0.22875717236E+02  0.51100000000E-03 0. -1.
        -11    1    3    3    0    0 -0.25534632813E+01 -0.22870618940E+01  0.15140074519E+01  0.37474051904E+01  0.51100000000E-03 0.  1.
        -12    1    3    3    0    0 -0.76622867910E+01 -0.17363458891E+01  0.19651863278E+02  0.21164150496E+02  0.00000000000E+00 0.  1.
</event>
<event>
 7    1  0.1418970E-010  0.4778727E+02  0.7816164E-02  0.1312668E+00
        -11   -1    0    0    0    0  0.00000000000E+00  0.00000000000E+00  0.45593999997E+02  0.45594000000E+02  0.51100000000E-03 0.  1.
         11   -1    0    0    0    0 -0.00000000000E+00 -0.00000000000E+00 -0.45593999997E+02  0.45594000000E+02  0.51100000000E-03 0. -1.
    9900012    2    1    2    0    0  0.25657554924E+02 -0.32375198558E+02  0.13310146210E+02  0.47787267305E+02  0.19999982949E+02 0.  0.
         12    1    1    2    0    0 -0.25657554924E+02  0.32375198558E+02 -0.13310146210E+02  0.43400732695E+02  0.00000000000E+00 0. -1.
         11    1    3    3    0    0  0.10723386614E+02 -0.17435813647E+02  0.39999505470E+01  0.20856611006E+02  0.51100000000E-03 0. -1.
        -11    1    3    3    0    0  0.13782012523E+02 -0.15039223912E+02  0.31235258116E+01  0.20636824824E+02  0.51100000000E-03 0.  1.
         12    1    3    3    0    0  0.11521557868E+01  0.99839000870E-01  0.61866698517E+01  0.62938314751E+01  0.00000000000E+00 0. -1.
</event>
<event>
 7    1  0.1418970E-010  0.4778727E+02  0.7816164E-02  0.1312668E+00
        -11   -1    0    0    0    0  0.00000000000E+00  0.00000000000E+00  0.45593999997E+02  0.45594000000E+02  0.51100000000E-03 0.  1.
         11   -1    0    0    0    0 -0.00000000000E+00 -0.00000000000E+00 -0.45593999997E+02  0.45594000000E+02  0.51100000000E-03 0. -1.
    9900012    2    1    2    0    0  0.15753626560E+02 -0.74776250605E+01  0.39743318010E+02  0.47787274743E+02  0.20000016864E+02 0.  0.
         12    1    1    2    0    0 -0.15753626560E+02  0.74776250605E+01 -0.39743318010E+02  0.43400725257E+02  0.00000000000E+00 0. -1.
         11    1    3    3    0    0  0.51080600227E+01 -0.49515067162E+01  0.19800822322E+01  0.73844716712E+01  0.51100000000E-03 0. -1.
        -11    1    3    3    0    0  0.10168256348E+01 -0.36359552695E+01  0.51890663626E+01  0.64172046149E+01  0.51100000000E-03 0.  1.
        -12    1    3    3    0    0  0.96287409026E+01  0.11098369252E+01  0.32574169416E+02  0.33985598457E+02  0.00000000000E+00 0.  1.
</event>
<event>
 7    1  0.1418970E-010  0.4778727E+02  0.7816164E-02  0.1312668E+00
        -11   -1    0    0    0    0  0.00000000000E+00  0.00000000000E+00  0.45593999997E+02  0.45594000000E+02  0.51100000000E-03 0.  1.
         11   -1    0    0    0    0 -0.00000000000E+00 -0.00000000000E+00 -0.45593999997E+02  0.45594000000E+02  0.51100000000E-03 0. -1.
    9900012    2    1    2    0    0 -0.33386726765E+02  0.26590331304E+02  0.78679416756E+01  0.47787265569E+02  0.19999975036E+02 0.  0.
         12    1    1    2    0    0  0.33386726765E+02 -0.26590331304E+02 -0.78679416756E+01  0.43400734431E+02  0.00000000000E+00 0. -1.
         11    1    3    3    0    0  0.39855430869E+00  0.29579135408E+01  0.51475948378E+00  0.30287085761E+01  0.51100000000E-03 0. -1.
        -11    1    3    3    0    0 -0.28941160016E+02  0.12908606134E+02  0.88361546181E+01  0.32898335582E+02  0.51100000000E-03 0.  1.
        -12    1    3    3    0    0 -0.48441210572E+01  0.10723811630E+02 -0.14829724263E+01  0.11860221411E+02  0.00000000000E+00 0.  1.
</event>
<event>
 7    1  0.1418970E-010  0.4778727E+02  0.7816164E-02  0.1312668E+00
        -11   -1    0    0    0    0  0.00000000000E+00  0.00000000000E+00  0.45593999997E+02  0.45594000000E+02  0.51100000000E-03 0.  1.
         11   -1    0    0    0    0 -0.00000000000E+00 -0.00000000000E+00 -0.45593999997E+02  0.45594000000E+02  0.51100000000E-03 0. -1.
    9900012    2    1    2    0    0  0.72647092565E+01 -0.34797336044E+02  0.24899651669E+02  0.47787271324E+02  0.20000001275E+02 0.  0.
         12    1    1    2    0    0 -0.72647092565E+01  0.34797336044E+02 -0.24899651669E+02  0.43400728676E+02  0.00000000000E+00 0. -1.
         11    1    3    3    0    0 -0.37705429576E+01 -0.17332574675E+02  0.13522149292E+02  0.22304341747E+02  0.51100000000E-03 0. -1.
        -11    1    3    3    0    0  0.82344822787E+01 -0.11594242311E+02  0.12437829449E+02  0.18892664048E+02  0.51100000000E-03 0.  1.
         12    1    3    3    0    0  0.28007699354E+01 -0.58705190583E+01 -0.10603270711E+01  0.65902655290E+01  0.00000000000E+00 0. -1.
</event>
<event>
 7    1  0.1418970E-010  0.4778727E+02  0.7816164E-02  0.1312668E+00
        -11   -1    0    0    0    0  0.00000000000E+00  0.00000000000E+00  0.45593999997E+02  0.45594000000E+02  0.51100000000E-03 0.  1.
         11   -1    0    0    0    0 -0.00000000000E+00 -0.00000000000E+00 -0.45593999997E+02  0.45594000000E+02  0.51100000000E-03 0. -1.
    9900012    2    1    2    0    0  0.28904464911E+02  0.27180553695E+02  0.17588988276E+02  0.47787273053E+02  0.20000009158E+02 0.  0.
         12    1    1    2    0    0 -0.28904464911E+02 -0.27180553695E+02 -0.17588988276E+02  0.43400726947E+02  0.00000000000E+00 0. -1.
         11    1    3    3    0    0  0.68799287773E+01  0.47134872076E+00  0.29259267964E+01  0.74911038890E+01  0.51100000000E-03 0. -1.
        -11    1    3    3    0    0  0.45174767723E+01  0.13222815313E+02  0.37113249141E+00  0.13978132235E+02  0.51100000000E-03 0.  1.
        -12    1    3    3    0    0  0.17507059361E+02  0.13486389661E+02  0.14291928989E+02  0.26318036929E+02  0.00000000000E+00 0.  1.
</event>
<event>
 7    1  0.1418970E-010  0.4778727E+02  0.7816164E-02  0.1312668E+00
        -11   -1    0    0    0    0  0.00000000000E+00  0.00000000000E+00  0.45593999997E+02  0.45594000000E+02  0.51100000000E-03 0.  1.
         11   -1    0    0    0    0 -0.00000000000E+00 -0.00000000000E+00 -0.45593999997E+02  0.45594000000E+02  0.51100000000E-03 0. -1.
    9900012    2    1    2    0    0 -0.58815444292E+01  0.35689269801E+02  0.23985555280E+02  0.47787269523E+02  0.19999993063E+02 0.  0.
         12    1    1    2    0    0  0.58815444292E+01 -0.35689269801E+02 -0.23985555280E+02  0.43400730477E+02  0.00000000000E+00 0. -1.
         11    1    3    3    0    0  0.39120243340E+01  0.13021762838E+02  0.12530031684E+01  0.13654312835E+02  0.51100000000E-03 0. -1.
        -11    1    3    3    0    0 -0.38442805497E+01  0.15676970517E+02  0.12733677852E+02  0.20559485632E+02  0.51100000000E-03 0.  1.
        -12    1    3    3    0    0 -0.59492882135E+01  0.69905364465E+01  0.99988742600E+01  0.13573471057E+02  0.00000000000E+00 0.  1.
</event>
<event>
 7    1  0.1418970E-010  0.4778728E+02  0.7816164E-02  0.1312668E+00
        -11   -1    0    0    0    0  0.00000000000E+00  0.00000000000E+00  0.45593999997E+02  0.45594000000E+02  0.51100000000E-03 0. -1.
         11   -1    0    0    0    0 -0.00000000000E+00 -0.00000000000E+00 -0.45593999997E+02  0.45594000000E+02  0.51100000000E-03 0.  1.
    9900012    2    1    2    0    0  0.60115637001E+01 -0.31603348732E+02 -0.29132664064E+02  0.47787278063E+02  0.20000031999E+02 0.  0.
         12    1    1    2    0    0 -0.60115637001E+01  0.31603348732E+02  0.29132664064E+02  0.43400721937E+02  0.00000000000E+00 0. -1.
         11    1    3    3    0    0  0.87080755533E+00 -0.53838520197E+01  0.24128155383E+01  0.59637108793E+01  0.51100000000E-03 0. -1.
        -11    1    3    3    0    0  0.21676417218E+01 -0.16480422294E+02 -0.14967598908E+02  0.22368102445E+02  0.51100000000E-03 0.  1.
        -12    1    3    3    0    0  0.29731144230E+01 -0.97390744177E+01 -0.16577880695E+02  0.19455464739E+02  0.00000000000E+00 0.  1.
</event>
<event>
 7    1  0.1418970E-010  0.4778727E+02  0.7816164E-02  0.1312668E+00
        -11   -1    0    0    0    0  0.00000000000E+00  0.00000000000E+00  0.45593999997E+02  0.45594000000E+02  0.51100000000E-03 0.  1.
         11   -1    0    0    0    0 -0.00000000000E+00 -0.00000000000E+00 -0.45593999997E+02  0.45594000000E+02  0.51100000000E-03 0. -1.
    9900012    2    1    2    0    0  0.11675441789E+02  0.18130744346E+02  0.37664086797E+02  0.47787271137E+02  0.20000000424E+02 0.  0.
         12    1    1    2    0    0 -0.11675441789E+02 -0.18130744346E+02 -0.37664086797E+02  0.43400728863E+02  0.00000000000E+00 0. -1.
         11    1    3    3    0    0  0.48326949250E+00 -0.13007445677E+01 -0.10727565238E+01  0.17539363310E+01  0.51100000000E-03 0. -1.
        -11    1    3    3    0    0  0.57477766596E+01  0.29942758365E+01  0.17317077339E+02  0.18490099842E+02  0.51100000000E-03 0.  1.
        -12    1    3    3    0    0  0.54443956370E+01  0.16437213078E+02  0.21419765982E+02  0.27543234965E+02  0.00000000000E+00 0.  1.
</event>
<event>
 7    1  0.1418970E-010  0.4778729E+02  0.7816164E-02  0.1312668E+00
        -11   -1    0    0    0    0  0.00000000000E+00  0.00000000000E+00  0.45593999997E+02  0.45594000000E+02  0.51100000000E-03 0.  1.
         11   -1    0    0    0    0 -0.00000000000E+00 -0.00000000000E+00 -0.45593999997E+02  0.45594000000E+02  0.51100000000E-03 0. -1.
    9900012    2    1    2    0    0 -0.14175259991E+02 -0.35086820969E+02  0.21250858321E+02  0.47787285940E+02  0.20000067917E+02 0.  0.
         12    1    1    2    0    0  0.14175259991E+02  0.35086820969E+02 -0.21250858321E+02  0.43400714060E+02  0.00000000000E+00 0. -1.
         11    1    3    3    0    0 -0.75946665806E+01 -0.65413845531E+01  0.13258730446E+01  0.10110717676E+02  0.51100000000E-03 0. -1.
        -11    1    3    3    0    0 -0.21246327493E+01 -0.59362228400E+00 -0.10539384515E+01  0.24448391064E+01  0.51100000000E-03 0.  1.
        -12    1    3    3    0    0 -0.44559606615E+01 -0.27951814132E+02  0.20978923728E+02  0.35231729158E+02  0.00000000000E+00 0.  1.
</event>
<event>
 7    1  0.1418970E-010  0.4778727E+02  0.7816164E-02  0.1312668E+00
        -11   -1    0    0    0    0  0.00000000000E+00  0.00000000000E+00  0.45593999997E+02  0.45594000000E+02  0.51100000000E-03 0. -1.
         11   -1    0    0    0    0 -0.00000000000E+00 -0.00000000000E+00 -0.45593999997E+02  0.45594000000E+02  0.51100000000E-03 0.  1.
    9900012    2    1    2    0    0 -0.21855266388E+02  0.31204865557E+02 -0.20790067742E+02  0.47787271665E+02  0.20000002828E+02 0.  0.
         12    1    1    2    0    0  0.21855266388E+02 -0.31204865557E+02  0.20790067742E+02  0.43400728335E+02  0.00000000000E+00 0. -1.
         11    1    3    3    0    0 -0.78716083397E+00  0.60745753241E+01 -0.14903312391E+01  0.63040602004E+01  0.51100000000E-03 0. -1.
        -11    1    3    3    0    0 -0.23839744932E+02  0.21257690584E+02 -0.16363627778E+02  0.35888593755E+02  0.51100000000E-03 0.  1.
        -12    1    3    3    0    0  0.27716393772E+01  0.38725996479E+01 -0.29361087245E+01  0.55946177093E+01  0.00000000000E+00 0.  1.
</event>
<event>
 7    1  0.1418970E-010  0.4778727E+02  0.7816164E-02  0.1312668E+00
        -11   -1    0    0    0    0  0.00000000000E+00  0.00000000000E+00  0.45593999997E+02  0.45594000000E+02  0.51100000000E-03 0.  1.
         11   -1    0    0    0    0 -0.00000000000E+00 -0.00000000000E+00 -0.45593999997E+02  0.45594000000E+02  0.51100000000E-03 0. -1.
    9900012    2    1    2    0    0  0.40901176338E+02 -0.11926778836E+02 -0.82745958379E+01  0.47787271717E+02  0.20000003066E+02 0.  0.
         12    1    1    2    0    0 -0.40901176338E+02  0.11926778836E+02  0.82745958379E+01  0.43400728283E+02  0.00000000000E+00 0. -1.
         11    1    3    3    0    0  0.93136130376E+01  0.29151929921E+01 -0.43011743297E+01  0.10664981897E+02  0.51100000000E-03 0. -1.
        -11    1    3    3    0    0  0.26163814099E+02 -0.11635974516E+02 -0.78925084104E+01  0.29702403277E+02  0.51100000000E-03 0.  1.
        -12    1    3    3    0    0  0.54237492011E+01 -0.32059973118E+01  0.39190869023E+01  0.74198865428E+01  0.00000000000E+00 0.  1.
</event>
<event>
 7    1  0.1418970E-010  0.4778727E+02  0.7816164E-02  0.1312668E+00
        -11   -1    0    0    0    0  0.00000000000E+00  0.00000000000E+00  0.45593999997E+02  0.45594000000E+02  0.51100000000E-03 0.  1.
         11   -1    0    0    0    0 -0.00000000000E+00 -0.00000000000E+00 -0.45593999997E+02  0.45594000000E+02  0.51100000000E-03 0. -1.
    9900012    2    1    2    0    0 -0.24827682404E+02  0.13748536839E+02  0.32835760239E+02  0.47787271558E+02  0.20000002344E+02 0.  0.
         12    1    1    2    0    0  0.24827682404E+02 -0.13748536839E+02 -0.32835760239E+02  0.43400728442E+02  0.00000000000E+00 0. -1.
         11    1    3    3    0    0 -0.34387601094E+01 -0.13843256952E+01  0.16498932324E+02  0.16910239407E+02  0.51100000000E-03 0. -1.
        -11    1    3    3    0    0 -0.14247309665E+02  0.10083165129E+02  0.10937629863E+02  0.20598247474E+02  0.51100000000E-03 0.  1.
         12    1    3    3    0    0 -0.71416126299E+01  0.50496974050E+01  0.53991980518E+01  0.10278784677E+02  0.00000000000E+00 0. -1.
</event>
<event>
 7    1  0.1418970E-010  0.4778727E+02  0.7816164E-02  0.1312668E+00
        -11   -1    0    0    0    0  0.00000000000E+00  0.00000000000E+00  0.45593999997E+02  0.45594000000E+02  0.51100000000E-03 0. -1.
         11   -1    0    0    0    0 -0.00000000000E+00 -0.00000000000E+00 -0.45593999997E+02  0.45594000000E+02  0.51100000000E-03 0.  1.
    9900012    2    1    2    0    0 -0.23527533665E+01  0.37956129416E+02 -0.20914594485E+02  0.47787268772E+02  0.19999989639E+02 0.  0.
         12    1    1    2    0    0  0.23527533665E+01 -0.37956129416E+02  0.20914594485E+02  0.43400731228E+02  0.00000000000E+00 0. -1.
         11    1    3    3    0    0 -0.66877716815E+01  0.14764066911E+02 -0.10341123233E+02  0.19226096635E+02  0.51100000000E-03 0. -1.
        -11    1    3    3    0    0  0.51317987843E+01  0.20305608205E+02 -0.13048556678E+02  0.24676262176E+02  0.51100000000E-03 0.  1.
         12    1    3    3    0    0 -0.79678046925E+00  0.28864543002E+01  0.24750854262E+01  0.38849099617E+01  0.00000000000E+00 0. -1.
</event>
<event>
 7    1  0.1418970E-010  0.4778727E+02  0.7816164E-02  0.1312668E+00
        -11   -1    0    0    0    0  0.00000000000E+00  0.00000000000E+00  0.45593999997E+02  0.45594000000E+02  0.51100000000E-03 0. -1.
         11   -1    0    0    0    0 -0.00000000000E+00 -0.00000000000E+00 -0.45593999997E+02  0.45594000000E+02  0.51100000000E-03 0.  1.
    9900012    2    1    2    0    0  0.71706385193E+01  0.21994412451E+02 -0.36721264723E+02  0.47787268224E+02  0.19999987141E+02 0.  0.
         12    1    1    2    0    0 -0.71706385193E+01 -0.21994412451E+02  0.36721264723E+02  0.43400731776E+02  0.00000000000E+00 0. -1.
         11    1    3    3    0    0  0.51696597635E+01  0.13373711818E+02 -0.18218285446E+02  0.23183776110E+02  0.51100000000E-03 0. -1.
        -11    1    3    3    0    0 -0.80438345678E+00  0.11713946652E+02 -0.11408450441E+02  0.16371204007E+02  0.51100000000E-03 0.  1.
         12    1    3    3    0    0  0.28053622126E+01 -0.30932460190E+01 -0.70945288359E+01  0.82322881073E+01  0.00000000000E+00 0. -1.
</event>
<event>
 7    1  0.1418970E-010  0.4778727E+02  0.7816164E-02  0.1312668E+00
        -11   -1    0    0    0    0  0.00000000000E+00  0.00000000000E+00  0.45593999997E+02  0.45594000000E+02  0.51100000000E-03 0.  1.
         11   -1    0    0    0    0 -0.00000000000E+00 -0.00000000000E+00 -0.45593999997E+02  0.45594000000E+02  0.51100000000E-03 0. -1.
    9900012    2    1    2    0    0  0.35407392653E+02  0.17537509770E+02  0.17954814809E+02  0.47787273298E+02  0.20000010276E+02 0.  0.
         12    1    1    2    0    0 -0.35407392653E+02 -0.17537509770E+02 -0.17954814809E+02  0.43400726702E+02  0.00000000000E+00 0. -1.
         11    1    3    3    0    0  0.13594421350E+02 -0.23483080080E+00  0.49132085750E+01  0.14456937992E+02  0.51100000000E-03 0. -1.
        -11    1    3    3    0    0  0.45905424474E+01 -0.14901124011E+01  0.23245985992E+01  0.53569836511E+01  0.51100000000E-03 0.  1.
        -12    1    3    3    0    0  0.17222428855E+02  0.19262452971E+02  0.10717007635E+02  0.27973351655E+02  0.00000000000E+00 0.  1.
</event>
<event>
 7    1  0.1418970E-010  0.4778727E+02  0.7816164E-02  0.1312668E+00
        -11   -1    0    0    0    0  0.00000000000E+00  0.00000000000E+00  0.45593999997E+02  0.45594000000E+02  0.51100000000E-03 0.  1.
         11   -1    0    0    0    0 -0.00000000000E+00 -0.00000000000E+00 -0.45593999997E+02  0.45594000000E+02  0.51100000000E-03 0. -1.
    9900012    2    1    2    0    0 -0.38503472032E+02  0.17585512488E+02  0.95841321143E+01  0.47787271938E+02  0.20000004073E+02 0.  0.
         12    1    1    2    0    0  0.38503472032E+02 -0.17585512488E+02 -0.95841321143E+01  0.43400728062E+02  0.00000000000E+00 0. -1.
         11    1    3    3    0    0 -0.19382797299E+02  0.99810892624E+00 -0.81727861457E+00  0.19425678809E+02  0.51100000000E-03 0. -1.
        -11    1    3    3    0    0 -0.15835250903E+02  0.12359021430E+02  0.48831295112E+01  0.20672337457E+02  0.51100000000E-03 0.  1.
        -12    1    3    3    0    0 -0.32854238292E+01  0.42283821315E+01  0.55182812177E+01  0.76892556717E+01  0.00000000000E+00 0.  1.
</event>
<event>
 7    1  0.1418970E-010  0.4778727E+02  0.7816164E-02  0.1312668E+00
        -11   -1    0    0    0    0  0.00000000000E+00  0.00000000000E+00  0.45593999997E+02  0.45594000000E+02  0.51100000000E-03 0.  1.
         11   -1    0    0    0    0 -0.00000000000E+00 -0.00000000000E+00 -0.45593999997E+02  0.45594000000E+02  0.51100000000E-03 0. -1.
    9900012    2    1    2    0    0 -0.19614631191E+02 -0.22644634932E+00  0.38714837610E+02  0.47787266297E+02  0.19999978356E+02 0.  0.
         12    1    1    2    0    0  0.19614631191E+02  0.22644634932E+00 -0.38714837610E+02  0.43400733703E+02  0.00000000000E+00 0. -1.
         11    1    3    3    0    0  0.27086833858E+01  0.21078421612E+00  0.20554511754E+01  0.34067984188E+01  0.51100000000E-03 0. -1.
        -11    1    3    3    0    0 -0.10478603612E+02 -0.49317825406E+01  0.12118668632E+02  0.16762629339E+02  0.51100000000E-03 0.  1.
         12    1    3    3    0    0 -0.11844710965E+02  0.44945519751E+01  0.24540717803E+02  0.27617838539E+02  0.00000000000E+00 0. -1.
</event>
<event>
 7    1  0.1418970E-010  0.4778728E+02  0.7816164E-02  0.1312668E+00
        -11   -1    0    0    0    0  0.00000000000E+00  0.00000000000E+00  0.45593999997E+02  0.45594000000E+02  0.51100000000E-03 0.  1.
         11   -1    0    0    0    0 -0.00000000000E+00 -0.00000000000E+00 -0.45593999997E+02  0.45594000000E+02  0.51100000000E-03 0. -1.
    9900012    2    1    2    0    0 -0.31020700457E+02 -0.25623461886E+02  0.16271969935E+02  0.47787278100E+02  0.20000032168E+02 0.  0.
         12    1    1    2    0    0  0.31020700457E+02  0.25623461886E+02 -0.16271969935E+02  0.43400721900E+02  0.00000000000E+00 0. -1.
         11    1    3    3    0    0 -0.16281317121E+02 -0.63412305529E+01  0.40615332520E+01  0.17938465507E+02  0.51100000000E-03 0. -1.
        -11    1    3    3    0    0 -0.14958784969E+02 -0.18414806798E+02  0.72494105913E+01  0.24807747003E+02  0.51100000000E-03 0.  1.
         12    1    3    3    0    0  0.21940163247E+00 -0.86742453453E+00  0.49610260921E+01  0.50410655903E+01  0.00000000000E+00 0. -1.
</event>
<event>
 7    1  0.1418970E-010  0.4778727E+02  0.7816164E-02  0.1312668E+00
        -11   -1    0    0    0    0  0.00000000000E+00  0.00000000000E+00  0.45593999997E+02  0.45594000000E+02  0.51100000000E-03 0. -1.
         11   -1    0    0    0    0 -0.00000000000E+00 -0.00000000000E+00 -0.45593999997E+02  0.45594000000E+02  0.51100000000E-03 0.  1.
    9900012    2    1    2    0    0  0.13768445101E+02 -0.40792153815E+02  0.54821343285E+01  0.47787266249E+02  0.19999978135E+02 0.  0.
         12    1    1    2    0    0 -0.13768445101E+02  0.40792153815E+02 -0.54821343285E+01  0.43400733751E+02  0.00000000000E+00 0. -1.
         11    1    3    3    0    0 -0.19172081761E+01 -0.74171487841E+01 -0.46047056391E+00  0.76747518968E+01  0.51100000000E-03 0. -1.
        -11    1    3    3    0    0 -0.16320907232E+01 -0.67836516994E+01  0.45875092060E+01  0.83502629590E+01  0.51100000000E-03 0.  1.
        -12    1    3    3    0    0  0.17317744000E+02 -0.26591353331E+02  0.13550956864E+01  0.31762251393E+02  0.00000000000E+00 0.  1.
</event>
<event>
 7    1  0.1418970E-010  0.4778727E+02  0.7816164E-02  0.1312668E+00
        -11   -1    0    0    0    0  0.00000000000E+00  0.00000000000E+00  0.45593999997E+02  0.45594000000E+02  0.51100000000E-03 0.  1.
         11   -1    0    0    0    0 -0.00000000000E+00 -0.00000000000E+00 -0.45593999997E+02  0.45594000000E+02  0.51100000000E-03 0. -1.
    9900012    2    1    2    0    0 -0.19013897500E+02 -0.38770070039E+02  0.43562236413E+01  0.47787270589E+02  0.19999997924E+02 0.  0.
         12    1    1    2    0    0  0.19013897500E+02  0.38770070039E+02 -0.43562236413E+01  0.43400729411E+02  0.00000000000E+00 0. -1.
         11    1    3    3    0    0 -0.68936882556E+01 -0.99917174456E+01  0.56295043049E+01  0.13380907079E+02  0.51100000000E-03 0. -1.
        -11    1    3    3    0    0 -0.12545430041E+02 -0.29567774711E+02  0.81945695455E+00  0.32129622255E+02  0.51100000000E-03 0.  1.
         12    1    3    3    0    0  0.42522079674E+00  0.78942211718E+00 -0.20927376182E+01  0.22767412553E+01  0.00000000000E+00 0. -1.
</event>
<event>
 7    1  0.1418970E-010  0.4778727E+02  0.7816164E-02  0.1312668E+00
        -11   -1    0    0    0    0  0.00000000000E+00  0.00000000000E+00  0.45593999997E+02  0.45594000000E+02  0.51100000000E-03 0.  1.
         11   -1    0    0    0    0 -0.00000000000E+00 -0.00000000000E+00 -0.45593999997E+02  0.45594000000E+02  0.51100000000E-03 0. -1.
    9900012    2    1    2    0    0  0.62337745263E+01 -0.22029709438E+02  0.36870792879E+02  0.47787269473E+02  0.19999992835E+02 0.  0.
         12    1    1    2    0    0 -0.62337745263E+01  0.22029709438E+02 -0.36870792879E+02  0.43400730527E+02  0.00000000000E+00 0. -1.
         11    1    3    3    0    0  0.82018400128E+01 -0.25878205850E+01  0.19746056684E+02  0.21537728520E+02  0.51100000000E-03 0. -1.
        -11    1    3    3    0    0  0.64010139565E+00 -0.75965804076E+01  0.81601672318E+01  0.11167188240E+02  0.51100000000E-03 0.  1.
         12    1    3    3    0    0 -0.26081668822E+01 -0.11845308445E+02  0.89645689630E+01  0.15082352712E+02  0.00000000000E+00 0. -1.
</event>
<event>
 7    1  0.1418970E-010  0.4778727E+02  0.7816164E-02  0.1312668E+00
        -11   -1    0    0    0    0  0.00000000000E+00  0.00000000000E+00  0.45593999997E+02  0.45594000000E+02  0.51100000000E-03 0. -1.
         11   -1    0    0    0    0 -0.00000000000E+00 -0.00000000000E+00 -0.45593999997E+02  0.45594000000E+02  0.51100000000E-03 0.  1.
    9900012    2    1    2    0    0 -0.21574236616E+02 -0.20480683479E+02  0.31602483193E+02  0.47787273909E+02  0.20000013059E+02 0.  0.
         12    1    1    2    0    0  0.21574236616E+02  0.20480683479E+02 -0.31602483193E+02  0.43400726091E+02  0.00000000000E+00 0. -1.
         11    1    3    3    0    0  0.14908079409E+01 -0.45291138618E+01  0.43317190332E+01  0.64419849995E+01  0.51100000000E-03 0. -1.
        -11    1    3    3    0    0 -0.12512143773E+02 -0.69628772963E+01  0.51050867893E+01  0.15201885193E+02  0.51100000000E-03 0.  1.
        -12    1    3    3    0    0 -0.10552900784E+02 -0.89886923208E+01  0.22165677370E+02  0.26143403716E+02  0.00000000000E+00 0.  1.
</event>
<event>
 7    1  0.1418970E-010  0.4778727E+02  0.7816164E-02  0.1312668E+00
        -11   -1    0    0    0    0  0.00000000000E+00  0.00000000000E+00  0.45593999997E+02  0.45594000000E+02  0.51100000000E-03 0.  1.
         11   -1    0    0    0    0 -0.00000000000E+00 -0.00000000000E+00 -0.45593999997E+02  0.45594000000E+02  0.51100000000E-03 0. -1.
    9900012    2    1    2    0    0 -0.27196040304E+02  0.29400910076E+02  0.16720799416E+02  0.47787271266E+02  0.20000001012E+02 0.  0.
         12    1    1    2    0    0  0.27196040304E+02 -0.29400910076E+02 -0.16720799416E+02  0.43400728734E+02  0.00000000000E+00 0. -1.
         11    1    3    3    0    0 -0.48899751906E+01  0.23466974848E+01 -0.40570477323E+00  0.54390663789E+01  0.51100000000E-03 0.  1.
        -11    1    3    3    0    0 -0.19217079866E+01  0.89399338286E+01  0.11169643440E+02  0.14435245522E+02  0.51100000000E-03 0. -1.
        -12    1    3    3    0    0 -0.20384357127E+02  0.18114278763E+02  0.59568607490E+01  0.27912959365E+02  0.00000000000E+00 0.  1.
</event>
<event>
 7    1  0.1418970E-010  0.4778727E+02  0.7816164E-02  0.1312668E+00
        -11   -1    0    0    0    0  0.00000000000E+00  0.00000000000E+00  0.45593999997E+02  0.45594000000E+02  0.51100000000E-03 0.  1.
         11   -1    0    0    0    0 -0.00000000000E+00 -0.00000000000E+00 -0.45593999997E+02  0.45594000000E+02  0.51100000000E-03 0. -1.
    9900012    2    1    2    0    0  0.30921344627E+02  0.24425049412E+01  0.30356678717E+02  0.47787270436E+02  0.19999997228E+02 0.  0.
         12    1    1    2    0    0 -0.30921344627E+02 -0.24425049412E+01 -0.30356678717E+02  0.43400729564E+02  0.00000000000E+00 0. -1.
         11    1    3    3    0    0  0.87002396557E+01  0.72866344092E+01  0.11702834026E+02  0.16301703457E+02  0.51100000000E-03 0. -1.
        -11    1    3    3    0    0  0.21200714919E+02 -0.52852238331E+01  0.20081543965E+02  0.29676123607E+02  0.51100000000E-03 0.  1.
         12    1    3    3    0    0  0.10203900527E+01  0.44109436510E+00 -0.14276992753E+01  0.18094433728E+01  0.00000000000E+00 0. -1.
</event>
<event>
 7    1  0.1418970E-010  0.4778727E+02  0.7816164E-02  0.1312668E+00
        -11   -1    0    0    0    0  0.00000000000E+00  0.00000000000E+00  0.45593999997E+02  0.45594000000E+02  0.51100000000E-03 0.  1.
         11   -1    0    0    0    0 -0.00000000000E+00 -0.00000000000E+00 -0.45593999997E+02  0.45594000000E+02  0.51100000000E-03 0. -1.
    9900012    2    1    2    0    0 -0.17839264863E+02  0.30191144650E+00  0.39563780348E+02  0.47787271472E+02  0.20000001948E+02 0.  0.
         12    1    1    2    0    0  0.17839264863E+02 -0.30191144650E+00 -0.39563780348E+02  0.43400728528E+02  0.00000000000E+00 0. -1.
         11    1    3    3    0    0 -0.62804389298E+00  0.35170263132E+01  0.12022229354E+02  0.12541846440E+02  0.51100000000E-03 0. -1.
        -11    1    3    3    0    0 -0.17332063715E+02 -0.39126878975E+01  0.28777593399E+02  0.33820991134E+02  0.51100000000E-03 0.  1.
         12    1    3    3    0    0  0.12084274577E+00  0.69757303089E+00 -0.12360424046E+01  0.14244338976E+01  0.00000000000E+00 0. -1.
</event>
<event>
 7    1  0.1418970E-010  0.4778727E+02  0.7816164E-02  0.1312668E+00
        -11   -1    0    0    0    0  0.00000000000E+00  0.00000000000E+00  0.45593999997E+02  0.45594000000E+02  0.51100000000E-03 0. -1.
         11   -1    0    0    0    0 -0.00000000000E+00 -0.00000000000E+00 -0.45593999997E+02  0.45594000000E+02  0.51100000000E-03 0.  1.
    9900012    2    1    2    0    0  0.17556523517E+02 -0.33049981569E+02 -0.21979328305E+02  0.47787266452E+02  0.19999979063E+02 0.  0.
         12    1    1    2    0    0 -0.17556523517E+02  0.33049981569E+02  0.21979328305E+02  0.43400733548E+02  0.00000000000E+00 0. -1.
         11    1    3    3    0    0  0.98937074518E+01 -0.29085022767E+02 -0.12061840211E+02  0.33004726722E+02  0.51100000000E-03 0.  1.
        -11    1    3    3    0    0  0.57409943104E+01 -0.26301888130E+01 -0.21508113711E+01  0.66710492937E+01  0.51100000000E-03 0. -1.
        -12    1    3    3    0    0  0.19218217551E+01 -0.13347699897E+01 -0.77666767224E+01  0.81114904361E+01  0.00000000000E+00 0.  1.
</event>
<event>
 7    1  0.1418970E-010  0.4778727E+02  0.7816164E-02  0.1312668E+00
        -11   -1    0    0    0    0  0.00000000000E+00  0.00000000000E+00  0.45593999997E+02  0.45594000000E+02  0.51100000000E-03 0.  1.
         11   -1    0    0    0    0 -0.00000000000E+00 -0.00000000000E+00 -0.45593999997E+02  0.45594000000E+02  0.51100000000E-03 0. -1.
    9900012    2    1    2    0    0 -0.76724958450E+01  0.78109600034E+01  0.41996963390E+02  0.47787271635E+02  0.20000002692E+02 0.  0.
         12    1    1    2    0    0  0.76724958450E+01 -0.78109600034E+01 -0.41996963390E+02  0.43400728365E+02  0.00000000000E+00 0. -1.
         11    1    3    3    0    0  0.38006658726E+01  0.62238197717E-01  0.39963975502E+01  0.55154445251E+01  0.51100000000E-03 0. -1.
        -11    1    3    3    0    0 -0.10585970661E+02  0.23225973401E+00  0.17950092217E+02  0.20840406193E+02  0.51100000000E-03 0.  1.
         12    1    3    3    0    0 -0.88719105668E+00  0.75164620716E+01  0.20050473622E+02  0.21431420917E+02  0.00000000000E+00 0. -1.
</event>
<event>
 7    1  0.1418970E-010  0.4778727E+02  0.7816164E-02  0.1312668E+00
        -11   -1    0    0    0    0  0.00000000000E+00  0.00000000000E+00  0.45593999997E+02  0.45594000000E+02  0.51100000000E-03 0.  1.
         11   -1    0    0    0    0 -0.00000000000E+00 -0.00000000000E+00 -0.45593999997E+02  0.45594000000E+02  0.51100000000E-03 0. -1.
    9900012    2    1    2    0    0  0.44360455908E+01  0.29170723089E+02  0.31827876631E+02  0.47787270550E+02  0.19999997744E+02 0.  0.
         12    1    1    2    0    0 -0.44360455908E+01 -0.29170723089E+02 -0.31827876631E+02  0.43400729450E+02  0.00000000000E+00 0. -1.
         11    1    3    3    0    0  0.29001541187E+01 -0.11902186691E+01  0.14615301686E+01  0.34588415818E+01  0.51100000000E-03 0. -1.
        -11    1    3    3    0    0 -0.18724528806E+01  0.28711375373E+00  0.28594028182E+01  0.34299706756E+01  0.51100000000E-03 0.  1.
        -12    1    3    3    0    0  0.34083443526E+01  0.30073828004E+02  0.27506943644E+02  0.40898458292E+02  0.00000000000E+00 0.  1.
</event>
<event>
 7    1  0.1418970E-010  0.4778727E+02  0.7816164E-02  0.1312668E+00
        -11   -1    0    0    0    0  0.00000000000E+00  0.00000000000E+00  0.45593999997E+02  0.45594000000E+02  0.51100000000E-03 0.  1.
         11   -1    0    0    0    0 -0.00000000000E+00 -0.00000000000E+00 -0.45593999997E+02  0.45594000000E+02  0.51100000000E-03 0. -1.
    9900012    2    1    2    0    0  0.26087286319E+02  0.17097245120E+02  0.30178824606E+02  0.47787265527E+02  0.19999974842E+02 0.  0.
         12    1    1    2    0    0 -0.26087286319E+02 -0.17097245120E+02 -0.30178824606E+02  0.43400734473E+02  0.00000000000E+00 0. -1.
         11    1    3    3    0    0  0.27990307636E+01  0.26875601732E+01 -0.68192486412E+00  0.39398698813E+01  0.51100000000E-03 0. -1.
        -11    1    3    3    0    0  0.20234501780E+02  0.17406411931E+02  0.28097147769E+02  0.38753941110E+02  0.51100000000E-03 0.  1.
        -12    1    3    3    0    0  0.30537537756E+01 -0.29967269835E+01  0.27636017018E+01  0.50934545352E+01  0.00000000000E+00 0.  1.
</event>
<event>
 7    1  0.1418970E-010  0.4778727E+02  0.7816164E-02  0.1312668E+00
        -11   -1    0    0    0    0  0.00000000000E+00  0.00000000000E+00  0.45593999997E+02  0.45594000000E+02  0.51100000000E-03 0.  1.
         11   -1    0    0    0    0 -0.00000000000E+00 -0.00000000000E+00 -0.45593999997E+02  0.45594000000E+02  0.51100000000E-03 0. -1.
    9900012    2    1    2    0    0  0.21274646921E+01  0.37258936665E+02  0.22155563637E+02  0.47787268814E+02  0.19999989829E+02 0.  0.
         12    1    1    2    0    0 -0.21274646921E+01 -0.37258936665E+02 -0.22155563637E+02  0.43400731186E+02  0.00000000000E+00 0. -1.
         11    1    3    3    0    0  0.31694379064E+01  0.32264553986E+02  0.13332034774E+02  0.35054100074E+02  0.51100000000E-03 0.  1.
        -11    1    3    3    0    0 -0.41805875500E+01  0.37007329848E+01  0.41493269065E+01  0.69562670252E+01  0.51100000000E-03 0. -1.
        -12    1    3    3    0    0  0.31386143356E+01  0.12936496945E+01  0.46742019569E+01  0.57769017141E+01  0.00000000000E+00 0.  1.
</event>
<event>
 7    1  0.1418970E-010  0.4778727E+02  0.7816164E-02  0.1312668E+00
        -11   -1    0    0    0    0  0.00000000000E+00  0.00000000000E+00  0.45593999997E+02  0.45594000000E+02  0.51100000000E-03 0. -1.
         11   -1    0    0    0    0 -0.00000000000E+00 -0.00000000000E+00 -0.45593999997E+02  0.45594000000E+02  0.51100000000E-03 0.  1.
    9900012    2    1    2    0    0  0.30680814653E+02 -0.53502481153E+01 -0.30227235436E+02  0.47787270688E+02  0.19999998374E+02 0.  0.
         12    1    1    2    0    0 -0.30680814653E+02  0.53502481153E+01  0.30227235436E+02  0.43400729312E+02  0.00000000000E+00 0. -1.
         11    1    3    3    0    0  0.13340732491E+01  0.19897258108E+01 -0.85616067619E+00  0.25439676886E+01  0.51100000000E-03 0. -1.
        -11    1    3    3    0    0  0.19853810052E+02 -0.12299696776E+02 -0.17041860231E+02  0.28911612109E+02  0.51100000000E-03 0.  1.
        -12    1    3    3    0    0  0.94929313528E+01  0.49597228503E+01 -0.12329214530E+02  0.16331690890E+02  0.00000000000E+00 0.  1.
</event>
<event>
 7    1  0.1418970E-010  0.4778727E+02  0.7816164E-02  0.1312668E+00
        -11   -1    0    0    0    0  0.00000000000E+00  0.00000000000E+00  0.45593999997E+02  0.45594000000E+02  0.51100000000E-03 0.  1.
         11   -1    0    0    0    0 -0.00000000000E+00 -0.00000000000E+00 -0.45593999997E+02  0.45594000000E+02  0.51100000000E-03 0. -1.
    9900012    2    1    2    0    0  0.93380380904E+01  0.16888872293E+02  0.38874028903E+02  0.47787273211E+02  0.20000009876E+02 0.  0.
         12    1    1    2    0    0 -0.93380380904E+01 -0.16888872293E+02 -0.38874028903E+02  0.43400726789E+02  0.00000000000E+00 0. -1.
         11    1    3    3    0    0  0.78746435334E+01  0.18775938142E+02  0.25690970676E+02  0.32780662568E+02  0.51100000000E-03 0. -1.
        -11    1    3    3    0    0  0.37157507968E+01  0.57829626892E-01  0.99054020717E+01  0.10579562312E+02  0.51100000000E-03 0.  1.
         12    1    3    3    0    0 -0.22523562398E+01 -0.19448954762E+01  0.32776561555E+01  0.44270483302E+01  0.00000000000E+00 0. -1.
</event>
<event>
 7    1  0.1418970E-010  0.4778727E+02  0.7816164E-02  0.1312668E+00
        -11   -1    0    0    0    0  0.00000000000E+00  0.00000000000E+00  0.45593999997E+02  0.45594000000E+02  0.51100000000E-03 0.  1.
         11   -1    0    0    0    0 -0.00000000000E+00 -0.00000000000E+00 -0.45593999997E+02  0.45594000000E+02  0.51100000000E-03 0. -1.
    9900012    2    1    2    0    0 -0.14109420347E+02  0.11493315830E+02  0.39401160237E+02  0.47787268678E+02  0.19999989209E+02 0.  0.
         12    1    1    2    0    0  0.14109420347E+02 -0.11493315830E+02 -0.39401160237E+02  0.43400731322E+02  0.00000000000E+00 0. -1.
         11    1    3    3    0    0 -0.10836227909E+02  0.27993461077E+00  0.88437530037E+01  0.13989787923E+02  0.51100000000E-03 0. -1.
        -11    1    3    3    0    0 -0.43841563003E+01  0.10641903730E+02  0.19302776016E+02  0.22473720290E+02  0.51100000000E-03 0.  1.
        -12    1    3    3    0    0  0.11109638628E+01  0.57147748929E+00  0.11254631217E+02  0.11323760464E+02  0.00000000000E+00 0.  1.
</event>
<event>
 7    1  0.1418970E-010  0.4778727E+02  0.7816164E-02  0.1312668E+00
        -11   -1    0    0    0    0  0.00000000000E+00  0.00000000000E+00  0.45593999997E+02  0.45594000000E+02  0.51100000000E-03 0.  1.
         11   -1    0    0    0    0 -0.00000000000E+00 -0.00000000000E+00 -0.45593999997E+02  0.45594000000E+02  0.51100000000E-03 0. -1.
    9900012    2    1    2    0    0 -0.14930686274E+02 -0.37305391995E+02  0.16401404012E+02  0.47787265927E+02  0.19999976668E+02 0.  0.
         12    1    1    2    0    0  0.14930686274E+02  0.37305391995E+02 -0.16401404012E+02  0.43400734073E+02  0.00000000000E+00 0. -1.
         11    1    3    3    0    0 -0.61913751945E+01 -0.45275284471E+01  0.76283371448E+01  0.10817724737E+02  0.51100000000E-03 0. -1.
        -11    1    3    3    0    0  0.29484538160E+01 -0.66853914096E+01  0.13403814384E+01  0.74286244262E+01  0.51100000000E-03 0.  1.
        -12    1    3    3    0    0 -0.11687764896E+02 -0.26092472138E+02  0.74326854286E+01  0.29540916763E+02  0.00000000000E+00 0.  1.
</event>
<event>
 7    1  0.1418970E-010  0.4778727E+02  0.7816164E-02  0.1312668E+00
        -11   -1    0    0    0    0  0.00000000000E+00  0.00000000000E+00  0.45593999997E+02  0.45594000000E+02  0.51100000000E-03 0.  1.
         11   -1    0    0    0    0 -0.00000000000E+00 -0.00000000000E+00 -0.45593999997E+02  0.45594000000E+02  0.51100000000E-03 0. -1.
    9900012    2    1    2    0    0  0.24847672310E+02  0.35559600498E+02  0.13157688504E+01  0.47787271268E+02  0.20000001022E+02 0.  0.
         12    1    1    2    0    0 -0.24847672310E+02 -0.35559600498E+02 -0.13157688504E+01  0.43400728732E+02  0.00000000000E+00 0. -1.
         11    1    3    3    0    0  0.51502202321E+01  0.13052377383E+02 -0.39594738147E+01  0.14579669301E+02  0.51100000000E-03 0. -1.
        -11    1    3    3    0    0  0.14062894118E+02  0.20651334104E+02 -0.41376424846E+00  0.24988273097E+02  0.51100000000E-03 0.  1.
        -12    1    3    3    0    0  0.56345579598E+01  0.18558890111E+01  0.56890069135E+01  0.82193288708E+01  0.00000000000E+00 0.  1.
</event>
<event>
 7    1  0.1418970E-010  0.4778727E+02  0.7816164E-02  0.1312668E+00
        -11   -1    0    0    0    0  0.00000000000E+00  0.00000000000E+00  0.45593999997E+02  0.45594000000E+02  0.51100000000E-03 0. -1.
         11   -1    0    0    0    0 -0.00000000000E+00 -0.00000000000E+00 -0.45593999997E+02  0.45594000000E+02  0.51100000000E-03 0.  1.
    9900012    2    1    2    0    0 -0.40668809285E+02  0.24607113375E+01  0.14953791684E+02  0.47787273800E+02  0.20000012565E+02 0.  0.
         12    1    1    2    0    0  0.40668809285E+02 -0.24607113375E+01 -0.14953791684E+02  0.43400726200E+02  0.00000000000E+00 0. -1.
         11    1    3    3    0    0 -0.62715125629E+01  0.41652224010E+01  0.58090745891E-01  0.75288991408E+01  0.51100000000E-03 0.  1.
        -11    1    3    3    0    0  0.49440148971E+00  0.10022258071E+01 -0.12844139576E+01  0.17025301398E+01  0.51100000000E-03 0. -1.
         12    1    3    3    0    0 -0.34891698212E+02 -0.27067368706E+01  0.16180114896E+02  0.38555844520E+02  0.00000000000E+00 0. -1.
</event>
<event>
 7    1  0.1418970E-010  0.4778727E+02  0.7816164E-02  0.1312668E+00
        -11   -1    0    0    0    0  0.00000000000E+00  0.00000000000E+00  0.45593999997E+02  0.45594000000E+02  0.51100000000E-03 0.  1.
         11   -1    0    0    0    0 -0.00000000000E+00 -0.00000000000E+00 -0.45593999997E+02  0.45594000000E+02  0.51100000000E-03 0. -1.
    9900012    2    1    2    0    0  0.17121482279E+02  0.25685309392E+02  0.30508083720E+02  0.47787269059E+02  0.19999990947E+02 0.  0.
         12    1    1    2    0    0 -0.17121482279E+02 -0.25685309392E+02 -0.30508083720E+02  0.43400730941E+02  0.00000000000E+00 0. -1.
         11    1    3    3    0    0  0.72850097907E+01  0.24160590678E+01  0.87371555682E+01  0.11629557032E+02  0.51100000000E-03 0. -1.
        -11    1    3    3    0    0 -0.16175181039E+01  0.67139189906E+01  0.11847577802E+02  0.13713430390E+02  0.51100000000E-03 0.  1.
        -12    1    3    3    0    0  0.11453990592E+02  0.16555331333E+02  0.99233503491E+01  0.22444281637E+02  0.00000000000E+00 0.  1.
</event>
<event>
 7    1  0.1418970E-010  0.4778725E+02  0.7816164E-02  0.1312668E+00
        -11   -1    0    0    0    0  0.00000000000E+00  0.00000000000E+00  0.45593999997E+02  0.45594000000E+02  0.51100000000E-03 0. -1.
         11   -1    0    0    0    0 -0.00000000000E+00 -0.00000000000E+00 -0.45593999997E+02  0.45594000000E+02  0.51100000000E-03 0.  1.
    9900012    2    1    2    0    0  0.34552557847E+02 -0.16105013077E+01 -0.26213590261E+02  0.47787247903E+02  0.19999894488E+02 0.  0.
         12    1    1    2    0    0 -0.34552557847E+02  0.16105013077E+01  0.26213590261E+02  0.43400752097E+02  0.00000000000E+00 0. -1.
         11    1    3    3    0    0  0.43051969850E+01  0.40611064235E+01 -0.41824103942E+00  0.59331469130E+01  0.51100000000E-03 0. -1.
        -11    1    3    3    0    0  0.27267788399E+02 -0.84700429235E+00 -0.21713148694E+02  0.34867040696E+02  0.51100000000E-03 0.  1.
         12    1    3    3    0    0  0.29795724634E+01 -0.48246034388E+01 -0.40822005271E+01  0.69870602938E+01  0.00000000000E+00 0. -1.
</event>
<event>
 7    1  0.1418970E-010  0.4778727E+02  0.7816164E-02  0.1312668E+00
        -11   -1    0    0    0    0  0.00000000000E+00  0.00000000000E+00  0.45593999997E+02  0.45594000000E+02  0.51100000000E-03 0.  1.
         11   -1    0    0    0    0 -0.00000000000E+00 -0.00000000000E+00 -0.45593999997E+02  0.45594000000E+02  0.51100000000E-03 0. -1.
    9900012    2    1    2    0    0  0.25491942117E+02 -0.95580630385E+01  0.33799822568E+02  0.47787266278E+02  0.19999978269E+02 0.  0.
         12    1    1    2    0    0 -0.25491942117E+02  0.95580630385E+01 -0.33799822568E+02  0.43400733722E+02  0.00000000000E+00 0. -1.
         11    1    3    3    0    0  0.45095833166E+00  0.26051669737E+01  0.93929116156E+00  0.28058022962E+01  0.51100000000E-03 0. -1.
        -11    1    3    3    0    0  0.20110775916E+02 -0.64919485412E+01  0.15949400009E+02  0.26475877034E+02  0.51100000000E-03 0.  1.
         12    1    3    3    0    0  0.49302078697E+01 -0.56712814710E+01  0.16911131398E+02  0.18505586948E+02  0.00000000000E+00 0. -1.
</event>
<event>
 7    1  0.1418970E-010  0.4778727E+02  0.7816164E-02  0.1312668E+00
        -11   -1    0    0    0    0  0.00000000000E+00  0.00000000000E+00  0.45593999997E+02  0.45594000000E+02  0.51100000000E-03 0.  1.
         11   -1    0    0    0    0 -0.00000000000E+00 -0.00000000000E+00 -0.45593999997E+02  0.45594000000E+02  0.51100000000E-03 0. -1.
    9900012    2    1    2    0    0 -0.25852186655E+02 -0.34090603099E+02  0.72882436636E+01  0.47787271086E+02  0.20000000191E+02 0.  0.
         12    1    1    2    0    0  0.25852186655E+02  0.34090603099E+02 -0.72882436636E+01  0.43400728914E+02  0.00000000000E+00 0. -1.
         11    1    3    3    0    0 -0.93149633280E+01 -0.36330952462E+00  0.31516674757E+00  0.93273718674E+01  0.51100000000E-03 0. -1.
        -11    1    3    3    0    0 -0.49738100261E+01 -0.12570700624E+02  0.65212499680E+00  0.13534643240E+02  0.51100000000E-03 0.  1.
         12    1    3    3    0    0 -0.11563413301E+02 -0.21156592951E+02  0.63209519193E+01  0.24925255979E+02  0.00000000000E+00 0. -1.
</event>
<event>
 7    1  0.1418970E-010  0.4778727E+02  0.7816164E-02  0.1312668E+00
        -11   -1    0    0    0    0  0.00000000000E+00  0.00000000000E+00  0.45593999997E+02  0.45594000000E+02  0.51100000000E-03 0.  1.
         11   -1    0    0    0    0 -0.00000000000E+00 -0.00000000000E+00 -0.45593999997E+02  0.45594000000E+02  0.51100000000E-03 0. -1.
    9900012    2    1    2    0    0  0.28554565858E+02  0.15490017263E+02  0.28780537133E+02  0.47787272082E+02  0.20000004730E+02 0.  0.
         12    1    1    2    0    0 -0.28554565858E+02 -0.15490017263E+02 -0.28780537133E+02  0.43400727918E+02  0.00000000000E+00 0. -1.
         11    1    3    3    0    0  0.14989624270E+02  0.16423667308E+02  0.12722724448E+02  0.25618224006E+02  0.51100000000E-03 0. -1.
        -11    1    3    3    0    0  0.66789055141E+01  0.11059110936E+01  0.12356815574E+02  0.14089773228E+02  0.51100000000E-03 0.  1.
         12    1    3    3    0    0  0.68860360747E+01 -0.20395611386E+01  0.37009971111E+01  0.80792748484E+01  0.00000000000E+00 0. -1.
</event>
<event>
 7    1  0.1418970E-010  0.4778727E+02  0.7816164E-02  0.1312668E+00
        -11   -1    0    0    0    0  0.00000000000E+00  0.00000000000E+00  0.45593999997E+02  0.45594000000E+02  0.51100000000E-03 0.  1.
         11   -1    0    0    0    0 -0.00000000000E+00 -0.00000000000E+00 -0.45593999997E+02  0.45594000000E+02  0.51100000000E-03 0. -1.
    9900012    2    1    2    0    0  0.29956078138E+02  0.20531621555E+02  0.23763612157E+02  0.47787270008E+02  0.19999995274E+02 0.  0.
         12    1    1    2    0    0 -0.29956078138E+02 -0.20531621555E+02 -0.23763612157E+02  0.43400729992E+02  0.00000000000E+00 0. -1.
         11    1    3    3    0    0  0.12484466084E+01  0.25679009103E+01 -0.11667522094E+01  0.30844845596E+01  0.51100000000E-03 0. -1.
        -11    1    3    3    0    0  0.39543320783E+01  0.94706758381E+01  0.33908624140E+01  0.10808718295E+02  0.51100000000E-03 0.  1.
        -12    1    3    3    0    0  0.24753299451E+02  0.84930448065E+01  0.21539501953E+02  0.33894067153E+02  0.00000000000E+00 0.  1.
</event>
<event>
 7    1  0.1418970E-010  0.4778727E+02  0.7816164E-02  0.1312668E+00
        -11   -1    0    0    0    0  0.00000000000E+00  0.00000000000E+00  0.45593999997E+02  0.45594000000E+02  0.51100000000E-03 0.  1.
         11   -1    0    0    0    0 -0.00000000000E+00 -0.00000000000E+00 -0.45593999997E+02  0.45594000000E+02  0.51100000000E-03 0. -1.
    9900012    2    1    2    0    0  0.20160887179E+02  0.11440050771E+02  0.36691785888E+02  0.47787270915E+02  0.19999999409E+02 0.  0.
         12    1    1    2    0    0 -0.20160887179E+02 -0.11440050771E+02 -0.36691785888E+02  0.43400729085E+02  0.00000000000E+00 0. -1.
         11    1    3    3    0    0  0.15858769185E+01 -0.27030304497E+01  0.39220104009E+01  0.50203132431E+01  0.51100000000E-03 0. -1.
        -11    1    3    3    0    0  0.17742508519E+02  0.11598811269E+02  0.33801305560E+02  0.39898086285E+02  0.51100000000E-03 0.  1.
         12    1    3    3    0    0  0.83250174177E+00  0.25442699524E+01 -0.10315300733E+01  0.28688713866E+01  0.00000000000E+00 0. -1.
</event>
<event>
 7    1  0.1418970E-010  0.4778727E+02  0.7816164E-02  0.1312668E+00
        -11   -1    0    0    0    0  0.00000000000E+00  0.00000000000E+00  0.45593999997E+02  0.45594000000E+02  0.51100000000E-03 0. -1.
         11   -1    0    0    0    0 -0.00000000000E+00 -0.00000000000E+00 -0.45593999997E+02  0.45594000000E+02  0.51100000000E-03 0.  1.
    9900012    2    1    2    0    0  0.28385587883E+02 -0.45881739841E+01 -0.32508930158E+02  0.47787268669E+02  0.19999989171E+02 0.  0.
         12    1    1    2    0    0 -0.28385587883E+02  0.45881739841E+01  0.32508930158E+02  0.43400731331E+02  0.00000000000E+00 0. -1.
         11    1    3    3    0    0  0.12469596215E+02 -0.58053295126E+01 -0.55612305654E+01  0.14836440482E+02  0.51100000000E-03 0.  1.
        -11    1    3    3    0    0 -0.10043878832E+01 -0.15141656927E+01 -0.23429288559E+01  0.29649297883E+01  0.51100000000E-03 0. -1.
         12    1    3    3    0    0  0.16920379552E+02  0.27313212211E+01 -0.24604770737E+02  0.29985898399E+02  0.00000000000E+00 0. -1.
</event>
<event>
 7    1  0.1418970E-010  0.4778727E+02  0.7816164E-02  0.1312668E+00
        -11   -1    0    0    0    0  0.00000000000E+00  0.00000000000E+00  0.45593999997E+02  0.45594000000E+02  0.51100000000E-03 0. -1.
         11   -1    0    0    0    0 -0.00000000000E+00 -0.00000000000E+00 -0.45593999997E+02  0.45594000000E+02  0.51100000000E-03 0.  1.
    9900012    2    1    2    0    0  0.29180623103E+02 -0.32118191237E+02 -0.73230617346E+00  0.47787271373E+02  0.20000001496E+02 0.  0.
         12    1    1    2    0    0 -0.29180623103E+02  0.32118191237E+02  0.73230617346E+00  0.43400728627E+02  0.00000000000E+00 0. -1.
         11    1    3    3    0    0  0.13034800042E+01 -0.11595450203E+02  0.39510664797E+01  0.12319271574E+02  0.51100000000E-03 0. -1.
        -11    1    3    3    0    0  0.61289491427E+01 -0.31925974154E+01 -0.32117355178E+01  0.76204948099E+01  0.51100000000E-03 0.  1.
         12    1    3    3    0    0  0.21748193957E+02 -0.17330143619E+02 -0.14716371354E+01  0.27847504989E+02  0.00000000000E+00 0. -1.
</event>
<event>
 7    1  0.1418970E-010  0.4778727E+02  0.7816164E-02  0.1312668E+00
        -11   -1    0    0    0    0  0.00000000000E+00  0.00000000000E+00  0.45593999997E+02  0.45594000000E+02  0.51100000000E-03 0.  1.
         11   -1    0    0    0    0 -0.00000000000E+00 -0.00000000000E+00 -0.45593999997E+02  0.45594000000E+02  0.51100000000E-03 0. -1.
    9900012    2    1    2    0    0 -0.64534845457E+01 -0.26801658785E+02  0.33520842514E+02  0.47787271213E+02  0.20000000768E+02 0.  0.
         12    1    1    2    0    0  0.64534845457E+01  0.26801658785E+02 -0.33520842514E+02  0.43400728787E+02  0.00000000000E+00 0. -1.
         11    1    3    3    0    0 -0.35465009308E+01 -0.11888160809E+02  0.11599918865E+02  0.16984232518E+02  0.51100000000E-03 0. -1.
        -11    1    3    3    0    0 -0.53768472149E+01 -0.14976815503E+02  0.23111964752E+02  0.28060263782E+02  0.51100000000E-03 0.  1.
        -12    1    3    3    0    0  0.24698636000E+01  0.63317526853E-01 -0.11910411033E+01  0.27427749127E+01  0.00000000000E+00 0.  1.
</event>
<event>
 7    1  0.1418970E-010  0.4778727E+02  0.7816164E-02  0.1312668E+00
        -11   -1    0    0    0    0  0.00000000000E+00  0.00000000000E+00  0.45593999997E+02  0.45594000000E+02  0.51100000000E-03 0. -1.
         11   -1    0    0    0    0 -0.00000000000E+00 -0.00000000000E+00 -0.45593999997E+02  0.45594000000E+02  0.51100000000E-03 0.  1.
    9900012    2    1    2    0    0  0.38238784859E+02 -0.94443650778E+01 -0.18226976604E+02  0.47787269876E+02  0.19999994670E+02 0.  0.
         12    1    1    2    0    0 -0.38238784859E+02  0.94443650778E+01  0.18226976604E+02  0.43400730124E+02  0.00000000000E+00 0. -1.
         11    1    3    3    0    0  0.69000097117E+01 -0.80292781123E+01 -0.57231630942E+01  0.12034701371E+02  0.51100000000E-03 0. -1.
        -11    1    3    3    0    0  0.59347989724E+01 -0.10851647140E+01 -0.78876627801E+01  0.99304907076E+01  0.51100000000E-03 0.  1.
         12    1    3    3    0    0  0.25403976175E+02 -0.32992225138E+00 -0.46161507296E+01  0.25822077797E+02  0.00000000000E+00 0. -1.
</event>
<event>
 7    1  0.1418970E-010  0.4778727E+02  0.7816164E-02  0.1312668E+00
        -11   -1    0    0    0    0  0.00000000000E+00  0.00000000000E+00  0.45593999997E+02  0.45594000000E+02  0.51100000000E-03 0.  1.
         11   -1    0    0    0    0 -0.00000000000E+00 -0.00000000000E+00 -0.45593999997E+02  0.45594000000E+02  0.51100000000E-03 0. -1.
    9900012    2    1    2    0    0 -0.10811626763E+02  0.41341888752E+02  0.75881618949E+01  0.47787271437E+02  0.20000001790E+02 0.  0.
         12    1    1    2    0    0  0.10811626763E+02 -0.41341888752E+02 -0.75881618949E+01  0.43400728563E+02  0.00000000000E+00 0. -1.
         11    1    3    3    0    0  0.34132814027E+00  0.34667315973E+01  0.44433381685E+01  0.56460594407E+01  0.51100000000E-03 0.  1.
        -11    1    3    3    0    0 -0.12154180529E+02  0.19319629860E+02 -0.18483798145E+01  0.22899535158E+02  0.51100000000E-03 0. -1.
         12    1    3    3    0    0  0.10012256260E+01  0.18555527295E+02  0.49932035409E+01  0.19241676838E+02  0.00000000000E+00 0. -1.
</event>
<event>
 7    1  0.1620874E-010  0.4778727E+02  0.7816164E-02  0.1312668E+00
        -11   -1    0    0    0    0  0.00000000000E+00  0.00000000000E+00  0.45593999997E+02  0.45594000000E+02  0.51100000000E-03 0.  1.
         11   -1    0    0    0    0 -0.00000000000E+00 -0.00000000000E+00 -0.45593999997E+02  0.45594000000E+02  0.51100000000E-03 0. -1.
    9900012    2    1    2    0    0 -0.34566029911E+02  0.56232513596E+01  0.25635756205E+02  0.47787269869E+02  0.19999994642E+02 0.  0.
         12    1    1    2    0    0  0.34566029911E+02 -0.56232513596E+01 -0.25635756205E+02  0.43400730131E+02  0.00000000000E+00 0. -1.
         11    1    3    3    0    0 -0.13832337531E+02 -0.33279899970E+01  0.11582428065E+02  0.18345618527E+02  0.51100000000E-03 0. -1.
        -11    1    3    3    0    0 -0.18666983021E+02  0.83964865266E+01  0.16427547405E+02  0.26245410173E+02  0.51100000000E-03 0.  1.
         12    1    3    3    0    0 -0.20667093591E+01  0.55475483002E+00 -0.23742192654E+01  0.31962411700E+01  0.00000000000E+00 0. -1.
</event>
<event>
 7    1  0.1418970E-010  0.4778727E+02  0.7816164E-02  0.1312668E+00
        -11   -1    0    0    0    0  0.00000000000E+00  0.00000000000E+00  0.45593999997E+02  0.45594000000E+02  0.51100000000E-03 0.  1.
         11   -1    0    0    0    0 -0.00000000000E+00 -0.00000000000E+00 -0.45593999997E+02  0.45594000000E+02  0.51100000000E-03 0. -1.
    9900012    2    1    2    0    0 -0.29677055194E+01 -0.22382899015E+02  0.37065104082E+02  0.47787269765E+02  0.19999994166E+02 0.  0.
         12    1    1    2    0    0  0.29677055194E+01  0.22382899015E+02 -0.37065104082E+02  0.43400730235E+02  0.00000000000E+00 0. -1.
         11    1    3    3    0    0 -0.38362515697E+01 -0.74631732142E+01  0.64084172845E+01  0.10558579113E+02  0.51100000000E-03 0. -1.
        -11    1    3    3    0    0  0.45287656937E+01 -0.15685380149E+02  0.28674232184E+02  0.32996249192E+02  0.51100000000E-03 0.  1.
         12    1    3    3    0    0 -0.36602196434E+01  0.76565434825E+00  0.19824546128E+01  0.42324414598E+01  0.00000000000E+00 0. -1.
</event>
<event>
 7    1  0.1418970E-010  0.4778727E+02  0.7816164E-02  0.1312668E+00
        -11   -1    0    0    0    0  0.00000000000E+00  0.00000000000E+00  0.45593999997E+02  0.45594000000E+02  0.51100000000E-03 0.  1.
         11   -1    0    0    0    0 -0.00000000000E+00 -0.00000000000E+00 -0.45593999997E+02  0.45594000000E+02  0.51100000000E-03 0. -1.
    9900012    2    1    2    0    0  0.29711971241E+02 -0.19057066345E+02  0.25251740984E+02  0.47787269184E+02  0.19999991516E+02 0.  0.
         12    1    1    2    0    0 -0.29711971241E+02  0.19057066345E+02 -0.25251740984E+02  0.43400730816E+02  0.00000000000E+00 0. -1.
         11    1    3    3    0    0  0.10196028579E+01 -0.50907226409E+01 -0.11912900477E+01  0.53267456513E+01  0.51100000000E-03 0. -1.
        -11    1    3    3    0    0  0.45611390823E+01  0.92784329882E+00  0.21805579896E+01  0.51400113154E+01  0.51100000000E-03 0.  1.
        -12    1    3    3    0    0  0.24131229301E+02 -0.14894187003E+02  0.24262473042E+02  0.37320512217E+02  0.00000000000E+00 0.  1.
</event>
<event>
 7    1  0.1418970E-010  0.4778726E+02  0.7816164E-02  0.1312668E+00
        -11   -1    0    0    0    0  0.00000000000E+00  0.00000000000E+00  0.45593999997E+02  0.45594000000E+02  0.51100000000E-03 0.  1.
         11   -1    0    0    0    0 -0.00000000000E+00 -0.00000000000E+00 -0.45593999997E+02  0.45594000000E+02  0.51100000000E-03 0. -1.
    9900012    2    1    2    0    0  0.33168724795E+02 -0.27256359161E+02  0.63679312975E+01  0.47787263045E+02  0.19999963526E+02 0.  0.
         12    1    1    2    0    0 -0.33168724795E+02  0.27256359161E+02 -0.63679312975E+01  0.43400736955E+02  0.00000000000E+00 0. -1.
         11    1    3    3    0    0  0.13604371233E+02 -0.70549574098E+01 -0.32898898287E+01  0.15674014038E+02  0.51100000000E-03 0. -1.
        -11    1    3    3    0    0  0.19357793656E+02 -0.15456166342E+02  0.46366312074E+01  0.25201500004E+02  0.51100000000E-03 0.  1.
         12    1    3    3    0    0  0.20655990568E+00 -0.47452354094E+01  0.50211899188E+01  0.69117490034E+01  0.00000000000E+00 0. -1.
</event>
<event>
 7    1  0.1418970E-010  0.4778727E+02  0.7816164E-02  0.1312668E+00
        -11   -1    0    0    0    0  0.00000000000E+00  0.00000000000E+00  0.45593999997E+02  0.45594000000E+02  0.51100000000E-03 0.  1.
         11   -1    0    0    0    0 -0.00000000000E+00 -0.00000000000E+00 -0.45593999997E+02  0.45594000000E+02  0.51100000000E-03 0. -1.
    9900012    2    1    2    0    0  0.40030913006E+02 -0.24999633538E+01  0.16580088868E+02  0.47787272360E+02  0.20000005997E+02 0.  0.
         12    1    1    2    0    0 -0.40030913006E+02  0.24999633538E+01 -0.16580088868E+02  0.43400727640E+02  0.00000000000E+00 0. -1.
         11    1    3    3    0    0  0.86980439398E+01 -0.34405252112E+01  0.30920647862E+01  0.98516012409E+01  0.51100000000E-03 0.  1.
        -11    1    3    3    0    0  0.94825172233E+01  0.79088166915E+01  0.29464536521E+01  0.12694451691E+02  0.51100000000E-03 0. -1.
        -12    1    3    3    0    0  0.21850351843E+02 -0.69682548341E+01  0.10541570430E+02  0.25241219428E+02  0.00000000000E+00 0.  1.
</event>
<event>
 7    1  0.1418970E-010  0.4778727E+02  0.7816164E-02  0.1312668E+00
        -11   -1    0    0    0    0  0.00000000000E+00  0.00000000000E+00  0.45593999997E+02  0.45594000000E+02  0.51100000000E-03 0.  1.
         11   -1    0    0    0    0 -0.00000000000E+00 -0.00000000000E+00 -0.45593999997E+02  0.45594000000E+02  0.51100000000E-03 0. -1.
    9900012    2    1    2    0    0  0.43258713259E+02 -0.34904285033E+01  0.35192499203E+00  0.47787271720E+02  0.20000003082E+02 0.  0.
         12    1    1    2    0    0 -0.43258713259E+02  0.34904285033E+01 -0.35192499203E+00  0.43400728280E+02  0.00000000000E+00 0. -1.
         11    1    3    3    0    0  0.24913098835E+02 -0.77887353551E+00 -0.58707723061E+01  0.25607325227E+02  0.51100000000E-03 0. -1.
        -11    1    3    3    0    0  0.18803594261E+02 -0.45899843585E+01  0.56587876734E+01  0.20165936421E+02  0.51100000000E-03 0.  1.
         12    1    3    3    0    0 -0.45797983681E+00  0.18784293907E+01  0.56390962468E+00  0.20140100723E+01  0.00000000000E+00 0. -1.
</event>
<event>
 7    1  0.1418970E-010  0.4778727E+02  0.7816164E-02  0.1312668E+00
        -11   -1    0    0    0    0  0.00000000000E+00  0.00000000000E+00  0.45593999997E+02  0.45594000000E+02  0.51100000000E-03 0.  1.
         11   -1    0    0    0    0 -0.00000000000E+00 -0.00000000000E+00 -0.45593999997E+02  0.45594000000E+02  0.51100000000E-03 0. -1.
    9900012    2    1    2    0    0  0.22451725257E+02 -0.15668265707E+02  0.33675642930E+02  0.47787269084E+02  0.19999991061E+02 0.  0.
         12    1    1    2    0    0 -0.22451725257E+02  0.15668265707E+02 -0.33675642930E+02  0.43400730916E+02  0.00000000000E+00 0. -1.
         11    1    3    3    0    0  0.45696757596E+01 -0.91838208155E+01  0.46712714052E+01  0.11271436382E+02  0.51100000000E-03 0. -1.
        -11    1    3    3    0    0  0.65100945167E+01 -0.56570641825E+01  0.50702643208E+01  0.10004563275E+02  0.51100000000E-03 0.  1.
         12    1    3    3    0    0  0.11371954981E+02 -0.82738070856E+00  0.23934107204E+02  0.26511269426E+02  0.00000000000E+00 0. -1.
</event>
<event>
 7    1  0.1418970E-010  0.4778727E+02  0.7816164E-02  0.1312668E+00
        -11   -1    0    0    0    0  0.00000000000E+00  0.00000000000E+00  0.45593999997E+02  0.45594000000E+02  0.51100000000E-03 0. -1.
         11   -1    0    0    0    0 -0.00000000000E+00 -0.00000000000E+00 -0.45593999997E+02  0.45594000000E+02  0.51100000000E-03 0.  1.
    9900012    2    1    2    0    0  0.14170480859E+02 -0.37235815122E+02 -0.17213797903E+02  0.47787270815E+02  0.19999998954E+02 0.  0.
         12    1    1    2    0    0 -0.14170480859E+02  0.37235815122E+02  0.17213797903E+02  0.43400729185E+02  0.00000000000E+00 0. -1.
         11    1    3    3    0    0  0.26617469700E+01  0.41801033721E+00  0.20806951611E+01  0.34042506060E+01  0.51100000000E-03 0.  1.
        -11    1    3    3    0    0  0.63090622265E+00 -0.98320890137E+01 -0.69667108230E+01  0.12066610004E+02  0.51100000000E-03 0. -1.
        -12    1    3    3    0    0  0.10877827666E+02 -0.27821736445E+02 -0.12327782241E+02  0.32316410205E+02  0.00000000000E+00 0.  1.
</event>
<event>
 7    1  0.1418970E-010  0.4778727E+02  0.7816164E-02  0.1312668E+00
        -11   -1    0    0    0    0  0.00000000000E+00  0.00000000000E+00  0.45593999997E+02  0.45594000000E+02  0.51100000000E-03 0.  1.
         11   -1    0    0    0    0 -0.00000000000E+00 -0.00000000000E+00 -0.45593999997E+02  0.45594000000E+02  0.51100000000E-03 0. -1.
    9900012    2    1    2    0    0 -0.15949990661E+02  0.77019499586E+01  0.39621972957E+02  0.47787274473E+02  0.20000015631E+02 0.  0.
         12    1    1    2    0    0  0.15949990661E+02 -0.77019499586E+01 -0.39621972957E+02  0.43400725527E+02  0.00000000000E+00 0. -1.
         11    1    3    3    0    0  0.94960220468E+00  0.89288365661E+01  0.12574149503E+02  0.15451055070E+02  0.51100000000E-03 0. -1.
        -11    1    3    3    0    0 -0.13302677226E+00 -0.93783207954E+00  0.12787800629E+01  0.15913842534E+01  0.51100000000E-03 0.  1.
        -12    1    3    3    0    0 -0.16766566094E+02 -0.28905452799E+00  0.25769043391E+02  0.30744835150E+02  0.00000000000E+00 0.  1.
</event>
<event>
 7    1  0.1418970E-010  0.4778727E+02  0.7816164E-02  0.1312668E+00
        -11   -1    0    0    0    0  0.00000000000E+00  0.00000000000E+00  0.45593999997E+02  0.45594000000E+02  0.51100000000E-03 0.  1.
         11   -1    0    0    0    0 -0.00000000000E+00 -0.00000000000E+00 -0.45593999997E+02  0.45594000000E+02  0.51100000000E-03 0. -1.
    9900012    2    1    2    0    0 -0.26547929145E+02  0.31997603982E+02  0.12449258453E+02  0.47787271452E+02  0.20000001857E+02 0.  0.
         12    1    1    2    0    0  0.26547929145E+02 -0.31997603982E+02 -0.12449258453E+02  0.43400728548E+02  0.00000000000E+00 0. -1.
         11    1    3    3    0    0 -0.71610642103E+01  0.17731064753E+01  0.29710480889E+01  0.79531046897E+01  0.51100000000E-03 0. -1.
        -11    1    3    3    0    0 -0.63527557807E+01  0.21800274378E+02  0.86293023741E+01  0.24291445586E+02  0.51100000000E-03 0.  1.
         12    1    3    3    0    0 -0.13034109154E+02  0.84242231291E+01  0.84890798977E+00  0.15542721176E+02  0.00000000000E+00 0. -1.
</event>
<event>
 7    1  0.1418970E-010  0.4778727E+02  0.7816164E-02  0.1312668E+00
        -11   -1    0    0    0    0  0.00000000000E+00  0.00000000000E+00  0.45593999997E+02  0.45594000000E+02  0.51100000000E-03 0.  1.
         11   -1    0    0    0    0 -0.00000000000E+00 -0.00000000000E+00 -0.45593999997E+02  0.45594000000E+02  0.51100000000E-03 0. -1.
    9900012    2    1    2    0    0  0.33055402323E+02  0.10840300107E+02  0.25950947498E+02  0.47787269532E+02  0.19999993102E+02 0.  0.
         12    1    1    2    0    0 -0.33055402323E+02 -0.10840300107E+02 -0.25950947498E+02  0.43400730468E+02  0.00000000000E+00 0. -1.
         11    1    3    3    0    0  0.79420748999E+00 -0.37835404155E+00  0.65865868616E+01  0.66450766786E+01  0.51100000000E-03 0. -1.
        -11    1    3    3    0    0  0.15932876028E+02  0.11973776638E+02  0.11379066307E+02  0.22950185529E+02  0.51100000000E-03 0.  1.
        -12    1    3    3    0    0  0.16328318805E+02 -0.75512248911E+00  0.79852943286E+01  0.18192007324E+02  0.00000000000E+00 0.  1.
</event>
<event>
 7    1  0.1418970E-010  0.4778725E+02  0.7816164E-02  0.1312668E+00
        -11   -1    0    0    0    0  0.00000000000E+00  0.00000000000E+00  0.45593999997E+02  0.45594000000E+02  0.51100000000E-03 0.  1.
         11   -1    0    0    0    0 -0.00000000000E+00 -0.00000000000E+00 -0.45593999997E+02  0.45594000000E+02  0.51100000000E-03 0. -1.
    9900012    2    1    2    0    0  0.11146161930E+02 -0.40920091460E+02  0.92159834259E+01  0.47787249299E+02  0.19999900854E+02 0.  0.
         12    1    1    2    0    0 -0.11146161930E+02  0.40920091460E+02 -0.92159834259E+01  0.43400750701E+02  0.00000000000E+00 0. -1.
         11    1    3    3    0    0 -0.42431129914E+00 -0.10050608857E+01 -0.39765468177E+01  0.41234830322E+01  0.51100000000E-03 0. -1.
        -11    1    3    3    0    0  0.43922290113E+01 -0.14794715019E+02  0.37314256678E+01  0.15877619657E+02  0.51100000000E-03 0.  1.
         12    1    3    3    0    0  0.71782442180E+01 -0.25120315555E+02  0.94611045757E+01  0.27786146610E+02  0.00000000000E+00 0. -1.
</event>
<event>
 7    1  0.1418970E-010  0.4778728E+02  0.7816164E-02  0.1312668E+00
        -11   -1    0    0    0    0  0.00000000000E+00  0.00000000000E+00  0.45593999997E+02  0.45594000000E+02  0.51100000000E-03 0. -1.
         11   -1    0    0    0    0 -0.00000000000E+00 -0.00000000000E+00 -0.45593999997E+02  0.45594000000E+02  0.51100000000E-03 0.  1.
    9900012    2    1    2    0    0 -0.35319135856E+02 -0.24319038151E+02  0.66907036898E+01  0.47787280074E+02  0.20000041171E+02 0.  0.
         12    1    1    2    0    0  0.35319135856E+02  0.24319038151E+02 -0.66907036898E+01  0.43400719926E+02  0.00000000000E+00 0. -1.
         11    1    3    3    0    0 -0.12454497729E+02 -0.38847213566E+01 -0.28176773598E+01  0.13347092555E+02  0.51100000000E-03 0.  1.
        -11    1    3    3    0    0 -0.16971308858E+02 -0.74913659324E+01  0.77706565314E+01  0.20112906082E+02  0.51100000000E-03 0. -1.
         12    1    3    3    0    0 -0.58933292693E+01 -0.12942950862E+02  0.17377245182E+01  0.14327281437E+02  0.00000000000E+00 0. -1.
</event>
<event>
 7    1  0.1418970E-010  0.4778727E+02  0.7816164E-02  0.1312668E+00
        -11   -1    0    0    0    0  0.00000000000E+00  0.00000000000E+00  0.45593999997E+02  0.45594000000E+02  0.51100000000E-03 0.  1.
         11   -1    0    0    0    0 -0.00000000000E+00 -0.00000000000E+00 -0.45593999997E+02  0.45594000000E+02  0.51100000000E-03 0. -1.
    9900012    2    1    2    0    0  0.21932487861E+02  0.28289758172E+02  0.24541367194E+02  0.47787272529E+02  0.20000006770E+02 0.  0.
         12    1    1    2    0    0 -0.21932487861E+02 -0.28289758172E+02 -0.24541367194E+02  0.43400727471E+02  0.00000000000E+00 0. -1.
         11    1    3    3    0    0 -0.22144595990E+01 -0.72585468076E+00  0.31760852246E+01  0.39393164316E+01  0.51100000000E-03 0. -1.
        -11    1    3    3    0    0  0.10075585328E+02  0.74250588753E+01  0.67101378275E+01  0.14201227726E+02  0.51100000000E-03 0.  1.
         12    1    3    3    0    0  0.14071362131E+02  0.21590553978E+02  0.14655144142E+02  0.29646728372E+02  0.00000000000E+00 0. -1.
</event>
<event>
 7    1  0.1418970E-010  0.4778727E+02  0.7816164E-02  0.1312668E+00
        -11   -1    0    0    0    0  0.00000000000E+00  0.00000000000E+00  0.45593999997E+02  0.45594000000E+02  0.51100000000E-03 0.  1.
         11   -1    0    0    0    0 -0.00000000000E+00 -0.00000000000E+00 -0.45593999997E+02  0.45594000000E+02  0.51100000000E-03 0. -1.
    9900012    2    1    2    0    0 -0.15024043130E+01  0.15351351872E+02  0.40567251156E+02  0.47787273170E+02  0.20000009691E+02 0.  0.
         12    1    1    2    0    0  0.15024043130E+01 -0.15351351872E+02 -0.40567251156E+02  0.43400726830E+02  0.00000000000E+00 0. -1.
         11    1    3    3    0    0 -0.41359012870E+01  0.20405080193E+00  0.15401861690E+02  0.15948813748E+02  0.51100000000E-03 0.  1.
        -11    1    3    3    0    0 -0.47034518243E+01  0.49535689206E+01  0.72711903699E+01  0.99764980715E+01  0.51100000000E-03 0. -1.
        -12    1    3    3    0    0  0.73369487983E+01  0.10193732149E+02  0.17894199096E+02  0.21861961350E+02  0.00000000000E+00 0.  1.
</event>
<event>
 7    1  0.1418970E-010  0.4778727E+02  0.7816164E-02  0.1312668E+00
        -11   -1    0    0    0    0  0.00000000000E+00  0.00000000000E+00  0.45593999997E+02  0.45594000000E+02  0.51100000000E-03 0.  1.
         11   -1    0    0    0    0 -0.00000000000E+00 -0.00000000000E+00 -0.45593999997E+02  0.45594000000E+02  0.51100000000E-03 0. -1.
    9900012    2    1    2    0    0 -0.19162432382E+02  0.17455040993E+02  0.34810143886E+02  0.47787269727E+02  0.19999993994E+02 0.  0.
         12    1    1    2    0    0  0.19162432382E+02 -0.17455040993E+02 -0.34810143886E+02  0.43400730273E+02  0.00000000000E+00 0. -1.
         11    1    3    3    0    0 -0.14417899524E+02  0.18653308557E+02  0.22434676105E+02  0.32544376458E+02  0.51100000000E-03 0. -1.
        -11    1    3    3    0    0 -0.58540215270E+01  0.13754440211E+01  0.93678238773E+01  0.11131825491E+02  0.51100000000E-03 0.  1.
         12    1    3    3    0    0  0.11094886692E+01 -0.25737115856E+01  0.30076439038E+01  0.41110677792E+01  0.00000000000E+00 0. -1.
</event>
<event>
 7    1  0.1418970E-010  0.4778727E+02  0.7816164E-02  0.1312668E+00
        -11   -1    0    0    0    0  0.00000000000E+00  0.00000000000E+00  0.45593999997E+02  0.45594000000E+02  0.51100000000E-03 0.  1.
         11   -1    0    0    0    0 -0.00000000000E+00 -0.00000000000E+00 -0.45593999997E+02  0.45594000000E+02  0.51100000000E-03 0. -1.
    9900012    2    1    2    0    0 -0.21288062413E+02  0.55863679380E+01  0.37406343680E+02  0.47787266647E+02  0.19999979952E+02 0.  0.
         12    1    1    2    0    0  0.21288062413E+02 -0.55863679380E+01 -0.37406343680E+02  0.43400733353E+02  0.00000000000E+00 0. -1.
         11    1    3    3    0    0 -0.35341509947E+01  0.54906358446E+01  0.85675870270E+01  0.10772225998E+02  0.51100000000E-03 0. -1.
        -11    1    3    3    0    0 -0.64454449717E+01  0.73306041371E+01  0.12870033546E+02  0.16152996057E+02  0.51100000000E-03 0.  1.
         12    1    3    3    0    0 -0.11308466447E+02 -0.72348720437E+01  0.15968723107E+02  0.20862044592E+02  0.00000000000E+00 0. -1.
</event>
<event>
 7    1  0.1418970E-010  0.4778728E+02  0.7816164E-02  0.1312668E+00
        -11   -1    0    0    0    0  0.00000000000E+00  0.00000000000E+00  0.45593999997E+02  0.45594000000E+02  0.51100000000E-03 0.  1.
         11   -1    0    0    0    0 -0.00000000000E+00 -0.00000000000E+00 -0.45593999997E+02  0.45594000000E+02  0.51100000000E-03 0. -1.
    9900012    2    1    2    0    0  0.26544900375E+02  0.13136630657E+02  0.31724116934E+02  0.47787281156E+02  0.20000046104E+02 0.  0.
         12    1    1    2    0    0 -0.26544900375E+02 -0.13136630657E+02 -0.31724116934E+02  0.43400718844E+02  0.00000000000E+00 0. -1.
         11    1    3    3    0    0 -0.25745093578E+01  0.87142502405E+00  0.50699394568E+01  0.57525443382E+01  0.51100000000E-03 0. -1.
        -11    1    3    3    0    0  0.89660800844E+01  0.62901496306E+01  0.56704606402E+01  0.12333316609E+02  0.51100000000E-03 0.  1.
        -12    1    3    3    0    0  0.20153329648E+02  0.59750560027E+01  0.20983716837E+02  0.29701420209E+02  0.00000000000E+00 0.  1.
</event>
<event>
 7    1  0.1418970E-010  0.4778727E+02  0.7816164E-02  0.1312668E+00
        -11   -1    0    0    0    0  0.00000000000E+00  0.00000000000E+00  0.45593999997E+02  0.45594000000E+02  0.51100000000E-03 0.  1.
         11   -1    0    0    0    0 -0.00000000000E+00 -0.00000000000E+00 -0.45593999997E+02  0.45594000000E+02  0.51100000000E-03 0. -1.
    9900012    2    1    2    0    0 -0.30899714018E+02  0.13864495249E+02  0.27140506355E+02  0.47787266825E+02  0.19999980763E+02 0.  0.
         12    1    1    2    0    0  0.30899714018E+02 -0.13864495249E+02 -0.27140506355E+02  0.43400733175E+02  0.00000000000E+00 0. -1.
         11    1    3    3    0    0 -0.82228424446E+01 -0.16316964390E+00  0.13390744872E+02  0.15714764099E+02  0.51100000000E-03 0.  1.
        -11    1    3    3    0    0 -0.47215088162E+01  0.91339082040E+01  0.60682908109E+01  0.11939224355E+02  0.51100000000E-03 0. -1.
         12    1    3    3    0    0 -0.17955362758E+02  0.48937566885E+01  0.76814706719E+01  0.20133278371E+02  0.00000000000E+00 0. -1.
</event>
<event>
 7    1  0.1418970E-010  0.4778727E+02  0.7816164E-02  0.1312668E+00
        -11   -1    0    0    0    0  0.00000000000E+00  0.00000000000E+00  0.45593999997E+02  0.45594000000E+02  0.51100000000E-03 0.  1.
         11   -1    0    0    0    0 -0.00000000000E+00 -0.00000000000E+00 -0.45593999997E+02  0.45594000000E+02  0.51100000000E-03 0. -1.
    9900012    2    1    2    0    0  0.34371394067E+02  0.68836998744E+01  0.25589940375E+02  0.47787273019E+02  0.20000009003E+02 0.  0.
         12    1    1    2    0    0 -0.34371394067E+02 -0.68836998744E+01 -0.25589940375E+02  0.43400726981E+02  0.00000000000E+00 0. -1.
         11    1    3    3    0    0  0.12175424687E+02  0.35054171688E+01  0.15429340739E+02  0.19964805827E+02  0.51100000000E-03 0. -1.
        -11    1    3    3    0    0  0.18812225728E+02  0.32924193765E+01  0.13246240945E+02  0.23242262404E+02  0.51100000000E-03 0.  1.
         12    1    3    3    0    0  0.33837436519E+01  0.85863329148E-01 -0.30856413088E+01  0.45802047879E+01  0.00000000000E+00 0. -1.
</event>
<event>
 7    1  0.1418970E-010  0.4778727E+02  0.7816164E-02  0.1312668E+00
        -11   -1    0    0    0    0  0.00000000000E+00  0.00000000000E+00  0.45593999997E+02  0.45594000000E+02  0.51100000000E-03 0. -1.
         11   -1    0    0    0    0 -0.00000000000E+00 -0.00000000000E+00 -0.45593999997E+02  0.45594000000E+02  0.51100000000E-03 0.  1.
    9900012    2    1    2    0    0  0.22065701912E+02  0.13076152539E+02 -0.35010600329E+02  0.47787273031E+02  0.20000009057E+02 0.  0.
         12    1    1    2    0    0 -0.22065701912E+02 -0.13076152539E+02  0.35010600329E+02  0.43400726969E+02  0.00000000000E+00 0. -1.
         11    1    3    3    0    0  0.82302721271E+01 -0.15247447241E+01 -0.19893489409E+02  0.21582704810E+02  0.51100000000E-03 0. -1.
        -11    1    3    3    0    0  0.10837486308E+02  0.67314961731E+01 -0.10931292880E+02  0.16800515305E+02  0.51100000000E-03 0.  1.
         12    1    3    3    0    0  0.29979434765E+01  0.78694010896E+01 -0.41858180393E+01  0.94040529165E+01  0.00000000000E+00 0. -1.
</event>
<event>
 7    1  0.1418970E-010  0.4778727E+02  0.7816164E-02  0.1312668E+00
        -11   -1    0    0    0    0  0.00000000000E+00  0.00000000000E+00  0.45593999997E+02  0.45594000000E+02  0.51100000000E-03 0.  1.
         11   -1    0    0    0    0 -0.00000000000E+00 -0.00000000000E+00 -0.45593999997E+02  0.45594000000E+02  0.51100000000E-03 0. -1.
    9900012    2    1    2    0    0 -0.23141158173E+02 -0.19360675771E+02  0.31197342790E+02  0.47787272298E+02  0.20000005715E+02 0.  0.
         12    1    1    2    0    0  0.23141158173E+02  0.19360675771E+02 -0.31197342790E+02  0.43400727702E+02  0.00000000000E+00 0. -1.
         11    1    3    3    0    0 -0.13785864889E+01 -0.43611704763E+01  0.95050392176E+01  0.10548273765E+02  0.51100000000E-03 0. -1.
        -11    1    3    3    0    0 -0.61564791433E+01 -0.47746598045E+01  0.15894966559E+02  0.17701682798E+02  0.51100000000E-03 0.  1.
        -12    1    3    3    0    0 -0.15606092541E+02 -0.10224845490E+02  0.57973370137E+01  0.19537315735E+02  0.00000000000E+00 0.  1.
</event>
<event>
 7    1  0.1418970E-010  0.4778727E+02  0.7816164E-02  0.1312668E+00
        -11   -1    0    0    0    0  0.00000000000E+00  0.00000000000E+00  0.45593999997E+02  0.45594000000E+02  0.51100000000E-03 0.  1.
         11   -1    0    0    0    0 -0.00000000000E+00 -0.00000000000E+00 -0.45593999997E+02  0.45594000000E+02  0.51100000000E-03 0. -1.
    9900012    2    1    2    0    0  0.40879303848E+02  0.91137462005E+01  0.11377405163E+02  0.47787271882E+02  0.20000003820E+02 0.  0.
         12    1    1    2    0    0 -0.40879303848E+02 -0.91137462005E+01 -0.11377405163E+02  0.43400728118E+02  0.00000000000E+00 0. -1.
         11    1    3    3    0    0  0.98954358042E+00  0.16494850508E+01  0.34060369111E+01  0.39116601503E+01  0.51100000000E-03 0. -1.
        -11    1    3    3    0    0  0.27956263406E+02  0.82703832877E+01 -0.60109935899E+00  0.29160130728E+02  0.51100000000E-03 0.  1.
        -12    1    3    3    0    0  0.11933496862E+02 -0.80612213811E+00  0.85724676111E+01  0.14715481004E+02  0.00000000000E+00 0.  1.
</event>
<event>
 7    1  0.1418970E-010  0.4778727E+02  0.7816164E-02  0.1312668E+00
        -11   -1    0    0    0    0  0.00000000000E+00  0.00000000000E+00  0.45593999997E+02  0.45594000000E+02  0.51100000000E-03 0.  1.
         11   -1    0    0    0    0 -0.00000000000E+00 -0.00000000000E+00 -0.45593999997E+02  0.45594000000E+02  0.51100000000E-03 0. -1.
    9900012    2    1    2    0    0 -0.28666770095E+02  0.26534806579E+02  0.18914112216E+02  0.47787270643E+02  0.19999998168E+02 0.  0.
         12    1    1    2    0    0  0.28666770095E+02 -0.26534806579E+02 -0.18914112216E+02  0.43400729357E+02  0.00000000000E+00 0. -1.
         11    1    3    3    0    0  0.10609230586E+01 -0.15355476026E-01  0.53014078243E+01  0.54065440633E+01  0.51100000000E-03 0. -1.
        -11    1    3    3    0    0 -0.12499596379E+02  0.81321578740E+01  0.53189783520E+01  0.15832353972E+02  0.51100000000E-03 0.  1.
        -12    1    3    3    0    0 -0.17228096774E+02  0.18418004181E+02  0.82937260400E+01  0.26548372607E+02  0.00000000000E+00 0.  1.
</event>
<event>
 7    1  0.1418970E-010  0.4778727E+02  0.7816164E-02  0.1312668E+00
        -11   -1    0    0    0    0  0.00000000000E+00  0.00000000000E+00  0.45593999997E+02  0.45594000000E+02  0.51100000000E-03 0.  1.
         11   -1    0    0    0    0 -0.00000000000E+00 -0.00000000000E+00 -0.45593999997E+02  0.45594000000E+02  0.51100000000E-03 0. -1.
    9900012    2    1    2    0    0  0.18209868754E+02  0.34549719145E+02  0.18929894259E+02  0.47787270632E+02  0.19999998119E+02 0.  0.
         12    1    1    2    0    0 -0.18209868754E+02 -0.34549719145E+02 -0.18929894259E+02  0.43400729368E+02  0.00000000000E+00 0. -1.
         11    1    3    3    0    0 -0.10270904630E+01  0.31719131326E+01  0.24382605270E+01  0.41305038916E+01  0.51100000000E-03 0. -1.
        -11    1    3    3    0    0  0.22277959201E+02  0.26019575396E+02  0.13680566887E+02  0.36884735062E+02  0.51100000000E-03 0.  1.
        -12    1    3    3    0    0 -0.30409999848E+01  0.53582306162E+01  0.28110668445E+01  0.67720316781E+01  0.00000000000E+00 0.  1.
</event>
<event>
 7    1  0.1418970E-010  0.4778727E+02  0.7816164E-02  0.1312668E+00
        -11   -1    0    0    0    0  0.00000000000E+00  0.00000000000E+00  0.45593999997E+02  0.45594000000E+02  0.51100000000E-03 0.  1.
         11   -1    0    0    0    0 -0.00000000000E+00 -0.00000000000E+00 -0.45593999997E+02  0.45594000000E+02  0.51100000000E-03 0. -1.
    9900012    2    1    2    0    0 -0.44724706372E+01  0.13412715638E+02  0.41033151400E+02  0.47787269036E+02  0.19999990843E+02 0.  0.
         12    1    1    2    0    0  0.44724706372E+01 -0.13412715638E+02 -0.41033151400E+02  0.43400730964E+02  0.00000000000E+00 0. -1.
         11    1    3    3    0    0 -0.52989839223E+01  0.10623522731E+02  0.97150050179E+01  0.15340136524E+02  0.51100000000E-03 0. -1.
        -11    1    3    3    0    0  0.54079787231E+00  0.55911561625E+01  0.19121145322E+02  0.19929166772E+02  0.51100000000E-03 0.  1.
         12    1    3    3    0    0  0.28571541284E+00 -0.28019632555E+01  0.12197001061E+02  0.12517965739E+02  0.00000000000E+00 0. -1.
</event>
<event>
 7    1  0.1418970E-010  0.4778728E+02  0.7816164E-02  0.1312668E+00
        -11   -1    0    0    0    0  0.00000000000E+00  0.00000000000E+00  0.45593999997E+02  0.45594000000E+02  0.51100000000E-03 0.  1.
         11   -1    0    0    0    0 -0.00000000000E+00 -0.00000000000E+00 -0.45593999997E+02  0.45594000000E+02  0.51100000000E-03 0. -1.
    9900012    2    1    2    0    0  0.27396115727E+01  0.32510263693E+02  0.28621673722E+02  0.47787275079E+02  0.20000018396E+02 0.  0.
         12    1    1    2    0    0 -0.27396115727E+01 -0.32510263693E+02 -0.28621673722E+02  0.43400724921E+02  0.00000000000E+00 0. -1.
         11    1    3    3    0    0  0.26300629454E+01  0.14639019541E+02  0.20449765041E+02  0.25286577758E+02  0.51100000000E-03 0. -1.
        -11    1    3    3    0    0  0.42827863985E+01  0.15582908059E+02  0.69154523846E+01  0.17578190034E+02  0.51100000000E-03 0.  1.
        -12    1    3    3    0    0 -0.41732377713E+01  0.22883360929E+01  0.12564562968E+01  0.49225072875E+01  0.00000000000E+00 0.  1.
</event>
<event>
 7    1  0.2001142E-010  0.4778727E+02  0.7816164E-02  0.1312668E+00
        -11   -1    0    0    0    0  0.00000000000E+00  0.00000000000E+00  0.45593999997E+02  0.45594000000E+02  0.51100000000E-03 0. -1.
         11   -1    0    0    0    0 -0.00000000000E+00 -0.00000000000E+00 -0.45593999997E+02  0.45594000000E+02  0.51100000000E-03 0.  1.
    9900012    2    1    2    0    0 -0.17260697683E+02 -0.92529448503E+00 -0.39809992621E+02  0.47787269973E+02  0.19999995117E+02 0.  0.
         12    1    1    2    0    0  0.17260697683E+02  0.92529448503E+00  0.39809992621E+02  0.43400730027E+02  0.00000000000E+00 0. -1.
         11    1    3    3    0    0 -0.59216917102E+01 -0.44392168284E+01 -0.10181362350E+02  0.12587025793E+02  0.51100000000E-03 0. -1.
        -11    1    3    3    0    0 -0.11109773393E+02  0.54572185399E+01 -0.30605120060E+02  0.33013355982E+02  0.51100000000E-03 0.  1.
         12    1    3    3    0    0 -0.22923257906E+00 -0.19432961965E+01  0.97648978916E+00  0.21868881981E+01  0.00000000000E+00 0. -1.
</event>
<event>
 7    1  0.1418970E-010  0.4778727E+02  0.7816164E-02  0.1312668E+00
        -11   -1    0    0    0    0  0.00000000000E+00  0.00000000000E+00  0.45593999997E+02  0.45594000000E+02  0.51100000000E-03 0.  1.
         11   -1    0    0    0    0 -0.00000000000E+00 -0.00000000000E+00 -0.45593999997E+02  0.45594000000E+02  0.51100000000E-03 0. -1.
    9900012    2    1    2    0    0  0.29712330967E+02 -0.28974187104E+02  0.12700279919E+02  0.47787271437E+02  0.20000001788E+02 0.  0.
         12    1    1    2    0    0 -0.29712330967E+02  0.28974187104E+02 -0.12700279919E+02  0.43400728563E+02  0.00000000000E+00 0. -1.
         11    1    3    3    0    0  0.85726291771E+01 -0.12000218454E+02  0.13124589349E+01  0.14806004277E+02  0.51100000000E-03 0. -1.
        -11    1    3    3    0    0  0.17191442321E+02 -0.12005491791E+02  0.14904427943E+02  0.25725852655E+02  0.51100000000E-03 0.  1.
        -12    1    3    3    0    0  0.39482594690E+01 -0.49684768589E+01 -0.35166069590E+01  0.72554145047E+01  0.00000000000E+00 0.  1.
</event>
<event>
 7    1  0.1418970E-010  0.4778727E+02  0.7816164E-02  0.1312668E+00
        -11   -1    0    0    0    0  0.00000000000E+00  0.00000000000E+00  0.45593999997E+02  0.45594000000E+02  0.51100000000E-03 0.  1.
         11   -1    0    0    0    0 -0.00000000000E+00 -0.00000000000E+00 -0.45593999997E+02  0.45594000000E+02  0.51100000000E-03 0. -1.
    9900012    2    1    2    0    0  0.69237075088E+00 -0.41860953029E+02  0.11436970803E+02  0.47787273429E+02  0.20000010874E+02 0.  0.
         12    1    1    2    0    0 -0.69237075088E+00  0.41860953029E+02 -0.11436970803E+02  0.43400726571E+02  0.00000000000E+00 0. -1.
         11    1    3    3    0    0 -0.93664556425E+00 -0.50334876634E+01  0.68758804833E+01  0.85726912724E+01  0.51100000000E-03 0. -1.
        -11    1    3    3    0    0  0.54302106678E+01 -0.13816380874E+02 -0.20173984270E+01  0.14981637595E+02  0.51100000000E-03 0.  1.
         12    1    3    3    0    0 -0.38011943526E+01 -0.23011084491E+02  0.65784887463E+01  0.24232944562E+02  0.00000000000E+00 0. -1.
</event>
<event>
 7    1  0.1418970E-010  0.4778727E+02  0.7816164E-02  0.1312668E+00
        -11   -1    0    0    0    0  0.00000000000E+00  0.00000000000E+00  0.45593999997E+02  0.45594000000E+02  0.51100000000E-03 0.  1.
         11   -1    0    0    0    0 -0.00000000000E+00 -0.00000000000E+00 -0.45593999997E+02  0.45594000000E+02  0.51100000000E-03 0. -1.
    9900012    2    1    2    0    0  0.18357947658E+02 -0.39199213667E+02  0.31671278256E+01  0.47787270825E+02  0.19999998998E+02 0.  0.
         12    1    1    2    0    0 -0.18357947658E+02  0.39199213667E+02 -0.31671278256E+01  0.43400729175E+02  0.00000000000E+00 0. -1.
         11    1    3    3    0    0  0.87202808161E+01 -0.29939408201E+02  0.79888601533E+01  0.32190578556E+02  0.51100000000E-03 0.  1.
        -11    1    3    3    0    0  0.47090554954E+00 -0.57624506537E+00 -0.26903273221E+01  0.27913566188E+01  0.51100000000E-03 0. -1.
        -12    1    3    3    0    0  0.91667612924E+01 -0.86835604003E+01 -0.21314050056E+01  0.12805335650E+02  0.00000000000E+00 0.  1.
</event>
<event>
 7    1  0.1418970E-010  0.4778727E+02  0.7816164E-02  0.1312668E+00
        -11   -1    0    0    0    0  0.00000000000E+00  0.00000000000E+00  0.45593999997E+02  0.45594000000E+02  0.51100000000E-03 0.  1.
         11   -1    0    0    0    0 -0.00000000000E+00 -0.00000000000E+00 -0.45593999997E+02  0.45594000000E+02  0.51100000000E-03 0. -1.
    9900012    2    1    2    0    0  0.56159537309E+00 -0.21369692319E+02  0.37770943108E+02  0.47787270946E+02  0.19999999551E+02 0.  0.
         12    1    1    2    0    0 -0.56159537309E+00  0.21369692319E+02 -0.37770943108E+02  0.43400729054E+02  0.00000000000E+00 0. -1.
         11    1    3    3    0    0  0.94428918450E-01 -0.14303114780E+02  0.17422604169E+02  0.22541853196E+02  0.51100000000E-03 0. -1.
        -11    1    3    3    0    0 -0.33210042313E+01 -0.64837317228E+01  0.20128721791E+02  0.21406384267E+02  0.51100000000E-03 0.  1.
        -12    1    3    3    0    0  0.37881706859E+01 -0.58284581589E+00  0.21961714763E+00  0.38390334828E+01  0.00000000000E+00 0.  1.
</event>
<event>
 7    1  0.1418970E-010  0.4778727E+02  0.7816164E-02  0.1312668E+00
        -11   -1    0    0    0    0  0.00000000000E+00  0.00000000000E+00  0.45593999997E+02  0.45594000000E+02  0.51100000000E-03 0. -1.
         11   -1    0    0    0    0 -0.00000000000E+00 -0.00000000000E+00 -0.45593999997E+02  0.45594000000E+02  0.51100000000E-03 0.  1.
    9900012    2    1    2    0    0  0.28786425433E+02 -0.18834261116E+02 -0.26461968335E+02  0.47787269025E+02  0.19999990792E+02 0.  0.
         12    1    1    2    0    0 -0.28786425433E+02  0.18834261116E+02  0.26461968335E+02  0.43400730975E+02  0.00000000000E+00 0. -1.
         11    1    3    3    0    0  0.85691754392E+01 -0.16569661166E+01 -0.12740286167E+02  0.15443160178E+02  0.51100000000E-03 0.  1.
        -11    1    3    3    0    0  0.25138028381E+01 -0.18735447639E-01  0.19054968198E+01  0.31544372109E+01  0.51100000000E-03 0. -1.
        -12    1    3    3    0    0  0.17703447156E+02 -0.17158559552E+02 -0.15627178988E+02  0.29189671636E+02  0.00000000000E+00 0.  1.
</event>
<event>
 7    1  0.1418970E-010  0.4778727E+02  0.7816164E-02  0.1312668E+00
        -11   -1    0    0    0    0  0.00000000000E+00  0.00000000000E+00  0.45593999997E+02  0.45594000000E+02  0.51100000000E-03 0.  1.
         11   -1    0    0    0    0 -0.00000000000E+00 -0.00000000000E+00 -0.45593999997E+02  0.45594000000E+02  0.51100000000E-03 0. -1.
    9900012    2    1    2    0    0 -0.35657865156E+02  0.22628884726E+02  0.10003672539E+02  0.47787271484E+02  0.20000002006E+02 0.  0.
         12    1    1    2    0    0  0.35657865156E+02 -0.22628884726E+02 -0.10003672539E+02  0.43400728516E+02  0.00000000000E+00 0. -1.
         11    1    3    3    0    0  0.37776661075E+00  0.21665562237E+01  0.96827892598E+00  0.24029643822E+01  0.51100000000E-03 0. -1.
        -11    1    3    3    0    0 -0.26181957791E+01 -0.14528015212E+01  0.41600134164E+01  0.51255529734E+01  0.51100000000E-03 0.  1.
         12    1    3    3    0    0 -0.33417435988E+02  0.21915130023E+02  0.48753801971E+01  0.40258754129E+02  0.00000000000E+00 0. -1.
</event>
<event>
 7    1  0.1418970E-010  0.4778727E+02  0.7816164E-02  0.1312668E+00
        -11   -1    0    0    0    0  0.00000000000E+00  0.00000000000E+00  0.45593999997E+02  0.45594000000E+02  0.51100000000E-03 0.  1.
         11   -1    0    0    0    0 -0.00000000000E+00 -0.00000000000E+00 -0.45593999997E+02  0.45594000000E+02  0.51100000000E-03 0. -1.
    9900012    2    1    2    0    0 -0.96063453525E+01  0.41452322115E+02  0.85467199530E+01  0.47787270724E+02  0.19999998537E+02 0.  0.
         12    1    1    2    0    0  0.96063453525E+01 -0.41452322115E+02 -0.85467199530E+01  0.43400729276E+02  0.00000000000E+00 0. -1.
         11    1    3    3    0    0 -0.19808960794E+01  0.75117087552E+01 -0.14714121182E+01  0.79066283322E+01  0.51100000000E-03 0. -1.
        -11    1    3    3    0    0 -0.10371497811E+02  0.29754562725E+02  0.35622688344E+01  0.31711066355E+02  0.51100000000E-03 0.  1.
        -12    1    3    3    0    0  0.27460485381E+01  0.41860506346E+01  0.64558632369E+01  0.81695760369E+01  0.00000000000E+00 0.  1.
</event>
<event>
 7    1  0.1418970E-010  0.4778727E+02  0.7816164E-02  0.1312668E+00
        -11   -1    0    0    0    0  0.00000000000E+00  0.00000000000E+00  0.45593999997E+02  0.45594000000E+02  0.51100000000E-03 0. -1.
         11   -1    0    0    0    0 -0.00000000000E+00 -0.00000000000E+00 -0.45593999997E+02  0.45594000000E+02  0.51100000000E-03 0.  1.
    9900012    2    1    2    0    0 -0.37329098182E+02  0.22121117582E+02 -0.90444682708E+00  0.47787269151E+02  0.19999991367E+02 0.  0.
         12    1    1    2    0    0  0.37329098182E+02 -0.22121117582E+02  0.90444682708E+00  0.43400730849E+02  0.00000000000E+00 0. -1.
         11    1    3    3    0    0 -0.11970445546E+02  0.16247906380E+01  0.24159315541E+01  0.12319425178E+02  0.51100000000E-03 0. -1.
        -11    1    3    3    0    0 -0.10165123859E+02  0.14622279783E+02  0.28768529284E+01  0.18039320724E+02  0.51100000000E-03 0.  1.
         12    1    3    3    0    0 -0.15193528777E+02  0.58740471609E+01 -0.61972313096E+01  0.17428523249E+02  0.00000000000E+00 0. -1.
</event>
<event>
 7    1  0.1418970E-010  0.4778727E+02  0.7816164E-02  0.1312668E+00
        -11   -1    0    0    0    0  0.00000000000E+00  0.00000000000E+00  0.45593999997E+02  0.45594000000E+02  0.51100000000E-03 0.  1.
         11   -1    0    0    0    0 -0.00000000000E+00 -0.00000000000E+00 -0.45593999997E+02  0.45594000000E+02  0.51100000000E-03 0. -1.
    9900012    2    1    2    0    0  0.35370734120E+02  0.21427080184E+02  0.13168699405E+02  0.47787271418E+02  0.20000001704E+02 0.  0.
         12    1    1    2    0    0 -0.35370734120E+02 -0.21427080184E+02 -0.13168699405E+02  0.43400728582E+02  0.00000000000E+00 0. -1.
         11    1    3    3    0    0  0.54402906556E+01 -0.33420287235E+01  0.12653706156E+01  0.65090000355E+01  0.51100000000E-03 0. -1.
        -11    1    3    3    0    0  0.14481995021E+02  0.99999771782E+01  0.19660498906E+01  0.17708559393E+02  0.51100000000E-03 0.  1.
        -12    1    3    3    0    0  0.15448448444E+02  0.14769131730E+02  0.99372788983E+01  0.23569711990E+02  0.00000000000E+00 0.  1.
</event>
<event>
 7    1  0.1418970E-010  0.4778728E+02  0.7816164E-02  0.1312668E+00
        -11   -1    0    0    0    0  0.00000000000E+00  0.00000000000E+00  0.45593999997E+02  0.45594000000E+02  0.51100000000E-03 0.  1.
         11   -1    0    0    0    0 -0.00000000000E+00 -0.00000000000E+00 -0.45593999997E+02  0.45594000000E+02  0.51100000000E-03 0. -1.
    9900012    2    1    2    0    0  0.23022071764E+02  0.18370554348E+02  0.31876779223E+02  0.47787284464E+02  0.20000061187E+02 0.  0.
         12    1    1    2    0    0 -0.23022071764E+02 -0.18370554348E+02 -0.31876779223E+02  0.43400715536E+02  0.00000000000E+00 0. -1.
         11    1    3    3    0    0  0.17279827667E+02  0.16640282739E+02  0.14954918401E+02  0.28269082731E+02  0.51100000000E-03 0. -1.
        -11    1    3    3    0    0 -0.15205767495E+01  0.90195891420E-01  0.71476828237E+00  0.16826119305E+01  0.51100000000E-03 0.  1.
        -12    1    3    3    0    0  0.72628208464E+01  0.16400757177E+01  0.16207092540E+02  0.17835589803E+02  0.00000000000E+00 0.  1.
</event>
<event>
 7    1  0.1418970E-010  0.4778727E+02  0.7816164E-02  0.1312668E+00
        -11   -1    0    0    0    0  0.00000000000E+00  0.00000000000E+00  0.45593999997E+02  0.45594000000E+02  0.51100000000E-03 0.  1.
         11   -1    0    0    0    0 -0.00000000000E+00 -0.00000000000E+00 -0.45593999997E+02  0.45594000000E+02  0.51100000000E-03 0. -1.
    9900012    2    1    2    0    0  0.23865743426E+01  0.29360673354E+02  0.31872845858E+02  0.47787272126E+02  0.20000004933E+02 0.  0.
         12    1    1    2    0    0 -0.23865743426E+01 -0.29360673354E+02 -0.31872845858E+02  0.43400727874E+02  0.00000000000E+00 0. -1.
         11    1    3    3    0    0 -0.25886059010E+01  0.59264378212E+01  0.58938593717E+01  0.87499213891E+01  0.51100000000E-03 0.  1.
        -11    1    3    3    0    0  0.10743167847E+02  0.11377181851E+02  0.15796844366E+02  0.22235022250E+02  0.51100000000E-03 0. -1.
         12    1    3    3    0    0 -0.57679876028E+01  0.12057053681E+02  0.10182142120E+02  0.16802328488E+02  0.00000000000E+00 0. -1.
</event>
<event>
 7    1  0.1418970E-010  0.4778727E+02  0.7816164E-02  0.1312668E+00
        -11   -1    0    0    0    0  0.00000000000E+00  0.00000000000E+00  0.45593999997E+02  0.45594000000E+02  0.51100000000E-03 0. -1.
         11   -1    0    0    0    0 -0.00000000000E+00 -0.00000000000E+00 -0.45593999997E+02  0.45594000000E+02  0.51100000000E-03 0.  1.
    9900012    2    1    2    0    0 -0.13025000306E+02  0.50451274855E+01 -0.41091596856E+02  0.47787271015E+02  0.19999999864E+02 0.  0.
         12    1    1    2    0    0  0.13025000306E+02 -0.50451274855E+01  0.41091596856E+02  0.43400728985E+02  0.00000000000E+00 0. -1.
         11    1    3    3    0    0  0.17730931457E+01  0.56888231357E+01 -0.47918478320E+01  0.76464615267E+01  0.51100000000E-03 0. -1.
        -11    1    3    3    0    0 -0.44516228501E+01 -0.32033132169E+01 -0.65698964570E+01  0.85581365543E+01  0.51100000000E-03 0.  1.
        -12    1    3    3    0    0 -0.10346470602E+02  0.25596175667E+01 -0.29729852567E+02  0.31582672934E+02  0.00000000000E+00 0.  1.
</event>
<event>
 7    1  0.1418970E-010  0.4778727E+02  0.7816164E-02  0.1312668E+00
        -11   -1    0    0    0    0  0.00000000000E+00  0.00000000000E+00  0.45593999997E+02  0.45594000000E+02  0.51100000000E-03 0.  1.
         11   -1    0    0    0    0 -0.00000000000E+00 -0.00000000000E+00 -0.45593999997E+02  0.45594000000E+02  0.51100000000E-03 0. -1.
    9900012    2    1    2    0    0 -0.14156120624E+02 -0.34609698526E+02  0.22031715224E+02  0.47787268913E+02  0.19999990281E+02 0.  0.
         12    1    1    2    0    0  0.14156120624E+02  0.34609698526E+02 -0.22031715224E+02  0.43400731087E+02  0.00000000000E+00 0. -1.
         11    1    3    3    0    0 -0.99614903288E+01 -0.18845226119E+02  0.54424668290E+01  0.21999870056E+02  0.51100000000E-03 0. -1.
        -11    1    3    3    0    0 -0.28062372049E+01  0.95434300762E+00  0.23435286357E+01  0.37786061655E+01  0.51100000000E-03 0.  1.
        -12    1    3    3    0    0 -0.13883930900E+01 -0.16718815415E+02  0.14245719760E+02  0.22008792691E+02  0.00000000000E+00 0.  1.
</event>
<event>
 7    1  0.1418970E-010  0.4778727E+02  0.7816164E-02  0.1312668E+00
        -11   -1    0    0    0    0  0.00000000000E+00  0.00000000000E+00  0.45593999997E+02  0.45594000000E+02  0.51100000000E-03 0.  1.
         11   -1    0    0    0    0 -0.00000000000E+00 -0.00000000000E+00 -0.45593999997E+02  0.45594000000E+02  0.51100000000E-03 0. -1.
    9900012    2    1    2    0    0 -0.21904358223E+02 -0.33630853657E+02  0.16516302461E+02  0.47787268741E+02  0.19999989496E+02 0.  0.
         12    1    1    2    0    0  0.21904358223E+02  0.33630853657E+02 -0.16516302461E+02  0.43400731259E+02  0.00000000000E+00 0. -1.
         11    1    3    3    0    0  0.10060393447E+01 -0.44906347345E+01  0.31591912500E+01  0.55819714346E+01  0.51100000000E-03 0. -1.
        -11    1    3    3    0    0 -0.19952382312E+02 -0.24221416202E+02  0.16715394074E+02  0.35555294431E+02  0.51100000000E-03 0.  1.
         12    1    3    3    0    0 -0.29580152563E+01 -0.49188027204E+01 -0.33582828625E+01  0.66500028755E+01  0.00000000000E+00 0. -1.
</event>
<event>
 7    1  0.1418970E-010  0.4778727E+02  0.7816164E-02  0.1312668E+00
        -11   -1    0    0    0    0  0.00000000000E+00  0.00000000000E+00  0.45593999997E+02  0.45594000000E+02  0.51100000000E-03 0. -1.
         11   -1    0    0    0    0 -0.00000000000E+00 -0.00000000000E+00 -0.45593999997E+02  0.45594000000E+02  0.51100000000E-03 0.  1.
    9900012    2    1    2    0    0  0.73172861689E+01  0.25218578419E+02 -0.34555807004E+02  0.47787272217E+02  0.20000005347E+02 0.  0.
         12    1    1    2    0    0 -0.73172861689E+01 -0.25218578419E+02  0.34555807004E+02  0.43400727783E+02  0.00000000000E+00 0. -1.
         11    1    3    3    0    0  0.61885350213E+00  0.64171179705E+01  0.13940532965E+01  0.65958902022E+01  0.51100000000E-03 0. -1.
        -11    1    3    3    0    0  0.21141784431E+01  0.93109446408E+01 -0.16160891842E+02  0.18770665038E+02  0.51100000000E-03 0.  1.
         12    1    3    3    0    0  0.45842542237E+01  0.94905158078E+01 -0.19788968459E+02  0.22420716977E+02  0.00000000000E+00 0. -1.
</event>
<event>
 7    1  0.1671287E-010  0.4778728E+02  0.7816164E-02  0.1312668E+00
        -11   -1    0    0    0    0  0.00000000000E+00  0.00000000000E+00  0.45593999997E+02  0.45594000000E+02  0.51100000000E-03 0. -1.
         11   -1    0    0    0    0 -0.00000000000E+00 -0.00000000000E+00 -0.45593999997E+02  0.45594000000E+02  0.51100000000E-03 0.  1.
    9900012    2    1    2    0    0 -0.28261155852E+02  0.30288199732E+02 -0.12944274402E+02  0.47787283268E+02  0.20000055731E+02 0.  0.
         12    1    1    2    0    0  0.28261155852E+02 -0.30288199732E+02  0.12944274402E+02  0.43400716732E+02  0.00000000000E+00 0. -1.
         11    1    3    3    0    0 -0.24492813906E+01  0.99646418529E+01  0.25683611695E+01  0.10577785493E+02  0.51100000000E-03 0. -1.
        -11    1    3    3    0    0 -0.12009120114E+02  0.13069229159E+02 -0.11359927763E+02  0.21073008228E+02  0.51100000000E-03 0.  1.
        -12    1    3    3    0    0 -0.13802754347E+02  0.72543287198E+01 -0.41527078088E+01  0.16136489547E+02  0.00000000000E+00 0.  1.
</event>
<event>
 7    1  0.1418970E-010  0.4778727E+02  0.7816164E-02  0.1312668E+00
        -11   -1    0    0    0    0  0.00000000000E+00  0.00000000000E+00  0.45593999997E+02  0.45594000000E+02  0.51100000000E-03 0.  1.
         11   -1    0    0    0    0 -0.00000000000E+00 -0.00000000000E+00 -0.45593999997E+02  0.45594000000E+02  0.51100000000E-03 0. -1.
    9900012    2    1    2    0    0 -0.21311583653E+02 -0.25847303154E+02  0.27592693613E+02  0.47787269372E+02  0.19999992376E+02 0.  0.
         12    1    1    2    0    0  0.21311583653E+02  0.25847303154E+02 -0.27592693613E+02  0.43400730628E+02  0.00000000000E+00 0. -1.
         11    1    3    3    0    0 -0.10157117121E+02 -0.33135796499E+01  0.10978654626E+02  0.15319193711E+02  0.51100000000E-03 0. -1.
        -11    1    3    3    0    0  0.16307309090E+01 -0.67900508826E+01  0.74548620305E+01  0.10214648425E+02  0.51100000000E-03 0.  1.
         12    1    3    3    0    0 -0.12785197441E+02 -0.15743672622E+02  0.91591769573E+01  0.22253427237E+02  0.00000000000E+00 0. -1.
</event>
<event>
 7    1  0.1418970E-010  0.4778728E+02  0.7816164E-02  0.1312668E+00
        -11   -1    0    0    0    0  0.00000000000E+00  0.00000000000E+00  0.45593999997E+02  0.45594000000E+02  0.51100000000E-03 0.  1.
         11   -1    0    0    0    0 -0.00000000000E+00 -0.00000000000E+00 -0.45593999997E+02  0.45594000000E+02  0.51100000000E-03 0. -1.
    9900012    2    1    2    0    0 -0.26860748042E+02  0.19963684511E+02  0.27632848219E+02  0.47787276673E+02  0.20000025662E+02 0.  0.
         12    1    1    2    0    0  0.26860748042E+02 -0.19963684511E+02 -0.27632848219E+02  0.43400723327E+02  0.00000000000E+00 0. -1.
         11    1    3    3    0    0 -0.88312059842E+00  0.76917713310E+00  0.68852267120E+01  0.69841164502E+01  0.51100000000E-03 0. -1.
        -11    1    3    3    0    0 -0.25682120532E+02  0.17669805810E+02  0.22512194406E+02  0.38452467406E+02  0.51100000000E-03 0.  1.
         12    1    3    3    0    0 -0.29550691140E+00  0.15247015676E+01 -0.17645728982E+01  0.23506928166E+01  0.00000000000E+00 0. -1.
</event>
<event>
 7    1  0.1418970E-010  0.4778729E+02  0.7816164E-02  0.1312668E+00
        -11   -1    0    0    0    0  0.00000000000E+00  0.00000000000E+00  0.45593999997E+02  0.45594000000E+02  0.51100000000E-03 0.  1.
         11   -1    0    0    0    0 -0.00000000000E+00 -0.00000000000E+00 -0.45593999997E+02  0.45594000000E+02  0.51100000000E-03 0. -1.
    9900012    2    1    2    0    0  0.39235497808E+02 -0.18145406119E+02 -0.38653964418E+01  0.47787293311E+02  0.20000101523E+02 0.  0.
         12    1    1    2    0    0 -0.39235497808E+02  0.18145406119E+02  0.38653964418E+01  0.43400706689E+02  0.00000000000E+00 0. -1.
         11    1    3    3    0    0  0.23933148963E+02 -0.40179708017E+01 -0.71630606644E+01  0.25303145002E+02  0.51100000000E-03 0. -1.
        -11    1    3    3    0    0  0.50767072877E+01 -0.37695388235E+01  0.46755098024E+01  0.78640175483E+01  0.51100000000E-03 0.  1.
        -12    1    3    3    0    0  0.10225641558E+02 -0.10357896494E+02 -0.13778455798E+01  0.14620130761E+02  0.00000000000E+00 0.  1.
</event>
<event>
 7    1  0.1418970E-010  0.4778727E+02  0.7816164E-02  0.1312668E+00
        -11   -1    0    0    0    0  0.00000000000E+00  0.00000000000E+00  0.45593999997E+02  0.45594000000E+02  0.51100000000E-03 0.  1.
         11   -1    0    0    0    0 -0.00000000000E+00 -0.00000000000E+00 -0.45593999997E+02  0.45594000000E+02  0.51100000000E-03 0. -1.
    9900012    2    1    2    0    0  0.40707387190E+02 -0.61699472083E+01  0.13728212937E+02  0.47787269005E+02  0.19999990702E+02 0.  0.
         12    1    1    2    0    0 -0.40707387190E+02  0.61699472083E+01 -0.13728212937E+02  0.43400730995E+02  0.00000000000E+00 0. -1.
         11    1    3    3    0    0  0.54348059290E+01  0.29313109922E+01  0.69231421657E+01  0.92768312114E+01  0.51100000000E-03 0. -1.
        -11    1    3    3    0    0  0.22180562876E+02 -0.76750119116E+01  0.90419581280E+01  0.25152339541E+02  0.51100000000E-03 0.  1.
         12    1    3    3    0    0  0.13092018386E+02 -0.14262462888E+01 -0.22368873562E+01  0.13358098253E+02  0.00000000000E+00 0. -1.
</event>
<event>
 7    1  0.1418970E-010  0.4778727E+02  0.7816164E-02  0.1312668E+00
        -11   -1    0    0    0    0  0.00000000000E+00  0.00000000000E+00  0.45593999997E+02  0.45594000000E+02  0.51100000000E-03 0.  1.
         11   -1    0    0    0    0 -0.00000000000E+00 -0.00000000000E+00 -0.45593999997E+02  0.45594000000E+02  0.51100000000E-03 0. -1.
    9900012    2    1    2    0    0 -0.16284037193E+01  0.33556356238E+02  0.27476219055E+02  0.47787270096E+02  0.19999995675E+02 0.  0.
         12    1    1    2    0    0  0.16284037193E+01 -0.33556356238E+02 -0.27476219055E+02  0.43400729904E+02  0.00000000000E+00 0. -1.
         11    1    3    3    0    0  0.64942907658E+01  0.10552425310E+02  0.93485218915E+01  0.15521738121E+02  0.51100000000E-03 0. -1.
        -11    1    3    3    0    0 -0.41863153222E+00  0.14978094351E+02  0.70280419542E+01  0.16550285094E+02  0.51100000000E-03 0.  1.
        -12    1    3    3    0    0 -0.77040629529E+01  0.80258365776E+01  0.11099655209E+02  0.15715246881E+02  0.00000000000E+00 0.  1.
</event>
<event>
 7    1  0.1418970E-010  0.4778728E+02  0.7816164E-02  0.1312668E+00
        -11   -1    0    0    0    0  0.00000000000E+00  0.00000000000E+00  0.45593999997E+02  0.45594000000E+02  0.51100000000E-03 0.  1.
         11   -1    0    0    0    0 -0.00000000000E+00 -0.00000000000E+00 -0.45593999997E+02  0.45594000000E+02  0.51100000000E-03 0. -1.
    9900012    2    1    2    0    0 -0.21425157105E+02  0.11957776911E+02  0.35799400741E+02  0.47787275593E+02  0.20000020739E+02 0.  0.
         12    1    1    2    0    0  0.21425157105E+02 -0.11957776911E+02 -0.35799400741E+02  0.43400724407E+02  0.00000000000E+00 0. -1.
         11    1    3    3    0    0 -0.34492356108E+01 -0.23189103399E+00 -0.13658356754E+00  0.34597189312E+01  0.51100000000E-03 0. -1.
        -11    1    3    3    0    0 -0.16866114964E+02  0.50272213108E+01  0.30697715217E+02  0.35384862694E+02  0.51100000000E-03 0.  1.
         12    1    3    3    0    0 -0.11098065303E+01  0.71624466344E+01  0.52382690915E+01  0.89426939677E+01  0.00000000000E+00 0. -1.
</event>
<event>
 7    1  0.1418970E-010  0.4778727E+02  0.7816164E-02  0.1312668E+00
        -11   -1    0    0    0    0  0.00000000000E+00  0.00000000000E+00  0.45593999997E+02  0.45594000000E+02  0.51100000000E-03 0. -1.
         11   -1    0    0    0    0 -0.00000000000E+00 -0.00000000000E+00 -0.45593999997E+02  0.45594000000E+02  0.51100000000E-03 0.  1.
    9900012    2    1    2    0    0  0.11682984295E+01 -0.15343528897E+02 -0.40581205785E+02  0.47787273472E+02  0.20000011066E+02 0.  0.
         12    1    1    2    0    0 -0.11682984295E+01  0.15343528897E+02  0.40581205785E+02  0.43400726528E+02  0.00000000000E+00 0. -1.
         11    1    3    3    0    0 -0.43991499432E+01 -0.14548191601E+02 -0.34313336142E+02  0.37528754796E+02  0.51100000000E-03 0.  1.
        -11    1    3    3    0    0  0.47529464251E+01 -0.41718088775E+00 -0.74053416108E+01  0.88092919265E+01  0.51100000000E-03 0. -1.
        -12    1    3    3    0    0  0.81450194762E+00 -0.37815640794E+00  0.11374719680E+01  0.14492267488E+01  0.00000000000E+00 0.  1.
</event>
<event>
 7    1  0.1418970E-010  0.4778727E+02  0.7816164E-02  0.1312668E+00
        -11   -1    0    0    0    0  0.00000000000E+00  0.00000000000E+00  0.45593999997E+02  0.45594000000E+02  0.51100000000E-03 0.  1.
         11   -1    0    0    0    0 -0.00000000000E+00 -0.00000000000E+00 -0.45593999997E+02  0.45594000000E+02  0.51100000000E-03 0. -1.
    9900012    2    1    2    0    0  0.52143362783E+01  0.14533078690E+02  0.40561359945E+02  0.47787267292E+02  0.19999982889E+02 0.  0.
         12    1    1    2    0    0 -0.52143362783E+01 -0.14533078690E+02 -0.40561359945E+02  0.43400732708E+02  0.00000000000E+00 0. -1.
         11    1    3    3    0    0 -0.16281466897E+01  0.12135266575E+02  0.20660002087E+02  0.24015645796E+02  0.51100000000E-03 0. -1.
        -11    1    3    3    0    0  0.29120428581E+01  0.18746201919E+01  0.19478546780E+02  0.19784033446E+02  0.51100000000E-03 0.  1.
         12    1    3    3    0    0  0.39304401099E+01  0.52319192258E+00  0.42281107815E+00  0.39875880496E+01  0.00000000000E+00 0. -1.
</event>
<event>
 7    1  0.1418970E-010  0.4778727E+02  0.7816164E-02  0.1312668E+00
        -11   -1    0    0    0    0  0.00000000000E+00  0.00000000000E+00  0.45593999997E+02  0.45594000000E+02  0.51100000000E-03 0.  1.
         11   -1    0    0    0    0 -0.00000000000E+00 -0.00000000000E+00 -0.45593999997E+02  0.45594000000E+02  0.51100000000E-03 0. -1.
    9900012    2    1    2    0    0  0.14295911831E+02  0.19663335879E+02  0.35952795833E+02  0.47787269578E+02  0.19999993312E+02 0.  0.
         12    1    1    2    0    0 -0.14295911831E+02 -0.19663335879E+02 -0.35952795833E+02  0.43400730422E+02  0.00000000000E+00 0. -1.
         11    1    3    3    0    0  0.32902332725E+01  0.62909064898E-01  0.64449522790E+01  0.72365048661E+01  0.51100000000E-03 0. -1.
        -11    1    3    3    0    0  0.61205917278E+01  0.16733008660E+02  0.10420809209E+02  0.20640942002E+02  0.51100000000E-03 0.  1.
        -12    1    3    3    0    0  0.48850868303E+01  0.28674181544E+01  0.19087034345E+02  0.19909822709E+02  0.00000000000E+00 0.  1.
</event>
<event>
 7    1  0.1418970E-010  0.4778730E+02  0.7816164E-02  0.1312668E+00
        -11   -1    0    0    0    0  0.00000000000E+00  0.00000000000E+00  0.45593999997E+02  0.45594000000E+02  0.51100000000E-03 0.  1.
         11   -1    0    0    0    0 -0.00000000000E+00 -0.00000000000E+00 -0.45593999997E+02  0.45594000000E+02  0.51100000000E-03 0. -1.
    9900012    2    1    2    0    0  0.84292999268E+01 -0.10156305984E+02  0.41345097009E+02  0.47787300753E+02  0.20000135451E+02 0.  0.
         12    1    1    2    0    0 -0.84292999268E+01  0.10156305984E+02 -0.41345097009E+02  0.43400699247E+02  0.00000000000E+00 0. -1.
         11    1    3    3    0    0  0.25991864106E+01 -0.23826421864E+00 -0.91984452705E+00  0.27674273341E+01  0.51100000000E-03 0. -1.
        -11    1    3    3    0    0 -0.17114162609E+01 -0.22873934392E+01  0.23832519079E+01  0.37203500213E+01  0.51100000000E-03 0.  1.
        -12    1    3    3    0    0  0.75415297771E+01 -0.76306483259E+01  0.39881689628E+02  0.41299523397E+02  0.00000000000E+00 0.  1.
</event>
<event>
 7    1  0.1418970E-010  0.4778727E+02  0.7816164E-02  0.1312668E+00
        -11   -1    0    0    0    0  0.00000000000E+00  0.00000000000E+00  0.45593999997E+02  0.45594000000E+02  0.51100000000E-03 0.  1.
         11   -1    0    0    0    0 -0.00000000000E+00 -0.00000000000E+00 -0.45593999997E+02  0.45594000000E+02  0.51100000000E-03 0. -1.
    9900012    2    1    2    0    0 -0.99713028418E+01  0.10872418850E+02  0.40816500516E+02  0.47787273205E+02  0.20000009849E+02 0.  0.
         12    1    1    2    0    0  0.99713028418E+01 -0.10872418850E+02 -0.40816500516E+02  0.43400726795E+02  0.00000000000E+00 0. -1.
         11    1    3    3    0    0  0.12047994818E+01  0.50549103496E+01  0.26934729313E+02  0.27431429126E+02  0.51100000000E-03 0.  1.
        -11    1    3    3    0    0 -0.69851474356E+00  0.12822711658E+01 -0.87181116021E+00  0.17006460978E+01  0.51100000000E-03 0. -1.
        -12    1    3    3    0    0 -0.10477587580E+02  0.45352373351E+01  0.14753582363E+02  0.18655197981E+02  0.00000000000E+00 0.  1.
</event>
<event>
 7    1  0.1418970E-010  0.4778727E+02  0.7816164E-02  0.1312668E+00
        -11   -1    0    0    0    0  0.00000000000E+00  0.00000000000E+00  0.45593999997E+02  0.45594000000E+02  0.51100000000E-03 0.  1.
         11   -1    0    0    0    0 -0.00000000000E+00 -0.00000000000E+00 -0.45593999997E+02  0.45594000000E+02  0.51100000000E-03 0. -1.
    9900012    2    1    2    0    0 -0.35196343675E+02 -0.23485358626E+02  0.96580841916E+01  0.47787271111E+02  0.20000000302E+02 0.  0.
         12    1    1    2    0    0  0.35196343675E+02  0.23485358626E+02 -0.96580841916E+01  0.43400728889E+02  0.00000000000E+00 0. -1.
         11    1    3    3    0    0  0.19117871104E+01 -0.36213283899E+01  0.11721555789E+01  0.42594481128E+01  0.51100000000E-03 0. -1.
        -11    1    3    3    0    0 -0.19148151892E+02 -0.97292845335E+01  0.71482036413E+00  0.21490036455E+02  0.51100000000E-03 0.  1.
        -12    1    3    3    0    0 -0.17959978893E+02 -0.10134745703E+02  0.77711082486E+01  0.22037786543E+02  0.00000000000E+00 0.  1.
</event>
<event>
 7    1  0.1418970E-010  0.4778727E+02  0.7816164E-02  0.1312668E+00
        -11   -1    0    0    0    0  0.00000000000E+00  0.00000000000E+00  0.45593999997E+02  0.45594000000E+02  0.51100000000E-03 0. -1.
         11   -1    0    0    0    0 -0.00000000000E+00 -0.00000000000E+00 -0.45593999997E+02  0.45594000000E+02  0.51100000000E-03 0.  1.
    9900012    2    1    2    0    0  0.36261277469E+02  0.19733277468E+02 -0.13391825197E+02  0.47787268837E+02  0.19999989937E+02 0.  0.
         12    1    1    2    0    0 -0.36261277469E+02 -0.19733277468E+02  0.13391825197E+02  0.43400731163E+02  0.00000000000E+00 0. -1.
         11    1    3    3    0    0  0.97875749688E+01 -0.19449254800E+01 -0.23056795321E+01  0.10241851261E+02  0.51100000000E-03 0. -1.
        -11    1    3    3    0    0  0.23252964716E+02  0.16128138081E+02 -0.50698490542E+01  0.28749270873E+02  0.51100000000E-03 0.  1.
         12    1    3    3    0    0  0.32207377844E+01  0.55500648672E+01 -0.60162966109E+01  0.87961467028E+01  0.00000000000E+00 0. -1.
</event>
<event>
 7    1  0.1418970E-010  0.4778727E+02  0.7816164E-02  0.1312668E+00
        -11   -1    0    0    0    0  0.00000000000E+00  0.00000000000E+00  0.45593999997E+02  0.45594000000E+02  0.51100000000E-03 0.  1.
         11   -1    0    0    0    0 -0.00000000000E+00 -0.00000000000E+00 -0.45593999997E+02  0.45594000000E+02  0.51100000000E-03 0. -1.
    9900012    2    1    2    0    0 -0.62455181938E+01 -0.11524586974E+02  0.41373913873E+02  0.47787270149E+02  0.19999995915E+02 0.  0.
         12    1    1    2    0    0  0.62455181938E+01  0.11524586974E+02 -0.41373913873E+02  0.43400729851E+02  0.00000000000E+00 0. -1.
         11    1    3    3    0    0 -0.30603837645E+01 -0.84036554201E+01  0.64800215420E+01  0.11044367463E+02  0.51100000000E-03 0. -1.
        -11    1    3    3    0    0 -0.54301930339E+01  0.20070252177E+01  0.15067527551E+02  0.16141422904E+02  0.51100000000E-03 0.  1.
         12    1    3    3    0    0  0.22450586046E+01 -0.51279567714E+01  0.19826364780E+02  0.20601479782E+02  0.00000000000E+00 0. -1.
</event>
<event>
 7    1  0.1418970E-010  0.4778727E+02  0.7816164E-02  0.1312668E+00
        -11   -1    0    0    0    0  0.00000000000E+00  0.00000000000E+00  0.45593999997E+02  0.45594000000E+02  0.51100000000E-03 0.  1.
         11   -1    0    0    0    0 -0.00000000000E+00 -0.00000000000E+00 -0.45593999997E+02  0.45594000000E+02  0.51100000000E-03 0. -1.
    9900012    2    1    2    0    0  0.23566377325E+02 -0.11119638374E+02  0.34707391792E+02  0.47787267946E+02  0.19999985873E+02 0.  0.
         12    1    1    2    0    0 -0.23566377325E+02  0.11119638374E+02 -0.34707391792E+02  0.43400732054E+02  0.00000000000E+00 0. -1.
         11    1    3    3    0    0  0.13215004642E+01 -0.21712914909E+01  0.14598681919E+02  0.14818312463E+02  0.51100000000E-03 0. -1.
        -11    1    3    3    0    0  0.62202786780E+01 -0.35933473430E+00  0.53434924739E+00  0.62535204215E+01  0.51100000000E-03 0.  1.
        -12    1    3    3    0    0  0.16024598183E+02 -0.85890121491E+01  0.19574360626E+02  0.26715435062E+02  0.00000000000E+00 0.  1.
</event>
<event>
 7    1  0.1418970E-010  0.4778727E+02  0.7816164E-02  0.1312668E+00
        -11   -1    0    0    0    0  0.00000000000E+00  0.00000000000E+00  0.45593999997E+02  0.45594000000E+02  0.51100000000E-03 0. -1.
         11   -1    0    0    0    0 -0.00000000000E+00 -0.00000000000E+00 -0.45593999997E+02  0.45594000000E+02  0.51100000000E-03 0.  1.
    9900012    2    1    2    0    0  0.32350335327E+02 -0.28846601157E+02  0.22254779454E+01  0.47787270211E+02  0.19999996201E+02 0.  0.
         12    1    1    2    0    0 -0.32350335327E+02  0.28846601157E+02 -0.22254779454E+01  0.43400729789E+02  0.00000000000E+00 0. -1.
         11    1    3    3    0    0  0.20936591480E+01  0.23543682052E+01  0.10059999805E+01  0.33073394890E+01  0.51100000000E-03 0. -1.
        -11    1    3    3    0    0  0.13207111186E+02 -0.14884136115E+02  0.51525253244E+01  0.20555140750E+02  0.51100000000E-03 0.  1.
        -12    1    3    3    0    0  0.17049564993E+02 -0.16316833248E+02 -0.39330473595E+01  0.23924789972E+02  0.00000000000E+00 0.  1.
</event>
<event>
 7    1  0.1418970E-010  0.4778727E+02  0.7816164E-02  0.1312668E+00
        -11   -1    0    0    0    0  0.00000000000E+00  0.00000000000E+00  0.45593999997E+02  0.45594000000E+02  0.51100000000E-03 0.  1.
         11   -1    0    0    0    0 -0.00000000000E+00 -0.00000000000E+00 -0.45593999997E+02  0.45594000000E+02  0.51100000000E-03 0. -1.
    9900012    2    1    2    0    0  0.33166688835E+02  0.31726708963E+01  0.27812373428E+02  0.47787271843E+02  0.20000003640E+02 0.  0.
         12    1    1    2    0    0 -0.33166688835E+02 -0.31726708963E+01 -0.27812373428E+02  0.43400728157E+02  0.00000000000E+00 0. -1.
         11    1    3    3    0    0  0.12599010927E+02  0.40467128970E+01  0.16897046704E+02  0.21462086319E+02  0.51100000000E-03 0. -1.
        -11    1    3    3    0    0  0.22216997217E+02 -0.60811322287E+00  0.10605691413E+02  0.24626113328E+02  0.51100000000E-03 0.  1.
         12    1    3    3    0    0 -0.16493193091E+01 -0.26592877777E+00  0.30963531056E+00  0.16990721950E+01  0.00000000000E+00 0. -1.
</event>
<event>
 7    1  0.1418970E-010  0.4778727E+02  0.7816164E-02  0.1312668E+00
        -11   -1    0    0    0    0  0.00000000000E+00  0.00000000000E+00  0.45593999997E+02  0.45594000000E+02  0.51100000000E-03 0.  1.
         11   -1    0    0    0    0 -0.00000000000E+00 -0.00000000000E+00 -0.45593999997E+02  0.45594000000E+02  0.51100000000E-03 0. -1.
    9900012    2    1    2    0    0  0.25401286915E+02  0.27382448384E+02  0.22104285071E+02  0.47787271032E+02  0.19999999945E+02 0.  0.
         12    1    1    2    0    0 -0.25401286915E+02 -0.27382448384E+02 -0.22104285071E+02  0.43400728968E+02  0.00000000000E+00 0. -1.
         11    1    3    3    0    0  0.74540896607E+01  0.15804761209E+02  0.10296521911E+02  0.20282314791E+02  0.51100000000E-03 0.  1.
        -11    1    3    3    0    0  0.10855248770E+02  0.83679633707E+01  0.42229676710E+00  0.13712679230E+02  0.51100000000E-03 0. -1.
         12    1    3    3    0    0  0.70919484840E+01  0.32097238041E+01  0.11385466393E+02  0.13792277012E+02  0.00000000000E+00 0. -1.
</event>
<event>
 7    1  0.1418970E-010  0.4778727E+02  0.7816164E-02  0.1312668E+00
        -11   -1    0    0    0    0  0.00000000000E+00  0.00000000000E+00  0.45593999997E+02  0.45594000000E+02  0.51100000000E-03 0.  1.
         11   -1    0    0    0    0 -0.00000000000E+00 -0.00000000000E+00 -0.45593999997E+02  0.45594000000E+02  0.51100000000E-03 0. -1.
    9900012    2    1    2    0    0 -0.79073598796E+01  0.21619655237E+02  0.36792498730E+02  0.47787265034E+02  0.19999972596E+02 0.  0.
         12    1    1    2    0    0  0.79073598796E+01 -0.21619655237E+02 -0.36792498730E+02  0.43400734966E+02  0.00000000000E+00 0. -1.
         11    1    3    3    0    0 -0.29382998536E+01  0.16824923145E-01  0.12543279377E+01  0.31948752627E+01  0.51100000000E-03 0. -1.
        -11    1    3    3    0    0  0.45803338301E+01  0.12697843512E+02  0.21785808500E+02  0.25628814645E+02  0.51100000000E-03 0.  1.
        -12    1    3    3    0    0 -0.95493938561E+01  0.89049868014E+01  0.13752362292E+02  0.18963575126E+02  0.00000000000E+00 0.  1.
</event>
<event>
 7    1  0.1418970E-010  0.4778727E+02  0.7816164E-02  0.1312668E+00
        -11   -1    0    0    0    0  0.00000000000E+00  0.00000000000E+00  0.45593999997E+02  0.45594000000E+02  0.51100000000E-03 0.  1.
         11   -1    0    0    0    0 -0.00000000000E+00 -0.00000000000E+00 -0.45593999997E+02  0.45594000000E+02  0.51100000000E-03 0. -1.
    9900012    2    1    2    0    0  0.43293531754E+02  0.16672604440E+01  0.25521535233E+01  0.47787272625E+02  0.20000007204E+02 0.  0.
         12    1    1    2    0    0 -0.43293531754E+02 -0.16672604440E+01 -0.25521535233E+01  0.43400727375E+02  0.00000000000E+00 0. -1.
         11    1    3    3    0    0  0.48152462883E+00  0.89720564387E+00 -0.50295311221E-01  0.10194968440E+01  0.51100000000E-03 0. -1.
        -11    1    3    3    0    0  0.37604901039E+02  0.54075597847E+01  0.68482501541E+01  0.38603999992E+02  0.51100000000E-03 0.  1.
         12    1    3    3    0    0  0.52071060860E+01 -0.46375049846E+01 -0.42458013196E+01  0.81637757882E+01  0.00000000000E+00 0. -1.
</event>
<event>
 7    1  0.1418970E-010  0.4778727E+02  0.7816164E-02  0.1312668E+00
        -11   -1    0    0    0    0  0.00000000000E+00  0.00000000000E+00  0.45593999997E+02  0.45594000000E+02  0.51100000000E-03 0.  1.
         11   -1    0    0    0    0 -0.00000000000E+00 -0.00000000000E+00 -0.45593999997E+02  0.45594000000E+02  0.51100000000E-03 0. -1.
    9900012    2    1    2    0    0 -0.42213829091E+02 -0.25998197938E+01  0.97394457470E+01  0.47787271516E+02  0.20000002149E+02 0.  0.
         12    1    1    2    0    0  0.42213829091E+02  0.25998197938E+01 -0.97394457470E+01  0.43400728484E+02  0.00000000000E+00 0. -1.
         11    1    3    3    0    0 -0.25037683321E+02  0.32840409734E-01 -0.40110658757E+01  0.25356957907E+02  0.51100000000E-03 0. -1.
        -11    1    3    3    0    0 -0.48629413962E+01 -0.23587967899E+01  0.41489117030E+01  0.68136326507E+01  0.51100000000E-03 0.  1.
         12    1    3    3    0    0 -0.12313204374E+02 -0.27386341370E+00  0.96015999197E+01  0.15616680958E+02  0.00000000000E+00 0. -1.
</event>
<event>
 7    1  0.1418970E-010  0.4778727E+02  0.7816164E-02  0.1312668E+00
        -11   -1    0    0    0    0  0.00000000000E+00  0.00000000000E+00  0.45593999997E+02  0.45594000000E+02  0.51100000000E-03 0.  1.
         11   -1    0    0    0    0 -0.00000000000E+00 -0.00000000000E+00 -0.45593999997E+02  0.45594000000E+02  0.51100000000E-03 0. -1.
    9900012    2    1    2    0    0  0.14590295710E+02 -0.25299503481E+02  0.32104230225E+02  0.47787271854E+02  0.20000003689E+02 0.  0.
         12    1    1    2    0    0 -0.14590295710E+02  0.25299503481E+02 -0.32104230225E+02  0.43400728146E+02  0.00000000000E+00 0. -1.
         11    1    3    3    0    0  0.74683130062E+01 -0.86652265964E+01  0.10439797843E+02  0.15487131122E+02  0.51100000000E-03 0.  1.
        -11    1    3    3    0    0  0.11831408843E+01  0.14278706947E+01 -0.14618432055E+01  0.23612756915E+01  0.51100000000E-03 0. -1.
        -12    1    3    3    0    0  0.59388418195E+01 -0.18062147579E+02  0.23126275588E+02  0.29938865040E+02  0.00000000000E+00 0.  1.
</event>
<event>
 7    1  0.2044516E-010  0.4778726E+02  0.7816164E-02  0.1312668E+00
        -11   -1    0    0    0    0  0.00000000000E+00  0.00000000000E+00  0.45593999997E+02  0.45594000000E+02  0.51100000000E-03 0. -1.
         11   -1    0    0    0    0 -0.00000000000E+00 -0.00000000000E+00 -0.45593999997E+02  0.45594000000E+02  0.51100000000E-03 0.  1.
    9900012    2    1    2    0    0 -0.55613232632E+01  0.15628336932E+02 -0.40105493229E+02  0.47787264766E+02  0.19999971373E+02 0.  0.
         12    1    1    2    0    0  0.55613232632E+01 -0.15628336932E+02  0.40105493229E+02  0.43400735234E+02  0.00000000000E+00 0. -1.
         11    1    3    3    0    0  0.23121309859E+00 -0.14863605941E+01  0.50367857647E+00  0.15863226917E+01  0.51100000000E-03 0. -1.
        -11    1    3    3    0    0 -0.30591958541E+01  0.38326515836E+01 -0.25208642490E+02  0.25681190664E+02  0.51100000000E-03 0.  1.
        -12    1    3    3    0    0 -0.27333405078E+01  0.13282045943E+02 -0.15400529315E+02  0.20519751411E+02  0.00000000000E+00 0.  1.
</event>
<event>
 7    1  0.1418970E-010  0.4778727E+02  0.7816164E-02  0.1312668E+00
        -11   -1    0    0    0    0  0.00000000000E+00  0.00000000000E+00  0.45593999997E+02  0.45594000000E+02  0.51100000000E-03 0.  1.
         11   -1    0    0    0    0 -0.00000000000E+00 -0.00000000000E+00 -0.45593999997E+02  0.45594000000E+02  0.51100000000E-03 0. -1.
    9900012    2    1    2    0    0  0.10301263097E+02 -0.34883679504E+02 -0.23677751745E+02  0.47787273683E+02  0.20000012030E+02 0.  0.
         12    1    1    2    0    0 -0.10301263097E+02  0.34883679504E+02  0.23677751745E+02  0.43400726317E+02  0.00000000000E+00 0. -1.
         11    1    3    3    0    0  0.45995070121E+01 -0.79202857708E+01 -0.97501950903E+01  0.13377320210E+02  0.51100000000E-03 0. -1.
        -11    1    3    3    0    0 -0.34582596677E+01 -0.19044564573E+02 -0.86960416940E+01  0.21219711146E+02  0.51100000000E-03 0.  1.
        -12    1    3    3    0    0  0.91600157527E+01 -0.79188291598E+01 -0.52315149609E+01  0.13190242327E+02  0.00000000000E+00 0.  1.
</event>
<event>
 7    1  0.1418970E-010  0.4778726E+02  0.7816164E-02  0.1312668E+00
        -11   -1    0    0    0    0  0.00000000000E+00  0.00000000000E+00  0.45593999997E+02  0.45594000000E+02  0.51100000000E-03 0.  1.
         11   -1    0    0    0    0 -0.00000000000E+00 -0.00000000000E+00 -0.45593999997E+02  0.45594000000E+02  0.51100000000E-03 0. -1.
    9900012    2    1    2    0    0  0.42720740810E+02  0.57171866741E+01  0.50868863949E+01  0.47787258854E+02  0.19999944419E+02 0.  0.
         12    1    1    2    0    0 -0.42720740810E+02 -0.57171866741E+01 -0.50868863949E+01  0.43400741146E+02  0.00000000000E+00 0. -1.
         11    1    3    3    0    0  0.31165046458E+02  0.51509796177E+01 -0.19487752140E+01  0.31647913626E+02  0.51100000000E-03 0. -1.
        -11    1    3    3    0    0  0.76493685431E+01  0.45430684791E+01  0.49952491226E+01  0.10203177170E+02  0.51100000000E-03 0.  1.
        -12    1    3    3    0    0  0.39063258086E+01 -0.39768614227E+01  0.20404124864E+01  0.59361680580E+01  0.00000000000E+00 0.  1.
</event>
<event>
 7    1  0.1418970E-010  0.4778726E+02  0.7816164E-02  0.1312668E+00
        -11   -1    0    0    0    0  0.00000000000E+00  0.00000000000E+00  0.45593999997E+02  0.45594000000E+02  0.51100000000E-03 0.  1.
         11   -1    0    0    0    0 -0.00000000000E+00 -0.00000000000E+00 -0.45593999997E+02  0.45594000000E+02  0.51100000000E-03 0. -1.
    9900012    2    1    2    0    0  0.17372360940E+02 -0.31067831668E+01  0.39650641604E+02  0.47787258003E+02  0.19999940539E+02 0.  0.
         12    1    1    2    0    0 -0.17372360940E+02  0.31067831668E+01 -0.39650641604E+02  0.43400741997E+02  0.00000000000E+00 0. -1.
         11    1    3    3    0    0 -0.28975875001E+01 -0.25982358718E+00  0.29819857269E+00  0.29244562345E+01  0.51100000000E-03 0. -1.
        -11    1    3    3    0    0  0.61982349706E+01 -0.40628971364E+01  0.14076358260E+02  0.15908146090E+02  0.51100000000E-03 0.  1.
         12    1    3    3    0    0  0.14071713470E+02  0.12159375567E+01  0.25276084771E+02  0.28954655679E+02  0.00000000000E+00 0. -1.
</event>
<event>
 7    1  0.1418970E-010  0.4778727E+02  0.7816164E-02  0.1312668E+00
        -11   -1    0    0    0    0  0.00000000000E+00  0.00000000000E+00  0.45593999997E+02  0.45594000000E+02  0.51100000000E-03 0. -1.
         11   -1    0    0    0    0 -0.00000000000E+00 -0.00000000000E+00 -0.45593999997E+02  0.45594000000E+02  0.51100000000E-03 0.  1.
    9900012    2    1    2    0    0 -0.17720514201E+02  0.39595553190E+02 -0.13411756313E+01  0.47787271803E+02  0.20000003460E+02 0.  0.
         12    1    1    2    0    0  0.17720514201E+02 -0.39595553190E+02  0.13411756313E+01  0.43400728197E+02  0.00000000000E+00 0. -1.
         11    1    3    3    0    0 -0.56088556407E+01  0.65740034164E+01 -0.52744971916E+01  0.10124085312E+02  0.51100000000E-03 0. -1.
        -11    1    3    3    0    0 -0.12395078126E+01  0.18716214226E+02  0.57114571269E+01  0.19607493398E+02  0.51100000000E-03 0.  1.
         12    1    3    3    0    0 -0.10872150747E+02  0.14305335547E+02 -0.17781355666E+01  0.18055693093E+02  0.00000000000E+00 0. -1.
</event>
<event>
 7    1  0.1418970E-010  0.4778727E+02  0.7816164E-02  0.1312668E+00
        -11   -1    0    0    0    0  0.00000000000E+00  0.00000000000E+00  0.45593999997E+02  0.45594000000E+02  0.51100000000E-03 0. -1.
         11   -1    0    0    0    0 -0.00000000000E+00 -0.00000000000E+00 -0.45593999997E+02  0.45594000000E+02  0.51100000000E-03 0.  1.
    9900012    2    1    2    0    0 -0.20992056714E+02  0.37688653613E+02  0.47457510849E+01  0.47787271785E+02  0.20000003376E+02 0.  0.
         12    1    1    2    0    0  0.20992056714E+02 -0.37688653613E+02 -0.47457510849E+01  0.43400728215E+02  0.00000000000E+00 0. -1.
         11    1    3    3    0    0 -0.53992083523E+01  0.95807947250E+01  0.84333107164E+01  0.13858708753E+02  0.51100000000E-03 0. -1.
        -11    1    3    3    0    0 -0.80108315668E+01  0.22931055320E+02 -0.79555766269E+00  0.24303078667E+02  0.51100000000E-03 0.  1.
        -12    1    3    3    0    0 -0.75820167950E+01  0.51768035684E+01 -0.28920019689E+01  0.96254843646E+01  0.00000000000E+00 0.  1.
</event>
<event>
 7    1  0.1418970E-010  0.4778727E+02  0.7816164E-02  0.1312668E+00
        -11   -1    0    0    0    0  0.00000000000E+00  0.00000000000E+00  0.45593999997E+02  0.45594000000E+02  0.51100000000E-03 0.  1.
         11   -1    0    0    0    0 -0.00000000000E+00 -0.00000000000E+00 -0.45593999997E+02  0.45594000000E+02  0.51100000000E-03 0. -1.
    9900012    2    1    2    0    0  0.37580793609E+02 -0.12376478986E+02  0.17836209518E+02  0.47787266707E+02  0.19999980225E+02 0.  0.
         12    1    1    2    0    0 -0.37580793609E+02  0.12376478986E+02 -0.17836209518E+02  0.43400733293E+02  0.00000000000E+00 0. -1.
         11    1    3    3    0    0  0.79836494944E+01  0.42663954762E+01  0.46300126466E+01  0.10167487742E+02  0.51100000000E-03 0. -1.
        -11    1    3    3    0    0  0.12747036586E+02 -0.73571794247E+01  0.10746974682E+02  0.18223953904E+02  0.51100000000E-03 0.  1.
        -12    1    3    3    0    0  0.16850107529E+02 -0.92856950374E+01  0.24592221899E+01  0.19395825062E+02  0.00000000000E+00 0.  1.
</event>
<event>
 7    1  0.1418970E-010  0.4778726E+02  0.7816164E-02  0.1312668E+00
        -11   -1    0    0    0    0  0.00000000000E+00  0.00000000000E+00  0.45593999997E+02  0.45594000000E+02  0.51100000000E-03 0.  1.
         11   -1    0    0    0    0 -0.00000000000E+00 -0.00000000000E+00 -0.45593999997E+02  0.45594000000E+02  0.51100000000E-03 0. -1.
    9900012    2    1    2    0    0  0.62955898609E+01 -0.20341758905E+02  0.37818019431E+02  0.47787260367E+02  0.19999951316E+02 0.  0.
         12    1    1    2    0    0 -0.62955898609E+01  0.20341758905E+02 -0.37818019431E+02  0.43400739633E+02  0.00000000000E+00 0. -1.
         11    1    3    3    0    0  0.79345423949E+01 -0.10594199825E+02  0.15273715135E+02  0.20210898229E+02  0.51100000000E-03 0. -1.
        -11    1    3    3    0    0 -0.21707356849E+01 -0.11542085967E+02  0.22838906013E+02  0.25681656294E+02  0.51100000000E-03 0.  1.
        -12    1    3    3    0    0  0.53178315084E+00  0.17945268860E+01 -0.29460171674E+00  0.18947058440E+01  0.00000000000E+00 0.  1.
</event>
<event>
 7    1  0.1418970E-010  0.4778727E+02  0.7816164E-02  0.1312668E+00
        -11   -1    0    0    0    0  0.00000000000E+00  0.00000000000E+00  0.45593999997E+02  0.45594000000E+02  0.51100000000E-03 0.  1.
         11   -1    0    0    0    0 -0.00000000000E+00 -0.00000000000E+00 -0.45593999997E+02  0.45594000000E+02  0.51100000000E-03 0. -1.
    9900012    2    1    2    0    0 -0.50202443686E+01 -0.38127689107E+02  0.20117152997E+02  0.47787269881E+02  0.19999994694E+02 0.  0.
         12    1    1    2    0    0  0.50202443686E+01  0.38127689107E+02 -0.20117152997E+02  0.43400730119E+02  0.00000000000E+00 0. -1.
         11    1    3    3    0    0  0.57032574342E+00  0.87388232306E+00  0.25326367052E+01  0.27391952668E+01  0.51100000000E-03 0. -1.
        -11    1    3    3    0    0  0.31903441114E+01 -0.69812321022E+01  0.45960081758E+00  0.76894167780E+01  0.51100000000E-03 0.  1.
        -12    1    3    3    0    0 -0.87809142234E+01 -0.32020339328E+02  0.17124915475E+02  0.37358657836E+02  0.00000000000E+00 0.  1.
</event>
<event>
 7    1  0.1580752E-010  0.4778728E+02  0.7816164E-02  0.1312668E+00
        -11   -1    0    0    0    0  0.00000000000E+00  0.00000000000E+00  0.45593999997E+02  0.45594000000E+02  0.51100000000E-03 0.  1.
         11   -1    0    0    0    0 -0.00000000000E+00 -0.00000000000E+00 -0.45593999997E+02  0.45594000000E+02  0.51100000000E-03 0. -1.
    9900012    2    1    2    0    0 -0.36738382564E+02 -0.89752627206E+01  0.21292215903E+02  0.47787279356E+02  0.20000037897E+02 0.  0.
         12    1    1    2    0    0  0.36738382564E+02  0.89752627206E+01 -0.21292215903E+02  0.43400720644E+02  0.00000000000E+00 0. -1.
         11    1    3    3    0    0 -0.20012056517E+01  0.27251202116E+01  0.45456654526E+01  0.56651724507E+01  0.51100000000E-03 0. -1.
        -11    1    3    3    0    0 -0.93613717974E+01 -0.65143520776E+01  0.23690490925E+00  0.11407374331E+02  0.51100000000E-03 0.  1.
        -12    1    3    3    0    0 -0.25375805115E+02 -0.51860308546E+01  0.16509645541E+02  0.30714732575E+02  0.00000000000E+00 0.  1.
</event>
<event>
 7    1  0.1418970E-010  0.4778728E+02  0.7816164E-02  0.1312668E+00
        -11   -1    0    0    0    0  0.00000000000E+00  0.00000000000E+00  0.45593999997E+02  0.45594000000E+02  0.51100000000E-03 0.  1.
         11   -1    0    0    0    0 -0.00000000000E+00 -0.00000000000E+00 -0.45593999997E+02  0.45594000000E+02  0.51100000000E-03 0. -1.
    9900012    2    1    2    0    0  0.21179527093E+02  0.30054657934E+02  0.23060088645E+02  0.47787279733E+02  0.20000039613E+02 0.  0.
         12    1    1    2    0    0 -0.21179527093E+02 -0.30054657934E+02 -0.23060088645E+02  0.43400720267E+02  0.00000000000E+00 0. -1.
         11    1    3    3    0    0  0.11156198692E+01 -0.27595320486E+01  0.11389659366E+01  0.31869842306E+01  0.51100000000E-03 0. -1.
        -11    1    3    3    0    0  0.81220142163E+01  0.11771644038E+02  0.53271487553E+01  0.15261626139E+02  0.51100000000E-03 0.  1.
        -12    1    3    3    0    0  0.11941893007E+02  0.21042545945E+02  0.16593973953E+02  0.29338669363E+02  0.00000000000E+00 0.  1.
</event>
<event>
 7    1  0.1418970E-010  0.4778727E+02  0.7816164E-02  0.1312668E+00
        -11   -1    0    0    0    0  0.00000000000E+00  0.00000000000E+00  0.45593999997E+02  0.45594000000E+02  0.51100000000E-03 0. -1.
         11   -1    0    0    0    0 -0.00000000000E+00 -0.00000000000E+00 -0.45593999997E+02  0.45594000000E+02  0.51100000000E-03 0.  1.
    9900012    2    1    2    0    0 -0.44053792740E+01  0.24861540610E+02 -0.35300418599E+02  0.47787272802E+02  0.20000008014E+02 0.  0.
         12    1    1    2    0    0  0.44053792740E+01 -0.24861540610E+02  0.35300418599E+02  0.43400727198E+02  0.00000000000E+00 0. -1.
         11    1    3    3    0    0 -0.24711494130E+01  0.15631978804E+02 -0.20884212877E+02  0.26203352619E+02  0.51100000000E-03 0.  1.
        -11    1    3    3    0    0  0.15562316219E+01  0.56178914411E+00 -0.11751246729E+02  0.11867150621E+02  0.51100000000E-03 0. -1.
         12    1    3    3    0    0 -0.34904614829E+01  0.86677726623E+01 -0.26649589923E+01  0.97167695619E+01  0.00000000000E+00 0. -1.
</event>
<event>
 7    1  0.1418970E-010  0.4778730E+02  0.7816164E-02  0.1312668E+00
        -11   -1    0    0    0    0  0.00000000000E+00  0.00000000000E+00  0.45593999997E+02  0.45594000000E+02  0.51100000000E-03 0.  1.
         11   -1    0    0    0    0 -0.00000000000E+00 -0.00000000000E+00 -0.45593999997E+02  0.45594000000E+02  0.51100000000E-03 0. -1.
    9900012    2    1    2    0    0  0.44020310947E+01 -0.26017179373E+02  0.34457938851E+02  0.47787296663E+02  0.20000116806E+02 0.  0.
         12    1    1    2    0    0 -0.44020310947E+01  0.26017179373E+02 -0.34457938851E+02  0.43400703337E+02  0.00000000000E+00 0. -1.
         11    1    3    3    0    0 -0.19331617793E+01 -0.44738492194E+01  0.63782965594E+01  0.80271482211E+01  0.51100000000E-03 0. -1.
        -11    1    3    3    0    0  0.11554104238E+02 -0.10433949951E+02  0.12754836171E+02  0.20125866002E+02  0.51100000000E-03 0.  1.
        -12    1    3    3    0    0 -0.52189113638E+01 -0.11109380203E+02  0.15324806120E+02  0.19634282440E+02  0.00000000000E+00 0.  1.
</event>
<event>
 7    1  0.1418970E-010  0.4778727E+02  0.7816164E-02  0.1312668E+00
        -11   -1    0    0    0    0  0.00000000000E+00  0.00000000000E+00  0.45593999997E+02  0.45594000000E+02  0.51100000000E-03 0.  1.
         11   -1    0    0    0    0 -0.00000000000E+00 -0.00000000000E+00 -0.45593999997E+02  0.45594000000E+02  0.51100000000E-03 0. -1.
    9900012    2    1    2    0    0 -0.74348047655E+01  0.31890625270E+02  0.28483942572E+02  0.47787270900E+02  0.19999999341E+02 0.  0.
         12    1    1    2    0    0  0.74348047655E+01 -0.31890625270E+02 -0.28483942572E+02  0.43400729100E+02  0.00000000000E+00 0. -1.
         11    1    3    3    0    0 -0.57888792703E+01  0.13951214127E+01  0.40623262805E+01  0.72083272700E+01  0.51100000000E-03 0.  1.
        -11    1    3    3    0    0  0.17391513383E+01  0.10504400976E+02  0.14545029821E+02  0.18025675577E+02  0.51100000000E-03 0. -1.
         12    1    3    3    0    0 -0.33850768335E+01  0.19991102881E+02  0.98765864702E+01  0.22553268053E+02  0.00000000000E+00 0. -1.
</event>
<event>
 7    1  0.1418970E-010  0.4778727E+02  0.7816164E-02  0.1312668E+00
        -11   -1    0    0    0    0  0.00000000000E+00  0.00000000000E+00  0.45593999997E+02  0.45594000000E+02  0.51100000000E-03 0.  1.
         11   -1    0    0    0    0 -0.00000000000E+00 -0.00000000000E+00 -0.45593999997E+02  0.45594000000E+02  0.51100000000E-03 0. -1.
    9900012    2    1    2    0    0  0.66671114138E+01 -0.15936839109E+02  0.39814449293E+02  0.47787267427E+02  0.19999983505E+02 0.  0.
         12    1    1    2    0    0 -0.66671114138E+01  0.15936839109E+02 -0.39814449293E+02  0.43400732573E+02  0.00000000000E+00 0. -1.
         11    1    3    3    0    0  0.51034089621E+01 -0.79856290635E+01  0.22759195508E+02  0.24653519728E+02  0.51100000000E-03 0. -1.
        -11    1    3    3    0    0  0.73794973641E+01 -0.52178525913E+01  0.11594073521E+02  0.14700527476E+02  0.51100000000E-03 0.  1.
         12    1    3    3    0    0 -0.58157949124E+01 -0.27333574538E+01  0.54611802647E+01  0.84332202222E+01  0.00000000000E+00 0. -1.
</event>
<event>
 7    1  0.1418970E-010  0.4778727E+02  0.7816164E-02  0.1312668E+00
        -11   -1    0    0    0    0  0.00000000000E+00  0.00000000000E+00  0.45593999997E+02  0.45594000000E+02  0.51100000000E-03 0.  1.
         11   -1    0    0    0    0 -0.00000000000E+00 -0.00000000000E+00 -0.45593999997E+02  0.45594000000E+02  0.51100000000E-03 0. -1.
    9900012    2    1    2    0    0  0.25463859539E+02 -0.26757437404E+02  0.22787165445E+02  0.47787268347E+02  0.19999987700E+02 0.  0.
         12    1    1    2    0    0 -0.25463859539E+02  0.26757437404E+02 -0.22787165445E+02  0.43400731653E+02  0.00000000000E+00 0. -1.
         11    1    3    3    0    0  0.14079406980E+02 -0.54378310805E+01  0.50392540539E+01  0.15912064273E+02  0.51100000000E-03 0. -1.
        -11    1    3    3    0    0  0.88969204396E+00  0.68627501296E+00 -0.68057397843E+00  0.13136614966E+01  0.51100000000E-03 0.  1.
        -12    1    3    3    0    0  0.10494760515E+02 -0.22005881336E+02  0.18428485369E+02  0.30561542577E+02  0.00000000000E+00 0.  1.
</event>
<event>
 7    1  0.1418970E-010  0.4778727E+02  0.7816164E-02  0.1312668E+00
        -11   -1    0    0    0    0  0.00000000000E+00  0.00000000000E+00  0.45593999997E+02  0.45594000000E+02  0.51100000000E-03 0.  1.
         11   -1    0    0    0    0 -0.00000000000E+00 -0.00000000000E+00 -0.45593999997E+02  0.45594000000E+02  0.51100000000E-03 0. -1.
    9900012    2    1    2    0    0 -0.19024624074E+02  0.13848920896E+02  0.36467714243E+02  0.47787272895E+02  0.20000008437E+02 0.  0.
         12    1    1    2    0    0  0.19024624074E+02 -0.13848920896E+02 -0.36467714243E+02  0.43400727105E+02  0.00000000000E+00 0. -1.
         11    1    3    3    0    0 -0.64997266798E+01  0.45867167589E+01  0.18135168097E+02  0.19803250736E+02  0.51100000000E-03 0. -1.
        -11    1    3    3    0    0 -0.13283994991E+02  0.11875538434E+02  0.13201386488E+02  0.22175877469E+02  0.51100000000E-03 0.  1.
         12    1    3    3    0    0  0.75909759686E+00 -0.26133342973E+01  0.51311596580E+01  0.58081446906E+01  0.00000000000E+00 0. -1.
</event>
<event>
 7    1  0.1418970E-010  0.4778727E+02  0.7816164E-02  0.1312668E+00
        -11   -1    0    0    0    0  0.00000000000E+00  0.00000000000E+00  0.45593999997E+02  0.45594000000E+02  0.51100000000E-03 0. -1.
         11   -1    0    0    0    0 -0.00000000000E+00 -0.00000000000E+00 -0.45593999997E+02  0.45594000000E+02  0.51100000000E-03 0.  1.
    9900012    2    1    2    0    0  0.18654920932E+02 -0.14172141923E+02 -0.36534473684E+02  0.47787269027E+02  0.19999990800E+02 0.  0.
         12    1    1    2    0    0 -0.18654920932E+02  0.14172141923E+02  0.36534473684E+02  0.43400730973E+02  0.00000000000E+00 0. -1.
         11    1    3    3    0    0  0.24170265270E+01 -0.16707135949E+01 -0.18940755497E+02  0.19167303415E+02  0.51100000000E-03 0. -1.
        -11    1    3    3    0    0  0.14162543708E+02 -0.53856854303E+01 -0.12197571767E+02  0.19451581147E+02  0.51100000000E-03 0.  1.
        -12    1    3    3    0    0  0.20753506966E+01 -0.71157428983E+01 -0.53961464199E+01  0.91683844648E+01  0.00000000000E+00 0.  1.
</event>
<event>
 7    1  0.1418970E-010  0.4778727E+02  0.7816164E-02  0.1312668E+00
        -11   -1    0    0    0    0  0.00000000000E+00  0.00000000000E+00  0.45593999997E+02  0.45594000000E+02  0.51100000000E-03 0. -1.
         11   -1    0    0    0    0 -0.00000000000E+00 -0.00000000000E+00 -0.45593999997E+02  0.45594000000E+02  0.51100000000E-03 0.  1.
    9900012    2    1    2    0    0  0.70595380203E+00  0.27366166509E+02 -0.33678147879E+02  0.47787273223E+02  0.20000009933E+02 0.  0.
         12    1    1    2    0    0 -0.70595380203E+00 -0.27366166509E+02  0.33678147879E+02  0.43400726777E+02  0.00000000000E+00 0. -1.
         11    1    3    3    0    0 -0.70318803265E-01  0.82223641643E+00  0.40817376696E+00  0.92066472928E+00  0.51100000000E-03 0. -1.
        -11    1    3    3    0    0 -0.65836265922E+01  0.41717544788E+01 -0.43246552579E+01  0.89134907807E+01  0.51100000000E-03 0.  1.
         12    1    3    3    0    0  0.73598991975E+01  0.22372175614E+02 -0.29761666388E+02  0.37953117713E+02  0.00000000000E+00 0. -1.
</event>
<event>
 7    1  0.1418970E-010  0.4778726E+02  0.7816164E-02  0.1312668E+00
        -11   -1    0    0    0    0  0.00000000000E+00  0.00000000000E+00  0.45593999997E+02  0.45594000000E+02  0.51100000000E-03 0. -1.
         11   -1    0    0    0    0 -0.00000000000E+00 -0.00000000000E+00 -0.45593999997E+02  0.45594000000E+02  0.51100000000E-03 0.  1.
    9900012    2    1    2    0    0 -0.20713816321E-01 -0.43344834487E+02 -0.22021150705E+01  0.47787257880E+02  0.19999939977E+02 0.  0.
         12    1    1    2    0    0  0.20713816321E-01  0.43344834487E+02  0.22021150705E+01  0.43400742120E+02  0.00000000000E+00 0. -1.
         11    1    3    3    0    0  0.15617675034E+01  0.15258730140E+00 -0.49460676566E+00  0.16453074889E+01  0.51100000000E-03 0. -1.
        -11    1    3    3    0    0 -0.44664120273E+01 -0.31087207038E+02 -0.72745562505E+01  0.32237903882E+02  0.51100000000E-03 0.  1.
         12    1    3    3    0    0  0.28839307076E+01 -0.12410214751E+02  0.55670479457E+01  0.13904046509E+02  0.00000000000E+00 0. -1.
</event>
<event>
 7    1  0.1418970E-010  0.4778727E+02  0.7816164E-02  0.1312668E+00
        -11   -1    0    0    0    0  0.00000000000E+00  0.00000000000E+00  0.45593999997E+02  0.45594000000E+02  0.51100000000E-03 0.  1.
         11   -1    0    0    0    0 -0.00000000000E+00 -0.00000000000E+00 -0.45593999997E+02  0.45594000000E+02  0.51100000000E-03 0. -1.
    9900012    2    1    2    0    0 -0.46368888087E+00  0.28435127861E+02  0.32784930108E+02  0.47787272517E+02  0.20000006716E+02 0.  0.
         12    1    1    2    0    0  0.46368888087E+00 -0.28435127861E+02 -0.32784930108E+02  0.43400727483E+02  0.00000000000E+00 0. -1.
         11    1    3    3    0    0 -0.59598530813E+01  0.45075848355E+01  0.96832743082E+01  0.12231270228E+02  0.51100000000E-03 0. -1.
        -11    1    3    3    0    0 -0.15900791575E+01  0.66274196535E+01  0.14830161094E+01  0.69749824395E+01  0.51100000000E-03 0.  1.
        -12    1    3    3    0    0  0.70862433579E+01  0.17300123372E+02  0.21618639690E+02  0.28581019850E+02  0.00000000000E+00 0.  1.
</event>
<event>
 7    1  0.1418970E-010  0.4778726E+02  0.7816164E-02  0.1312668E+00
        -11   -1    0    0    0    0  0.00000000000E+00  0.00000000000E+00  0.45593999997E+02  0.45594000000E+02  0.51100000000E-03 0.  1.
         11   -1    0    0    0    0 -0.00000000000E+00 -0.00000000000E+00 -0.45593999997E+02  0.45594000000E+02  0.51100000000E-03 0. -1.
    9900012    2    1    2    0    0  0.17611234917E+02 -0.25100350398E+02  0.30715480695E+02  0.47787263373E+02  0.19999965025E+02 0.  0.
         12    1    1    2    0    0 -0.17611234917E+02  0.25100350398E+02 -0.30715480695E+02  0.43400736627E+02  0.00000000000E+00 0. -1.
         11    1    3    3    0    0 -0.18251202284E+01  0.13055205001E+00  0.73433543920E+01  0.75678901732E+01  0.51100000000E-03 0. -1.
        -11    1    3    3    0    0  0.12672980946E+00 -0.28590965327E+01  0.63333316050E+00  0.29311439032E+01  0.51100000000E-03 0.  1.
        -12    1    3    3    0    0  0.19309625336E+02 -0.22371805915E+02  0.22738793143E+02  0.37288229297E+02  0.00000000000E+00 0.  1.
</event>
<event>
 7    1  0.1418970E-010  0.4778728E+02  0.7816164E-02  0.1312668E+00
        -11   -1    0    0    0    0  0.00000000000E+00  0.00000000000E+00  0.45593999997E+02  0.45594000000E+02  0.51100000000E-03 0. -1.
         11   -1    0    0    0    0 -0.00000000000E+00 -0.00000000000E+00 -0.45593999997E+02  0.45594000000E+02  0.51100000000E-03 0.  1.
    9900012    2    1    2    0    0 -0.29664281211E+02  0.20988704751E+02 -0.23730299008E+02  0.47787281136E+02  0.20000046011E+02 0.  0.
         12    1    1    2    0    0  0.29664281211E+02 -0.20988704751E+02  0.23730299008E+02  0.43400718864E+02  0.00000000000E+00 0. -1.
         11    1    3    3    0    0 -0.91083930723E+01  0.77827980310E+00 -0.60564951287E+00  0.91616240593E+01  0.51100000000E-03 0.  1.
        -11    1    3    3    0    0 -0.12981470454E+02  0.14715514648E+02 -0.87779379294E+01  0.21496910035E+02  0.51100000000E-03 0. -1.
         12    1    3    3    0    0 -0.75744176851E+01  0.54949103007E+01 -0.14346711566E+02  0.17128747042E+02  0.00000000000E+00 0. -1.
</event>
<event>
 7    1  0.1418970E-010  0.4778727E+02  0.7816164E-02  0.1312668E+00
        -11   -1    0    0    0    0  0.00000000000E+00  0.00000000000E+00  0.45593999997E+02  0.45594000000E+02  0.51100000000E-03 0.  1.
         11   -1    0    0    0    0 -0.00000000000E+00 -0.00000000000E+00 -0.45593999997E+02  0.45594000000E+02  0.51100000000E-03 0. -1.
    9900012    2    1    2    0    0  0.24738060608E+02  0.68339309773E+01  0.34999270515E+02  0.47787271990E+02  0.20000004309E+02 0.  0.
         12    1    1    2    0    0 -0.24738060608E+02 -0.68339309773E+01 -0.34999270515E+02  0.43400728010E+02  0.00000000000E+00 0. -1.
         11    1    3    3    0    0 -0.87094495644E+00 -0.17293729123E+01  0.13166855302E+01  0.23415671747E+01  0.51100000000E-03 0. -1.
        -11    1    3    3    0    0  0.42740900732E+00  0.50668856963E+01  0.57438951526E+01  0.76712672294E+01  0.51100000000E-03 0.  1.
         12    1    3    3    0    0  0.25181596558E+02  0.34964181933E+01  0.27938689832E+02  0.37774437585E+02  0.00000000000E+00 0. -1.
</event>
<event>
 7    1  0.1418970E-010  0.4778727E+02  0.7816164E-02  0.1312668E+00
        -11   -1    0    0    0    0  0.00000000000E+00  0.00000000000E+00  0.45593999997E+02  0.45594000000E+02  0.51100000000E-03 0.  1.
         11   -1    0    0    0    0 -0.00000000000E+00 -0.00000000000E+00 -0.45593999997E+02  0.45594000000E+02  0.51100000000E-03 0. -1.
    9900012    2    1    2    0    0  0.21744006736E+02  0.97005232161E+01  0.36286659132E+02  0.47787267166E+02  0.19999982315E+02 0.  0.
         12    1    1    2    0    0 -0.21744006736E+02 -0.97005232161E+01 -0.36286659132E+02  0.43400732834E+02  0.00000000000E+00 0. -1.
         11    1    3    3    0    0  0.24218005010E+02  0.81597085806E+01  0.27705993147E+02  0.37692368820E+02  0.51100000000E-03 0. -1.
        -11    1    3    3    0    0 -0.64852241656E+00  0.17705646645E+01  0.71450681221E+00  0.20164326921E+01  0.51100000000E-03 0.  1.
         12    1    3    3    0    0 -0.18254758571E+01 -0.22975002900E+00  0.78661591730E+01  0.80784656535E+01  0.00000000000E+00 0. -1.
</event>
<event>
 7    1  0.1418970E-010  0.4778726E+02  0.7816164E-02  0.1312668E+00
        -11   -1    0    0    0    0  0.00000000000E+00  0.00000000000E+00  0.45593999997E+02  0.45594000000E+02  0.51100000000E-03 0.  1.
         11   -1    0    0    0    0 -0.00000000000E+00 -0.00000000000E+00 -0.45593999997E+02  0.45594000000E+02  0.51100000000E-03 0. -1.
    9900012    2    1    2    0    0  0.36999460140E+02 -0.18210141852E+01  0.22613010004E+02  0.47787258476E+02  0.19999942697E+02 0.  0.
         12    1    1    2    0    0 -0.36999460140E+02  0.18210141852E+01 -0.22613010004E+02  0.43400741524E+02  0.00000000000E+00 0. -1.
         11    1    3    3    0    0  0.18938404064E+02 -0.39383644633E+01  0.65103240616E+01  0.20409757049E+02  0.51100000000E-03 0. -1.
        -11    1    3    3    0    0  0.11189013267E+02 -0.34862422802E+01  0.14012476580E+02  0.18267386329E+02  0.51100000000E-03 0.  1.
        -12    1    3    3    0    0  0.68720428095E+01  0.56035925582E+01  0.20902093627E+01  0.91101150989E+01  0.00000000000E+00 0.  1.
</event>
<event>
 7    1  0.1418970E-010  0.4778727E+02  0.7816164E-02  0.1312668E+00
        -11   -1    0    0    0    0  0.00000000000E+00  0.00000000000E+00  0.45593999997E+02  0.45594000000E+02  0.51100000000E-03 0.  1.
         11   -1    0    0    0    0 -0.00000000000E+00 -0.00000000000E+00 -0.45593999997E+02  0.45594000000E+02  0.51100000000E-03 0. -1.
    9900012    2    1    2    0    0 -0.31577543475E+02 -0.55119005906E+00  0.29768751244E+02  0.47787267137E+02  0.19999982185E+02 0.  0.
         12    1    1    2    0    0  0.31577543475E+02  0.55119005906E+00 -0.29768751244E+02  0.43400732863E+02  0.00000000000E+00 0. -1.
         11    1    3    3    0    0 -0.10221129713E+02 -0.12802006244E+01  0.18818895060E+01  0.10471481014E+02  0.51100000000E-03 0. -1.
        -11    1    3    3    0    0 -0.22984232165E+02  0.14092839875E+01  0.25741781034E+02  0.34538388796E+02  0.51100000000E-03 0.  1.
         12    1    3    3    0    0  0.16278184033E+01 -0.68027342212E+00  0.21450807042E+01  0.27773973268E+01  0.00000000000E+00 0. -1.
</event>
<event>
 7    1  0.1418970E-010  0.4778728E+02  0.7816164E-02  0.1312668E+00
        -11   -1    0    0    0    0  0.00000000000E+00  0.00000000000E+00  0.45593999997E+02  0.45594000000E+02  0.51100000000E-03 0.  1.
         11   -1    0    0    0    0 -0.00000000000E+00 -0.00000000000E+00 -0.45593999997E+02  0.45594000000E+02  0.51100000000E-03 0. -1.
    9900012    2    1    2    0    0  0.12524936066E+02 -0.32344514325E+02  0.26087951230E+02  0.47787276161E+02  0.20000023326E+02 0.  0.
         12    1    1    2    0    0 -0.12524936066E+02  0.32344514325E+02 -0.26087951230E+02  0.43400723839E+02  0.00000000000E+00 0. -1.
         11    1    3    3    0    0  0.90395847783E+01 -0.11739049025E+02  0.69152077544E+01  0.16350518754E+02  0.51100000000E-03 0. -1.
        -11    1    3    3    0    0  0.15961016074E+01 -0.20117221771E+02  0.20737128954E+02  0.28935767998E+02  0.51100000000E-03 0.  1.
        -12    1    3    3    0    0  0.18892496805E+01 -0.48824352938E+00 -0.15643854779E+01  0.25009894087E+01  0.00000000000E+00 0.  1.
</event>
<event>
 7    1  0.1418970E-010  0.4778727E+02  0.7816164E-02  0.1312668E+00
        -11   -1    0    0    0    0  0.00000000000E+00  0.00000000000E+00  0.45593999997E+02  0.45594000000E+02  0.51100000000E-03 0.  1.
         11   -1    0    0    0    0 -0.00000000000E+00 -0.00000000000E+00 -0.45593999997E+02  0.45594000000E+02  0.51100000000E-03 0. -1.
    9900012    2    1    2    0    0  0.16878918408E+02 -0.10030340833E+02  0.38705526606E+02  0.47787269434E+02  0.19999992655E+02 0.  0.
         12    1    1    2    0    0 -0.16878918408E+02  0.10030340833E+02 -0.38705526606E+02  0.43400730566E+02  0.00000000000E+00 0. -1.
         11    1    3    3    0    0  0.23855622027E+01 -0.37846881064E+01  0.34716038048E+00  0.44872365301E+01  0.51100000000E-03 0. -1.
        -11    1    3    3    0    0  0.69319619408E+01  0.34646123838E+01  0.13656263911E+02  0.15701884587E+02  0.51100000000E-03 0.  1.
         12    1    3    3    0    0  0.75613942647E+01 -0.97102651100E+01  0.24702102314E+02  0.27598148316E+02  0.00000000000E+00 0. -1.
</event>
<event>
 7    1  0.1418970E-010  0.4778727E+02  0.7816164E-02  0.1312668E+00
        -11   -1    0    0    0    0  0.00000000000E+00  0.00000000000E+00  0.45593999997E+02  0.45594000000E+02  0.51100000000E-03 0. -1.
         11   -1    0    0    0    0 -0.00000000000E+00 -0.00000000000E+00 -0.45593999997E+02  0.45594000000E+02  0.51100000000E-03 0.  1.
    9900012    2    1    2    0    0  0.28244633026E+02 -0.32877054869E+02 -0.22278412101E+01  0.47787270651E+02  0.19999998204E+02 0.  0.
         12    1    1    2    0    0 -0.28244633026E+02  0.32877054869E+02  0.22278412101E+01  0.43400729349E+02  0.00000000000E+00 0. -1.
         11    1    3    3    0    0 -0.24158079272E+00 -0.14425209080E+01  0.19066556656E+01  0.24030322382E+01  0.51100000000E-03 0. -1.
        -11    1    3    3    0    0  0.27577737388E+02 -0.23315693450E+02 -0.68862165112E+01  0.36763747614E+02  0.51100000000E-03 0.  1.
        -12    1    3    3    0    0  0.90847643071E+00 -0.81188405101E+01  0.27517196356E+01  0.86204907984E+01  0.00000000000E+00 0.  1.
</event>
<event>
 7    1  0.1418970E-010  0.4778727E+02  0.7816164E-02  0.1312668E+00
        -11   -1    0    0    0    0  0.00000000000E+00  0.00000000000E+00  0.45593999997E+02  0.45594000000E+02  0.51100000000E-03 0. -1.
         11   -1    0    0    0    0 -0.00000000000E+00 -0.00000000000E+00 -0.45593999997E+02  0.45594000000E+02  0.51100000000E-03 0.  1.
    9900012    2    1    2    0    0  0.32419987002E+02  0.33852602747E+01 -0.28654976428E+02  0.47787271683E+02  0.20000002911E+02 0.  0.
         12    1    1    2    0    0 -0.32419987002E+02 -0.33852602747E+01  0.28654976428E+02  0.43400728317E+02  0.00000000000E+00 0. -1.
         11    1    3    3    0    0  0.23523178902E+01  0.37542434222E+01 -0.94831881936E+01  0.10467024492E+02  0.51100000000E-03 0. -1.
        -11    1    3    3    0    0  0.15350193306E+02  0.40725038481E+01 -0.56800153198E+01  0.16866425123E+02  0.51100000000E-03 0.  1.
        -12    1    3    3    0    0  0.14717475806E+02 -0.44414869956E+01 -0.13491772914E+02  0.20453822068E+02  0.00000000000E+00 0.  1.
</event>
<event>
 7    1  0.1418970E-010  0.4778727E+02  0.7816164E-02  0.1312668E+00
        -11   -1    0    0    0    0  0.00000000000E+00  0.00000000000E+00  0.45593999997E+02  0.45594000000E+02  0.51100000000E-03 0.  1.
         11   -1    0    0    0    0 -0.00000000000E+00 -0.00000000000E+00 -0.45593999997E+02  0.45594000000E+02  0.51100000000E-03 0. -1.
    9900012    2    1    2    0    0 -0.11626351736E+02  0.23328096991E+02  0.34702317997E+02  0.47787273759E+02  0.20000012375E+02 0.  0.
         12    1    1    2    0    0  0.11626351736E+02 -0.23328096991E+02 -0.34702317997E+02  0.43400726241E+02  0.00000000000E+00 0. -1.
         11    1    3    3    0    0 -0.28477179889E+01 -0.11843473914E+01  0.13901021206E+01  0.33829810307E+01  0.51100000000E-03 0. -1.
        -11    1    3    3    0    0  0.33321090428E+01  0.85400913959E+01  0.12589833976E+02  0.15573696784E+02  0.51100000000E-03 0.  1.
        -12    1    3    3    0    0 -0.12110742790E+02  0.15972352986E+02  0.20722381901E+02  0.28830595944E+02  0.00000000000E+00 0.  1.
</event>
<event>
 7    1  0.1418970E-010  0.4778727E+02  0.7816164E-02  0.1312668E+00
        -11   -1    0    0    0    0  0.00000000000E+00  0.00000000000E+00  0.45593999997E+02  0.45594000000E+02  0.51100000000E-03 0.  1.
         11   -1    0    0    0    0 -0.00000000000E+00 -0.00000000000E+00 -0.45593999997E+02  0.45594000000E+02  0.51100000000E-03 0. -1.
    9900012    2    1    2    0    0 -0.21929587069E+02  0.17832831219E+02  0.32934886224E+02  0.47787269720E+02  0.19999993961E+02 0.  0.
         12    1    1    2    0    0  0.21929587069E+02 -0.17832831219E+02 -0.32934886224E+02  0.43400730280E+02  0.00000000000E+00 0. -1.
         11    1    3    3    0    0 -0.12877682128E+02  0.10921695554E+02  0.17062511043E+02  0.24005153907E+02  0.51100000000E-03 0.  1.
        -11    1    3    3    0    0 -0.44284943974E+01  0.64020063619E+01  0.17254954817E+02  0.18929625303E+02  0.51100000000E-03 0. -1.
         12    1    3    3    0    0 -0.46234105433E+01  0.50912930363E+00 -0.13825796366E+01  0.48524905102E+01  0.00000000000E+00 0. -1.
</event>
<event>
 7    1  0.1418970E-010  0.4778727E+02  0.7816164E-02  0.1312668E+00
        -11   -1    0    0    0    0  0.00000000000E+00  0.00000000000E+00  0.45593999997E+02  0.45594000000E+02  0.51100000000E-03 0. -1.
         11   -1    0    0    0    0 -0.00000000000E+00 -0.00000000000E+00 -0.45593999997E+02  0.45594000000E+02  0.51100000000E-03 0.  1.
    9900012    2    1    2    0    0  0.25169029485E+02  0.33143029249E+02 -0.12315961786E+02  0.47787270193E+02  0.19999996119E+02 0.  0.
         12    1    1    2    0    0 -0.25169029485E+02 -0.33143029249E+02  0.12315961786E+02  0.43400729807E+02  0.00000000000E+00 0. -1.
         11    1    3    3    0    0  0.64392553992E+00  0.35046831853E+01 -0.17125013668E+00  0.35674600489E+01  0.51100000000E-03 0. -1.
        -11    1    3    3    0    0  0.25407843875E+02  0.18956551963E+02 -0.77379754388E+01  0.32631053566E+02  0.51100000000E-03 0.  1.
        -12    1    3    3    0    0 -0.88273992923E+00  0.10681794101E+02 -0.44067362109E+01  0.11588756578E+02  0.00000000000E+00 0.  1.
</event>
<event>
 7    1  0.1418970E-010  0.4778727E+02  0.7816164E-02  0.1312668E+00
        -11   -1    0    0    0    0  0.00000000000E+00  0.00000000000E+00  0.45593999997E+02  0.45594000000E+02  0.51100000000E-03 0.  1.
         11   -1    0    0    0    0 -0.00000000000E+00 -0.00000000000E+00 -0.45593999997E+02  0.45594000000E+02  0.51100000000E-03 0. -1.
    9900012    2    1    2    0    0  0.58878671340E+01 -0.35757613155E+02  0.23881986637E+02  0.47787272314E+02  0.20000005789E+02 0.  0.
         12    1    1    2    0    0 -0.58878671340E+01  0.35757613155E+02 -0.23881986637E+02  0.43400727686E+02  0.00000000000E+00 0. -1.
         11    1    3    3    0    0 -0.27228656314E+01 -0.28235584350E+01 -0.48705231744E+00  0.39526825958E+01  0.51100000000E-03 0. -1.
        -11    1    3    3    0    0  0.94575901319E+00 -0.11283146863E+02  0.14975096906E+01  0.11421313356E+02  0.51100000000E-03 0.  1.
        -12    1    3    3    0    0  0.76649737521E+01 -0.21650907857E+02  0.22871529264E+02  0.32413276362E+02  0.00000000000E+00 0.  1.
</event>
<event>
 7    1  0.1418970E-010  0.4778727E+02  0.7816164E-02  0.1312668E+00
        -11   -1    0    0    0    0  0.00000000000E+00  0.00000000000E+00  0.45593999997E+02  0.45594000000E+02  0.51100000000E-03 0. -1.
         11   -1    0    0    0    0 -0.00000000000E+00 -0.00000000000E+00 -0.45593999997E+02  0.45594000000E+02  0.51100000000E-03 0.  1.
    9900012    2    1    2    0    0  0.15072024301E+02 -0.38617931562E+02 -0.12849617110E+02  0.47787271728E+02  0.20000003116E+02 0.  0.
         12    1    1    2    0    0 -0.15072024301E+02  0.38617931562E+02  0.12849617110E+02  0.43400728272E+02  0.00000000000E+00 0. -1.
         11    1    3    3    0    0  0.21910224086E+00 -0.34874292788E+01  0.31011060076E+01  0.46719404425E+01  0.51100000000E-03 0. -1.
        -11    1    3    3    0    0  0.14829342364E+02 -0.23261138225E+02 -0.76360686960E+01  0.28623408110E+02  0.51100000000E-03 0.  1.
        -12    1    3    3    0    0  0.23579696315E-01 -0.11869364058E+02 -0.83146544221E+01  0.14491923175E+02  0.00000000000E+00 0.  1.
</event>
<event>
 7    1  0.1418970E-010  0.4778727E+02  0.7816164E-02  0.1312668E+00
        -11   -1    0    0    0    0  0.00000000000E+00  0.00000000000E+00  0.45593999997E+02  0.45594000000E+02  0.51100000000E-03 0.  1.
         11   -1    0    0    0    0 -0.00000000000E+00 -0.00000000000E+00 -0.45593999997E+02  0.45594000000E+02  0.51100000000E-03 0. -1.
    9900012    2    1    2    0    0  0.15438889215E+02 -0.13970987689E+02  0.38079863035E+02  0.47787265375E+02  0.19999974150E+02 0.  0.
         12    1    1    2    0    0 -0.15438889215E+02  0.13970987689E+02 -0.38079863035E+02  0.43400734625E+02  0.00000000000E+00 0. -1.
         11    1    3    3    0    0  0.33516495677E+01 -0.40164247967E+01  0.31256637292E+01  0.60938491105E+01  0.51100000000E-03 0. -1.
        -11    1    3    3    0    0  0.10385490916E+02 -0.59658412534E+01  0.35364368064E+02  0.37337490706E+02  0.51100000000E-03 0.  1.
         12    1    3    3    0    0  0.17017487310E+01 -0.39887216394E+01 -0.41016875754E+00  0.43559255583E+01  0.00000000000E+00 0. -1.
</event>
<event>
 7    1  0.1418970E-010  0.4778727E+02  0.7816164E-02  0.1312668E+00
        -11   -1    0    0    0    0  0.00000000000E+00  0.00000000000E+00  0.45593999997E+02  0.45594000000E+02  0.51100000000E-03 0.  1.
         11   -1    0    0    0    0 -0.00000000000E+00 -0.00000000000E+00 -0.45593999997E+02  0.45594000000E+02  0.51100000000E-03 0. -1.
    9900012    2    1    2    0    0  0.22029233998E+02 -0.67383939987E+01  0.36782196193E+02  0.47787273497E+02  0.20000011181E+02 0.  0.
         12    1    1    2    0    0 -0.22029233998E+02  0.67383939987E+01 -0.36782196193E+02  0.43400726503E+02  0.00000000000E+00 0. -1.
         11    1    3    3    0    0  0.29877983043E+01  0.69277108822E+00 -0.14699387968E+01  0.34011161132E+01  0.51100000000E-03 0. -1.
        -11    1    3    3    0    0  0.46393525793E+01  0.58079235035E+00  0.16167401379E+02  0.16829907300E+02  0.51100000000E-03 0.  1.
         12    1    3    3    0    0  0.14402083114E+02 -0.80119574373E+01  0.22084733611E+02  0.27556250083E+02  0.00000000000E+00 0. -1.
</event>
<event>
 7    1  0.1702607E-010  0.4778727E+02  0.7816164E-02  0.1312668E+00
        -11   -1    0    0    0    0  0.00000000000E+00  0.00000000000E+00  0.45593999997E+02  0.45594000000E+02  0.51100000000E-03 0.  1.
         11   -1    0    0    0    0 -0.00000000000E+00 -0.00000000000E+00 -0.45593999997E+02  0.45594000000E+02  0.51100000000E-03 0. -1.
    9900012    2    1    2    0    0  0.43287775358E+02 -0.12477501410E+01  0.28696151605E+01  0.47787273427E+02  0.20000010865E+02 0.  0.
         12    1    1    2    0    0 -0.43287775358E+02  0.12477501410E+01 -0.28696151605E+01  0.43400726573E+02  0.00000000000E+00 0. -1.
         11    1    3    3    0    0  0.65365830324E+01 -0.86881721200E+00  0.42162269320E+01  0.78267701442E+01  0.51100000000E-03 0. -1.
        -11    1    3    3    0    0  0.14514303978E+02 -0.31316911645E+01 -0.76238693220E+01  0.16691192085E+02  0.51100000000E-03 0.  1.
        -12    1    3    3    0    0  0.22236888348E+02  0.27527582355E+01  0.62772575504E+01  0.23269311199E+02  0.00000000000E+00 0.  1.
</event>
<event>
 7    1  0.1418970E-010  0.4778728E+02  0.7816164E-02  0.1312668E+00
        -11   -1    0    0    0    0  0.00000000000E+00  0.00000000000E+00  0.45593999997E+02  0.45594000000E+02  0.51100000000E-03 0.  1.
         11   -1    0    0    0    0 -0.00000000000E+00 -0.00000000000E+00 -0.45593999997E+02  0.45594000000E+02  0.51100000000E-03 0. -1.
    9900012    2    1    2    0    0  0.41002454214E+02  0.14565262040E+01  0.14152745540E+02  0.47787275047E+02  0.20000018248E+02 0.  0.
         12    1    1    2    0    0 -0.41002454214E+02 -0.14565262040E+01 -0.14152745540E+02  0.43400724953E+02  0.00000000000E+00 0. -1.
         11    1    3    3    0    0  0.52196549304E+01 -0.52374515868E+01  0.19063553875E+01  0.76360911363E+01  0.51100000000E-03 0. -1.
        -11    1    3    3    0    0  0.16631877479E+02 -0.20339429449E+01  0.84485978566E+01  0.18765262545E+02  0.51100000000E-03 0.  1.
        -12    1    3    3    0    0  0.19150921804E+02  0.87279207357E+01  0.37977922956E+01  0.21385921365E+02  0.00000000000E+00 0.  1.
</event>
<event>
 7    1  0.1418970E-010  0.4778727E+02  0.7816164E-02  0.1312668E+00
        -11   -1    0    0    0    0  0.00000000000E+00  0.00000000000E+00  0.45593999997E+02  0.45594000000E+02  0.51100000000E-03 0.  1.
         11   -1    0    0    0    0 -0.00000000000E+00 -0.00000000000E+00 -0.45593999997E+02  0.45594000000E+02  0.51100000000E-03 0. -1.
    9900012    2    1    2    0    0  0.42035289260E+02  0.98822030719E+01 -0.43588398842E+01  0.47787274593E+02  0.20000016180E+02 0.  0.
         12    1    1    2    0    0 -0.42035289260E+02 -0.98822030719E+01  0.43588398842E+01  0.43400725407E+02  0.00000000000E+00 0. -1.
         11    1    3    3    0    0  0.16457093269E+02 -0.51501153936E+01  0.64122510475E+00  0.17256035968E+02  0.51100000000E-03 0. -1.
        -11    1    3    3    0    0  0.17054227325E+02  0.72545819536E+01 -0.39072264952E+01  0.18940487008E+02  0.51100000000E-03 0.  1.
         12    1    3    3    0    0  0.85239686664E+01  0.77777365119E+01 -0.10928384937E+01  0.11590751617E+02  0.00000000000E+00 0. -1.
</event>
<event>
 7    1  0.1418970E-010  0.4778726E+02  0.7816164E-02  0.1312668E+00
        -11   -1    0    0    0    0  0.00000000000E+00  0.00000000000E+00  0.45593999997E+02  0.45594000000E+02  0.51100000000E-03 0.  1.
         11   -1    0    0    0    0 -0.00000000000E+00 -0.00000000000E+00 -0.45593999997E+02  0.45594000000E+02  0.51100000000E-03 0. -1.
    9900012    2    1    2    0    0 -0.20270529815E+02 -0.15140990048E+02  0.35263021110E+02  0.47787255578E+02  0.19999929482E+02 0.  0.
         12    1    1    2    0    0  0.20270529815E+02  0.15140990048E+02 -0.35263021110E+02  0.43400744422E+02  0.00000000000E+00 0. -1.
         11    1    3    3    0    0  0.57379180037E+00 -0.14921885601E+01  0.63532378475E+00  0.17203198254E+01  0.51100000000E-03 0. -1.
        -11    1    3    3    0    0 -0.37155409509E+00 -0.94554207127E+01  0.99941016239E+01  0.13763179169E+02  0.51100000000E-03 0.  1.
         12    1    3    3    0    0 -0.20472767520E+02 -0.41933807749E+01  0.24633595701E+02  0.32303756584E+02  0.00000000000E+00 0. -1.
</event>
<event>
 7    1  0.1418970E-010  0.4778726E+02  0.7816164E-02  0.1312668E+00
        -11   -1    0    0    0    0  0.00000000000E+00  0.00000000000E+00  0.45593999997E+02  0.45594000000E+02  0.51100000000E-03 0. -1.
         11   -1    0    0    0    0 -0.00000000000E+00 -0.00000000000E+00 -0.45593999997E+02  0.45594000000E+02  0.51100000000E-03 0.  1.
    9900012    2    1    2    0    0 -0.27461383467E+02  0.31609386201E+02 -0.11416783090E+02  0.47787264821E+02  0.19999971625E+02 0.  0.
         12    1    1    2    0    0  0.27461383467E+02 -0.31609386201E+02  0.11416783090E+02  0.43400735179E+02  0.00000000000E+00 0. -1.
         11    1    3    3    0    0 -0.97814309429E+01  0.78719761259E+01 -0.63281945675E+01  0.14060243460E+02  0.51100000000E-03 0. -1.
        -11    1    3    3    0    0  0.26993032489E+01  0.45116884385E+01 -0.32497474721E-01  0.52576255993E+01  0.51100000000E-03 0.  1.
        -12    1    3    3    0    0 -0.20379255773E+02  0.19225721637E+02 -0.50560910473E+01  0.28469395761E+02  0.00000000000E+00 0.  1.
</event>
<event>
 7    1  0.1418970E-010  0.4778727E+02  0.7816164E-02  0.1312668E+00
        -11   -1    0    0    0    0  0.00000000000E+00  0.00000000000E+00  0.45593999997E+02  0.45594000000E+02  0.51100000000E-03 0.  1.
         11   -1    0    0    0    0 -0.00000000000E+00 -0.00000000000E+00 -0.45593999997E+02  0.45594000000E+02  0.51100000000E-03 0. -1.
    9900012    2    1    2    0    0 -0.14977635947E+02  0.27813430313E+02  0.29760829520E+02  0.47787268923E+02  0.19999990328E+02 0.  0.
         12    1    1    2    0    0  0.14977635947E+02 -0.27813430313E+02 -0.29760829520E+02  0.43400731077E+02  0.00000000000E+00 0. -1.
         11    1    3    3    0    0 -0.72742086642E+01  0.11073889593E+02  0.11387778980E+02  0.17470737041E+02  0.51100000000E-03 0. -1.
        -11    1    3    3    0    0 -0.70090892976E+01  0.17309427249E+02  0.20666142629E+02  0.27853779921E+02  0.51100000000E-03 0.  1.
         12    1    3    3    0    0 -0.69433798473E+00 -0.56988652912E+00 -0.22930920890E+01  0.24627519611E+01  0.00000000000E+00 0. -1.
</event>
<event>
 7    1  0.1418970E-010  0.4778727E+02  0.7816164E-02  0.1312668E+00
        -11   -1    0    0    0    0  0.00000000000E+00  0.00000000000E+00  0.45593999997E+02  0.45594000000E+02  0.51100000000E-03 0. -1.
         11   -1    0    0    0    0 -0.00000000000E+00 -0.00000000000E+00 -0.45593999997E+02  0.45594000000E+02  0.51100000000E-03 0.  1.
    9900012    2    1    2    0    0 -0.17106204064E+02  0.38462369329E+02 -0.10566327303E+02  0.47787270230E+02  0.19999996288E+02 0.  0.
         12    1    1    2    0    0  0.17106204064E+02 -0.38462369329E+02  0.10566327303E+02  0.43400729770E+02  0.00000000000E+00 0. -1.
         11    1    3    3    0    0 -0.39199717604E+01  0.15917556747E+01  0.31292063680E+01  0.52622996385E+01  0.51100000000E-03 0. -1.
        -11    1    3    3    0    0 -0.15280888438E+01  0.12547803342E+02 -0.79951567598E+01  0.14956769575E+02  0.51100000000E-03 0.  1.
        -12    1    3    3    0    0 -0.11658143460E+02  0.24322810312E+02 -0.57003769114E+01  0.27568201017E+02  0.00000000000E+00 0.  1.
</event>
<event>
 7    1  0.1418970E-010  0.4778727E+02  0.7816164E-02  0.1312668E+00
        -11   -1    0    0    0    0  0.00000000000E+00  0.00000000000E+00  0.45593999997E+02  0.45594000000E+02  0.51100000000E-03 0.  1.
         11   -1    0    0    0    0 -0.00000000000E+00 -0.00000000000E+00 -0.45593999997E+02  0.45594000000E+02  0.51100000000E-03 0. -1.
    9900012    2    1    2    0    0  0.43091363036E+02 -0.45207704386E+01  0.25140018014E+01  0.47787272602E+02  0.20000007102E+02 0.  0.
         12    1    1    2    0    0 -0.43091363036E+02  0.45207704386E+01 -0.25140018014E+01  0.43400727398E+02  0.00000000000E+00 0. -1.
         11    1    3    3    0    0  0.82158990308E+01 -0.41679921585E+01 -0.39159069008E+01  0.10010368756E+02  0.51100000000E-03 0. -1.
        -11    1    3    3    0    0  0.10703387801E+02 -0.38912343864E+01  0.69495549931E+01  0.13341683939E+02  0.51100000000E-03 0.  1.
         12    1    3    3    0    0  0.24172076204E+02  0.35384561063E+01 -0.51964629094E+00  0.24435219907E+02  0.00000000000E+00 0. -1.
</event>
<event>
 7    1  0.1418970E-010  0.4778727E+02  0.7816164E-02  0.1312668E+00
        -11   -1    0    0    0    0  0.00000000000E+00  0.00000000000E+00  0.45593999997E+02  0.45594000000E+02  0.51100000000E-03 0.  1.
         11   -1    0    0    0    0 -0.00000000000E+00 -0.00000000000E+00 -0.45593999997E+02  0.45594000000E+02  0.51100000000E-03 0. -1.
    9900012    2    1    2    0    0 -0.11123470388E+02  0.94204191460E+01  0.40879668857E+02  0.47787271708E+02  0.20000003027E+02 0.  0.
         12    1    1    2    0    0  0.11123470388E+02 -0.94204191460E+01 -0.40879668857E+02  0.43400728292E+02  0.00000000000E+00 0. -1.
         11    1    3    3    0    0 -0.47267293348E+01 -0.21345470473E+01  0.12599824912E+02  0.13625485290E+02  0.51100000000E-03 0. -1.
        -11    1    3    3    0    0 -0.42014114548E+01  0.12590148890E+02  0.28771466788E+02  0.31685343752E+02  0.51100000000E-03 0.  1.
         12    1    3    3    0    0 -0.21953295983E+01 -0.10351826970E+01 -0.49162284283E+00  0.24764426666E+01  0.00000000000E+00 0. -1.
</event>
<event>
 7    1  0.1418970E-010  0.4778726E+02  0.7816164E-02  0.1312668E+00
        -11   -1    0    0    0    0  0.00000000000E+00  0.00000000000E+00  0.45593999997E+02  0.45594000000E+02  0.51100000000E-03 0.  1.
         11   -1    0    0    0    0 -0.00000000000E+00 -0.00000000000E+00 -0.45593999997E+02  0.45594000000E+02  0.51100000000E-03 0. -1.
    9900012    2    1    2    0    0 -0.61408157653E+01  0.13660597754E+02  0.40734534385E+02  0.47787264513E+02  0.19999970219E+02 0.  0.
         12    1    1    2    0    0  0.61408157653E+01 -0.13660597754E+02 -0.40734534385E+02  0.43400735487E+02  0.00000000000E+00 0. -1.
         11    1    3    3    0    0  0.25051443826E+01  0.90340047878E+01  0.11744119357E+02  0.15027086564E+02  0.51100000000E-03 0. -1.
        -11    1    3    3    0    0 -0.29594327070E+01  0.20954332685E-01  0.23308371787E+02  0.23495507584E+02  0.51100000000E-03 0.  1.
         12    1    3    3    0    0 -0.56865274409E+01  0.46056386334E+01  0.56820432420E+01  0.92646703645E+01  0.00000000000E+00 0. -1.
</event>
<event>
 7    1  0.1752071E-010  0.4778727E+02  0.7816164E-02  0.1312668E+00
        -11   -1    0    0    0    0  0.00000000000E+00  0.00000000000E+00  0.45593999997E+02  0.45594000000E+02  0.51100000000E-03 0. -1.
         11   -1    0    0    0    0 -0.00000000000E+00 -0.00000000000E+00 -0.45593999997E+02  0.45594000000E+02  0.51100000000E-03 0.  1.
    9900012    2    1    2    0    0  0.12179114389E+02  0.15127757881E+02 -0.38812928590E+02  0.47787270611E+02  0.19999998022E+02 0.  0.
         12    1    1    2    0    0 -0.12179114389E+02 -0.15127757881E+02  0.38812928590E+02  0.43400729389E+02  0.00000000000E+00 0. -1.
         11    1    3    3    0    0  0.53707079871E+01  0.14003624723E+02 -0.15994499741E+02  0.21926468752E+02  0.51100000000E-03 0. -1.
        -11    1    3    3    0    0  0.31855125449E+01  0.35604462834E+01 -0.20227433831E+02  0.20783968523E+02  0.51100000000E-03 0.  1.
         12    1    3    3    0    0  0.36228938566E+01 -0.24363131260E+01 -0.25909950179E+01  0.50768333365E+01  0.00000000000E+00 0. -1.
</event>
<event>
 7    1  0.1418970E-010  0.4778727E+02  0.7816164E-02  0.1312668E+00
        -11   -1    0    0    0    0  0.00000000000E+00  0.00000000000E+00  0.45593999997E+02  0.45594000000E+02  0.51100000000E-03 0.  1.
         11   -1    0    0    0    0 -0.00000000000E+00 -0.00000000000E+00 -0.45593999997E+02  0.45594000000E+02  0.51100000000E-03 0. -1.
    9900012    2    1    2    0    0 -0.42423189226E+02  0.86876491962E+01 -0.29018650729E+01  0.47787273583E+02  0.20000011574E+02 0.  0.
         12    1    1    2    0    0  0.42423189226E+02 -0.86876491962E+01  0.29018650729E+01  0.43400726417E+02  0.00000000000E+00 0. -1.
         11    1    3    3    0    0 -0.33360660974E+01 -0.29730100227E+01 -0.48836921291E+01  0.66195600061E+01  0.51100000000E-03 0. -1.
        -11    1    3    3    0    0 -0.16451116162E+02  0.28734215703E+01 -0.84748952021E+00  0.16721662993E+02  0.51100000000E-03 0.  1.
         12    1    3    3    0    0 -0.22636006966E+02  0.87872376486E+01  0.28293165764E+01  0.24446050584E+02  0.00000000000E+00 0. -1.
</event>
<event>
 7    1  0.1418970E-010  0.4778727E+02  0.7816164E-02  0.1312668E+00
        -11   -1    0    0    0    0  0.00000000000E+00  0.00000000000E+00  0.45593999997E+02  0.45594000000E+02  0.51100000000E-03 0.  1.
         11   -1    0    0    0    0 -0.00000000000E+00 -0.00000000000E+00 -0.45593999997E+02  0.45594000000E+02  0.51100000000E-03 0. -1.
    9900012    2    1    2    0    0 -0.39690241461E+02  0.17473894518E+02  0.17236651249E+01  0.47787270993E+02  0.19999999767E+02 0.  0.
         12    1    1    2    0    0  0.39690241461E+02 -0.17473894518E+02 -0.17236651249E+01  0.43400729007E+02  0.00000000000E+00 0. -1.
         11    1    3    3    0    0 -0.26547210391E+02  0.20441472885E+02  0.48110479295E+01  0.33848993717E+02  0.51100000000E-03 0.  1.
        -11    1    3    3    0    0 -0.45772426259E+01 -0.29918142432E+00 -0.15079724188E+01  0.48285236520E+01  0.51100000000E-03 0. -1.
        -12    1    3    3    0    0 -0.85657884445E+01 -0.26683969431E+01 -0.15794103858E+01  0.91097536239E+01  0.00000000000E+00 0.  1.
</event>
<event>
 7    1  0.1816002E-010  0.4778727E+02  0.7816164E-02  0.1312668E+00
        -11   -1    0    0    0    0  0.00000000000E+00  0.00000000000E+00  0.45593999997E+02  0.45594000000E+02  0.51100000000E-03 0.  1.
         11   -1    0    0    0    0 -0.00000000000E+00 -0.00000000000E+00 -0.45593999997E+02  0.45594000000E+02  0.51100000000E-03 0. -1.
    9900012    2    1    2    0    0  0.27735866999E+02 -0.22447681918E+02  0.24707217832E+02  0.47787270114E+02  0.19999995756E+02 0.  0.
         12    1    1    2    0    0 -0.27735866999E+02  0.22447681918E+02 -0.24707217832E+02  0.43400729886E+02  0.00000000000E+00 0. -1.
         11    1    3    3    0    0  0.10129221923E+02 -0.15394017537E+01  0.21794223268E+01  0.10474768564E+02  0.51100000000E-03 0. -1.
        -11    1    3    3    0    0 -0.36762188312E+00 -0.32434261812E+01  0.69674328881E+01  0.76941588594E+01  0.51100000000E-03 0.  1.
        -12    1    3    3    0    0  0.17974266959E+02 -0.17664853983E+02  0.15560362617E+02  0.29618342690E+02  0.00000000000E+00 0.  1.
</event>
<event>
 7    1  0.1418970E-010  0.4778727E+02  0.7816164E-02  0.1312668E+00
        -11   -1    0    0    0    0  0.00000000000E+00  0.00000000000E+00  0.45593999997E+02  0.45594000000E+02  0.51100000000E-03 0.  1.
         11   -1    0    0    0    0 -0.00000000000E+00 -0.00000000000E+00 -0.45593999997E+02  0.45594000000E+02  0.51100000000E-03 0. -1.
    9900012    2    1    2    0    0 -0.16209264482E+02  0.39154721316E+00  0.40258286256E+02  0.47787272166E+02  0.20000005114E+02 0.  0.
         12    1    1    2    0    0  0.16209264482E+02 -0.39154721316E+00 -0.40258286256E+02  0.43400727834E+02  0.00000000000E+00 0. -1.
         11    1    3    3    0    0 -0.76066360779E+01  0.29624889980E+01  0.30930303916E+01  0.87294954464E+01  0.51100000000E-03 0. -1.
        -11    1    3    3    0    0 -0.50320746756E+01  0.26413768922E+01  0.18371630691E+02  0.19230586624E+02  0.51100000000E-03 0.  1.
         12    1    3    3    0    0 -0.35705537288E+01 -0.52123186770E+01  0.18793625173E+02  0.19827190095E+02  0.00000000000E+00 0. -1.
</event>
<event>
 7    1  0.1418970E-010  0.4778726E+02  0.7816164E-02  0.1312668E+00
        -11   -1    0    0    0    0  0.00000000000E+00  0.00000000000E+00  0.45593999997E+02  0.45594000000E+02  0.51100000000E-03 0.  1.
         11   -1    0    0    0    0 -0.00000000000E+00 -0.00000000000E+00 -0.45593999997E+02  0.45594000000E+02  0.51100000000E-03 0. -1.
    9900012    2    1    2    0    0 -0.16106977718E+02  0.33832810291E+02  0.21898176634E+02  0.47787263563E+02  0.19999965889E+02 0.  0.
         12    1    1    2    0    0  0.16106977718E+02 -0.33832810291E+02 -0.21898176634E+02  0.43400736437E+02  0.00000000000E+00 0. -1.
         11    1    3    3    0    0 -0.35899244750E+01  0.16333494066E+02  0.10528517324E+02  0.19761585550E+02  0.51100000000E-03 0. -1.
        -11    1    3    3    0    0  0.20463131864E+01  0.77609879016E+01  0.45471015817E+01  0.92247744645E+01  0.51100000000E-03 0.  1.
         12    1    3    3    0    0 -0.14563366429E+02  0.97383283228E+01  0.68225577287E+01  0.18800903548E+02  0.00000000000E+00 0. -1.
</event>
<event>
 7    1  0.1900259E-010  0.4778727E+02  0.7816164E-02  0.1312668E+00
        -11   -1    0    0    0    0  0.00000000000E+00  0.00000000000E+00  0.45593999997E+02  0.45594000000E+02  0.51100000000E-03 0. -1.
         11   -1    0    0    0    0 -0.00000000000E+00 -0.00000000000E+00 -0.45593999997E+02  0.45594000000E+02  0.51100000000E-03 0.  1.
    9900012    2    1    2    0    0  0.12822929993E+02 -0.24442525911E+02 -0.33492667244E+02  0.47787269988E+02  0.19999995181E+02 0.  0.
         12    1    1    2    0    0 -0.12822929993E+02  0.24442525911E+02  0.33492667244E+02  0.43400730012E+02  0.00000000000E+00 0. -1.
         11    1    3    3    0    0 -0.12321041790E+01 -0.52005755583E+01 -0.50698364337E+00  0.53685286179E+01  0.51100000000E-03 0. -1.
        -11    1    3    3    0    0  0.97291636614E+01 -0.19111937946E+02 -0.22541431394E+02  0.31113323949E+02  0.51100000000E-03 0.  1.
         12    1    3    3    0    0  0.43258705111E+01 -0.13001240646E+00 -0.10444252207E+02  0.11305417421E+02  0.00000000000E+00 0. -1.
</event>
<event>
 7    1  0.1418970E-010  0.4778727E+02  0.7816164E-02  0.1312668E+00
        -11   -1    0    0    0    0  0.00000000000E+00  0.00000000000E+00  0.45593999997E+02  0.45594000000E+02  0.51100000000E-03 0.  1.
         11   -1    0    0    0    0 -0.00000000000E+00 -0.00000000000E+00 -0.45593999997E+02  0.45594000000E+02  0.51100000000E-03 0. -1.
    9900012    2    1    2    0    0  0.25638732826E+02 -0.34623034127E+02  0.52463324276E+01  0.47787272851E+02  0.20000008239E+02 0.  0.
         12    1    1    2    0    0 -0.25638732826E+02  0.34623034127E+02 -0.52463324276E+01  0.43400727149E+02  0.00000000000E+00 0. -1.
         11    1    3    3    0    0  0.37732952407E+01 -0.37506134548E+01 -0.52401536369E+01  0.74675343093E+01  0.51100000000E-03 0. -1.
        -11    1    3    3    0    0  0.45457096969E+01 -0.14326290689E+01  0.15772740315E+01  0.50203283089E+01  0.51100000000E-03 0.  1.
        -12    1    3    3    0    0  0.17319727888E+02 -0.29439791603E+02  0.89092120330E+01  0.35299410233E+02  0.00000000000E+00 0.  1.
</event>
<event>
 7    1  0.1418970E-010  0.4778726E+02  0.7816164E-02  0.1312668E+00
        -11   -1    0    0    0    0  0.00000000000E+00  0.00000000000E+00  0.45593999997E+02  0.45594000000E+02  0.51100000000E-03 0.  1.
         11   -1    0    0    0    0 -0.00000000000E+00 -0.00000000000E+00 -0.45593999997E+02  0.45594000000E+02  0.51100000000E-03 0. -1.
    9900012    2    1    2    0    0  0.26481561808E+02 -0.21351334014E+02  0.26953139192E+02  0.47787259312E+02  0.19999946507E+02 0.  0.
         12    1    1    2    0    0 -0.26481561808E+02  0.21351334014E+02 -0.26953139192E+02  0.43400740688E+02  0.00000000000E+00 0. -1.
         11    1    3    3    0    0  0.15835484729E+02 -0.95916948648E+01  0.54820703969E+01  0.19308451080E+02  0.51100000000E-03 0. -1.
        -11    1    3    3    0    0  0.45401498432E+01 -0.50922819836E-02  0.98971619476E+01  0.10888838387E+02  0.51100000000E-03 0.  1.
        -12    1    3    3    0    0  0.61059272353E+01 -0.11754546868E+02  0.11573906847E+02  0.17589969846E+02  0.00000000000E+00 0.  1.
</event>
<event>
 7    1  0.1418970E-010  0.4778727E+02  0.7816164E-02  0.1312668E+00
        -11   -1    0    0    0    0  0.00000000000E+00  0.00000000000E+00  0.45593999997E+02  0.45594000000E+02  0.51100000000E-03 0.  1.
         11   -1    0    0    0    0 -0.00000000000E+00 -0.00000000000E+00 -0.45593999997E+02  0.45594000000E+02  0.51100000000E-03 0. -1.
    9900012    2    1    2    0    0  0.90725741626E+01  0.17185738558E+02  0.38806723737E+02  0.47787273981E+02  0.20000013391E+02 0.  0.
         12    1    1    2    0    0 -0.90725741626E+01 -0.17185738558E+02 -0.38806723737E+02  0.43400726019E+02  0.00000000000E+00 0. -1.
         11    1    3    3    0    0  0.10455058872E+01  0.80013021153E+01  0.23710188044E+02  0.25045696945E+02  0.51100000000E-03 0. -1.
        -11    1    3    3    0    0  0.43379697567E+01 -0.22238386003E+01  0.57552742297E+01  0.75423220197E+01  0.51100000000E-03 0.  1.
         12    1    3    3    0    0  0.36890985188E+01  0.11408275043E+02  0.93412614634E+01  0.15199255017E+02  0.00000000000E+00 0. -1.
</event>
<event>
 7    1  0.1418970E-010  0.4778727E+02  0.7816164E-02  0.1312668E+00
        -11   -1    0    0    0    0  0.00000000000E+00  0.00000000000E+00  0.45593999997E+02  0.45594000000E+02  0.51100000000E-03 0. -1.
         11   -1    0    0    0    0 -0.00000000000E+00 -0.00000000000E+00 -0.45593999997E+02  0.45594000000E+02  0.51100000000E-03 0.  1.
    9900012    2    1    2    0    0 -0.40462378125E+02 -0.78942312619E+00 -0.15677881577E+02  0.47787271859E+02  0.20000003715E+02 0.  0.
         12    1    1    2    0    0  0.40462378125E+02  0.78942312619E+00  0.15677881577E+02  0.43400728141E+02  0.00000000000E+00 0. -1.
         11    1    3    3    0    0 -0.38925309571E+01 -0.23315783601E+01  0.67234474932E-01  0.45379043222E+01  0.51100000000E-03 0. -1.
        -11    1    3    3    0    0 -0.27567975552E+02  0.59629054678E+01 -0.51705788351E+01  0.28675501798E+02  0.51100000000E-03 0.  1.
        -12    1    3    3    0    0 -0.90018716163E+01 -0.44207502340E+01 -0.10574537217E+02  0.14573865739E+02  0.00000000000E+00 0.  1.
</event>
<event>
 7    1  0.1418970E-010  0.4778727E+02  0.7816164E-02  0.1312668E+00
        -11   -1    0    0    0    0  0.00000000000E+00  0.00000000000E+00  0.45593999997E+02  0.45594000000E+02  0.51100000000E-03 0.  1.
         11   -1    0    0    0    0 -0.00000000000E+00 -0.00000000000E+00 -0.45593999997E+02  0.45594000000E+02  0.51100000000E-03 0. -1.
    9900012    2    1    2    0    0 -0.27188833388E+02  0.30278302143E+02  0.15086906160E+02  0.47787274440E+02  0.20000015482E+02 0.  0.
         12    1    1    2    0    0  0.27188833388E+02 -0.30278302143E+02 -0.15086906160E+02  0.43400725560E+02  0.00000000000E+00 0. -1.
         11    1    3    3    0    0 -0.29497605118E+01 -0.54851267355E+00 -0.12508485845E+01  0.32506269661E+01  0.51100000000E-03 0. -1.
        -11    1    3    3    0    0 -0.13764436658E+02  0.14387139393E+02  0.15127867400E+02  0.25006036646E+02  0.51100000000E-03 0.  1.
        -12    1    3    3    0    0 -0.10474636218E+02  0.16439675423E+02  0.12098873451E+01  0.19530610828E+02  0.00000000000E+00 0.  1.
</event>
<event>
 7    1  0.1418970E-010  0.4778728E+02  0.7816164E-02  0.1312668E+00
        -11   -1    0    0    0    0  0.00000000000E+00  0.00000000000E+00  0.45593999997E+02  0.45594000000E+02  0.51100000000E-03 0. -1.
         11   -1    0    0    0    0 -0.00000000000E+00 -0.00000000000E+00 -0.45593999997E+02  0.45594000000E+02  0.51100000000E-03 0.  1.
    9900012    2    1    2    0    0  0.40486254200E+02  0.15626320271E+02  0.55116971044E+00  0.47787280508E+02  0.20000043146E+02 0.  0.
         12    1    1    2    0    0 -0.40486254200E+02 -0.15626320271E+02 -0.55116971044E+00  0.43400719492E+02  0.00000000000E+00 0. -1.
         11    1    3    3    0    0  0.36633692240E+01  0.59382141113E+01  0.50150957177E+01  0.85926623477E+01  0.51100000000E-03 0. -1.
        -11    1    3    3    0    0  0.11889259586E+02 -0.42300158239E+00  0.14107303216E+00  0.11897618489E+02  0.51100000000E-03 0.  1.
        -12    1    3    3    0    0  0.24933625390E+02  0.10111107742E+02 -0.46049990394E+01  0.27296999671E+02  0.00000000000E+00 0.  1.
</event>
<event>
 7    1  0.1418970E-010  0.4778727E+02  0.7816164E-02  0.1312668E+00
        -11   -1    0    0    0    0  0.00000000000E+00  0.00000000000E+00  0.45593999997E+02  0.45594000000E+02  0.51100000000E-03 0.  1.
         11   -1    0    0    0    0 -0.00000000000E+00 -0.00000000000E+00 -0.45593999997E+02  0.45594000000E+02  0.51100000000E-03 0. -1.
    9900012    2    1    2    0    0  0.24681967570E+01 -0.68558521576E+01  0.42784677373E+02  0.47787270491E+02  0.19999997476E+02 0.  0.
         12    1    1    2    0    0 -0.24681967570E+01  0.68558521576E+01 -0.42784677373E+02  0.43400729509E+02  0.00000000000E+00 0. -1.
         11    1    3    3    0    0  0.29644177229E+01 -0.32374286367E+01  0.92988887513E+01  0.10282900801E+02  0.51100000000E-03 0. -1.
        -11    1    3    3    0    0  0.77340517407E+01 -0.38780053817E+01  0.16748093973E+02  0.18850812557E+02  0.51100000000E-03 0.  1.
        -12    1    3    3    0    0 -0.82302727066E+01  0.25958186086E+00  0.16737694648E+02  0.18653557133E+02  0.00000000000E+00 0.  1.
</event>
<event>
 7    1  0.1418970E-010  0.4778729E+02  0.7816164E-02  0.1312668E+00
        -11   -1    0    0    0    0  0.00000000000E+00  0.00000000000E+00  0.45593999997E+02  0.45594000000E+02  0.51100000000E-03 0. -1.
         11   -1    0    0    0    0 -0.00000000000E+00 -0.00000000000E+00 -0.45593999997E+02  0.45594000000E+02  0.51100000000E-03 0.  1.
    9900012    2    1    2    0    0  0.89315745659E+01 -0.34290534856E+02 -0.25060089493E+02  0.47787286984E+02  0.20000072673E+02 0.  0.
         12    1    1    2    0    0 -0.89315745659E+01  0.34290534856E+02  0.25060089493E+02  0.43400713016E+02  0.00000000000E+00 0. -1.
         11    1    3    3    0    0  0.12226361286E+01 -0.20669768843E+02 -0.61412116740E+01  0.21597422629E+02  0.51100000000E-03 0. -1.
        -11    1    3    3    0    0  0.59856185174E+01 -0.24347026808E+01 -0.45701971798E+01  0.79146767908E+01  0.51100000000E-03 0.  1.
        -12    1    3    3    0    0  0.17233199200E+01 -0.11186063333E+02 -0.14348680639E+02  0.18275187564E+02  0.00000000000E+00 0.  1.
</event>
<event>
 7    1  0.1418970E-010  0.4778726E+02  0.7816164E-02  0.1312668E+00
        -11   -1    0    0    0    0  0.00000000000E+00  0.00000000000E+00  0.45593999997E+02  0.45594000000E+02  0.51100000000E-03 0.  1.
         11   -1    0    0    0    0 -0.00000000000E+00 -0.00000000000E+00 -0.45593999997E+02  0.45594000000E+02  0.51100000000E-03 0. -1.
    9900012    2    1    2    0    0  0.20854154657E+01 -0.43185342077E+02  0.37817239555E+01  0.47787260789E+02  0.19999953243E+02 0.  0.
         12    1    1    2    0    0 -0.20854154657E+01  0.43185342077E+02 -0.37817239555E+01  0.43400739211E+02  0.00000000000E+00 0. -1.
         11    1    3    3    0    0 -0.22346635092E+01 -0.33533069298E+01  0.47494974556E+01  0.62286527200E+01  0.51100000000E-03 0. -1.
        -11    1    3    3    0    0  0.74026868164E+01 -0.27207371441E+02  0.18643058422E+01  0.28258033714E+02  0.51100000000E-03 0.  1.
         12    1    3    3    0    0 -0.30826078415E+01 -0.12624663706E+02 -0.28320793423E+01  0.13300574356E+02  0.00000000000E+00 0. -1.
</event>
<event>
 7    1  0.1418970E-010  0.4778727E+02  0.7816164E-02  0.1312668E+00
        -11   -1    0    0    0    0  0.00000000000E+00  0.00000000000E+00  0.45593999997E+02  0.45594000000E+02  0.51100000000E-03 0.  1.
         11   -1    0    0    0    0 -0.00000000000E+00 -0.00000000000E+00 -0.45593999997E+02  0.45594000000E+02  0.51100000000E-03 0. -1.
    9900012    2    1    2    0    0 -0.27303551501E+02 -0.16369174526E+02  0.29498976151E+02  0.47787269670E+02  0.19999993734E+02 0.  0.
         12    1    1    2    0    0  0.27303551501E+02  0.16369174526E+02 -0.29498976151E+02  0.43400730330E+02  0.00000000000E+00 0. -1.
         11    1    3    3    0    0 -0.81018772851E+01 -0.13711276859E+01  0.17871185256E+01  0.84091735361E+01  0.51100000000E-03 0. -1.
        -11    1    3    3    0    0 -0.12650997445E+02 -0.14310626481E+01  0.14924548954E+02  0.19617284175E+02  0.51100000000E-03 0.  1.
         12    1    3    3    0    0 -0.65506767704E+01 -0.13566984192E+02  0.12787308671E+02  0.19760811959E+02  0.00000000000E+00 0. -1.
</event>
<event>
 7    1  0.1418970E-010  0.4778727E+02  0.7816164E-02  0.1312668E+00
        -11   -1    0    0    0    0  0.00000000000E+00  0.00000000000E+00  0.45593999997E+02  0.45594000000E+02  0.51100000000E-03 0.  1.
         11   -1    0    0    0    0 -0.00000000000E+00 -0.00000000000E+00 -0.45593999997E+02  0.45594000000E+02  0.51100000000E-03 0. -1.
    9900012    2    1    2    0    0  0.15488185899E+02 -0.13505739033E+02  0.38227400797E+02  0.47787273497E+02  0.20000011183E+02 0.  0.
         12    1    1    2    0    0 -0.15488185899E+02  0.13505739033E+02 -0.38227400797E+02  0.43400726503E+02  0.00000000000E+00 0. -1.
         11    1    3    3    0    0  0.20973638288E+01 -0.13286591753E+02  0.12203646779E+02  0.18162088273E+02  0.51100000000E-03 0. -1.
        -11    1    3    3    0    0  0.55986640035E+01 -0.15679548634E+01  0.14748859584E+02  0.15853465879E+02  0.51100000000E-03 0.  1.
         12    1    3    3    0    0  0.77921580671E+01  0.13488075843E+01  0.11274894434E+02  0.13771719346E+02  0.00000000000E+00 0. -1.
</event>
<event>
 7    1  0.1418970E-010  0.4778727E+02  0.7816164E-02  0.1312668E+00
        -11   -1    0    0    0    0  0.00000000000E+00  0.00000000000E+00  0.45593999997E+02  0.45594000000E+02  0.51100000000E-03 0. -1.
         11   -1    0    0    0    0 -0.00000000000E+00 -0.00000000000E+00 -0.45593999997E+02  0.45594000000E+02  0.51100000000E-03 0.  1.
    9900012    2    1    2    0    0  0.15877039315E+02  0.23408994642E+02 -0.32917506044E+02  0.47787267153E+02  0.19999982255E+02 0.  0.
         12    1    1    2    0    0 -0.15877039315E+02 -0.23408994642E+02  0.32917506044E+02  0.43400732847E+02  0.00000000000E+00 0. -1.
         11    1    3    3    0    0 -0.17733232871E+01  0.79551755248E+01 -0.71415288185E+01  0.10836555137E+02  0.51100000000E-03 0. -1.
        -11    1    3    3    0    0  0.15094013714E+02  0.17564514209E+02 -0.22422310810E+02  0.32235096273E+02  0.51100000000E-03 0.  1.
         12    1    3    3    0    0  0.25563488877E+01 -0.21106950920E+01 -0.33536664150E+01  0.47156157424E+01  0.00000000000E+00 0. -1.
</event>
<event>
 7    1  0.1418970E-010  0.4778727E+02  0.7816164E-02  0.1312668E+00
        -11   -1    0    0    0    0  0.00000000000E+00  0.00000000000E+00  0.45593999997E+02  0.45594000000E+02  0.51100000000E-03 0. -1.
         11   -1    0    0    0    0 -0.00000000000E+00 -0.00000000000E+00 -0.45593999997E+02  0.45594000000E+02  0.51100000000E-03 0.  1.
    9900012    2    1    2    0    0  0.18417054749E+02  0.29737376075E+02 -0.25692874923E+02  0.47787271166E+02  0.20000000555E+02 0.  0.
         12    1    1    2    0    0 -0.18417054749E+02 -0.29737376075E+02  0.25692874923E+02  0.43400728834E+02  0.00000000000E+00 0. -1.
         11    1    3    3    0    0 -0.19325208950E+01  0.12696950883E+02 -0.45030453196E+01  0.13609725058E+02  0.51100000000E-03 0. -1.
        -11    1    3    3    0    0  0.41576526760E+01  0.17428865869E+01 -0.42124826443E+01  0.61699870112E+01  0.51100000000E-03 0.  1.
         12    1    3    3    0    0  0.16191922968E+02  0.15297538605E+02 -0.16977346960E+02  0.28007559097E+02  0.00000000000E+00 0. -1.
</event>
<event>
 7    1  0.1418970E-010  0.4778727E+02  0.7816164E-02  0.1312668E+00
        -11   -1    0    0    0    0  0.00000000000E+00  0.00000000000E+00  0.45593999997E+02  0.45594000000E+02  0.51100000000E-03 0. -1.
         11   -1    0    0    0    0 -0.00000000000E+00 -0.00000000000E+00 -0.45593999997E+02  0.45594000000E+02  0.51100000000E-03 0.  1.
    9900012    2    1    2    0    0  0.81789633361E+01  0.24145418897E+01 -0.42554648710E+02  0.47787267511E+02  0.19999983888E+02 0.  0.
         12    1    1    2    0    0 -0.81789633361E+01 -0.24145418897E+01  0.42554648710E+02  0.43400732489E+02  0.00000000000E+00 0. -1.
         11    1    3    3    0    0  0.84205980265E+01  0.25827394717E+01 -0.15811921305E+02  0.18099554412E+02  0.51100000000E-03 0. -1.
        -11    1    3    3    0    0 -0.47590897501E+01  0.38187923993E+01 -0.84110536272E+01  0.10391243141E+02  0.51100000000E-03 0.  1.
         12    1    3    3    0    0  0.45174550597E+01 -0.39869899813E+01 -0.18331673778E+02  0.19296469957E+02  0.00000000000E+00 0. -1.
</event>
<event>
 7    1  0.1418970E-010  0.4778727E+02  0.7816164E-02  0.1312668E+00
        -11   -1    0    0    0    0  0.00000000000E+00  0.00000000000E+00  0.45593999997E+02  0.45594000000E+02  0.51100000000E-03 0. -1.
         11   -1    0    0    0    0 -0.00000000000E+00 -0.00000000000E+00 -0.45593999997E+02  0.45594000000E+02  0.51100000000E-03 0.  1.
    9900012    2    1    2    0    0  0.39043826268E+02  0.12742789553E+02 -0.14029401572E+02  0.47787272314E+02  0.20000005787E+02 0.  0.
         12    1    1    2    0    0 -0.39043826268E+02 -0.12742789553E+02  0.14029401572E+02  0.43400727686E+02  0.00000000000E+00 0. -1.
         11    1    3    3    0    0  0.48901002664E+01 -0.16981069847E+01 -0.76560007865E+01  0.92418069797E+01  0.51100000000E-03 0. -1.
        -11    1    3    3    0    0  0.11326852262E+02  0.90181133754E+01 -0.36057362688E+01  0.14920632873E+02  0.51100000000E-03 0.  1.
        -12    1    3    3    0    0  0.22826873740E+02  0.54227831626E+01 -0.27676645164E+01  0.23624832461E+02  0.00000000000E+00 0.  1.
</event>
<event>
 7    1  0.1418970E-010  0.4778727E+02  0.7816164E-02  0.1312668E+00
        -11   -1    0    0    0    0  0.00000000000E+00  0.00000000000E+00  0.45593999997E+02  0.45594000000E+02  0.51100000000E-03 0.  1.
         11   -1    0    0    0    0 -0.00000000000E+00 -0.00000000000E+00 -0.45593999997E+02  0.45594000000E+02  0.51100000000E-03 0. -1.
    9900012    2    1    2    0    0 -0.34440713537E+02 -0.22421851945E+01  0.26314124963E+02  0.47787270559E+02  0.19999997788E+02 0.  0.
         12    1    1    2    0    0  0.34440713537E+02  0.22421851945E+01 -0.26314124963E+02  0.43400729441E+02  0.00000000000E+00 0. -1.
         11    1    3    3    0    0 -0.10448671573E+02 -0.19616752620E+01  0.87756058029E+01  0.13785287989E+02  0.51100000000E-03 0. -1.
        -11    1    3    3    0    0 -0.15032031772E+02 -0.51467366094E+01  0.17725244556E+02  0.23804099894E+02  0.51100000000E-03 0.  1.
         12    1    3    3    0    0 -0.89600101922E+01  0.48662266769E+01 -0.18672539515E+00  0.10197882677E+02  0.00000000000E+00 0. -1.
</event>
<event>
 7    1  0.1418970E-010  0.4778727E+02  0.7816164E-02  0.1312668E+00
        -11   -1    0    0    0    0  0.00000000000E+00  0.00000000000E+00  0.45593999997E+02  0.45594000000E+02  0.51100000000E-03 0. -1.
         11   -1    0    0    0    0 -0.00000000000E+00 -0.00000000000E+00 -0.45593999997E+02  0.45594000000E+02  0.51100000000E-03 0.  1.
    9900012    2    1    2    0    0 -0.46836399083E+00 -0.33603696096E+02 -0.27462620742E+02  0.47787270811E+02  0.19999998935E+02 0.  0.
         12    1    1    2    0    0  0.46836399083E+00  0.33603696096E+02  0.27462620742E+02  0.43400729189E+02  0.00000000000E+00 0. -1.
         11    1    3    3    0    0  0.94776339844E+00 -0.21184642857E+02 -0.11751965672E+02  0.24244505478E+02  0.51100000000E-03 0.  1.
        -11    1    3    3    0    0  0.25977705008E+01 -0.40833857654E-01  0.61069716386E+00  0.26689005724E+01  0.51100000000E-03 0. -1.
        -12    1    3    3    0    0 -0.40138978900E+01 -0.12378219382E+02 -0.16321352233E+02  0.20873864761E+02  0.00000000000E+00 0.  1.
</event>
<event>
 7    1  0.1418970E-010  0.4778728E+02  0.7816164E-02  0.1312668E+00
        -11   -1    0    0    0    0  0.00000000000E+00  0.00000000000E+00  0.45593999997E+02  0.45594000000E+02  0.51100000000E-03 0.  1.
         11   -1    0    0    0    0 -0.00000000000E+00 -0.00000000000E+00 -0.45593999997E+02  0.45594000000E+02  0.51100000000E-03 0. -1.
    9900012    2    1    2    0    0 -0.83273439622E+01 -0.66220474331E+01  0.42076437514E+02  0.47787276924E+02  0.20000026806E+02 0.  0.
         12    1    1    2    0    0  0.83273439622E+01  0.66220474331E+01 -0.42076437514E+02  0.43400723076E+02  0.00000000000E+00 0. -1.
         11    1    3    3    0    0 -0.14719023296E+01  0.19165554281E+01  0.14586273866E+02  0.14785096101E+02  0.51100000000E-03 0. -1.
        -11    1    3    3    0    0 -0.45733040377E+01  0.28791459080E+01  0.38035304778E+01  0.66084366788E+01  0.51100000000E-03 0.  1.
        -12    1    3    3    0    0 -0.22821375949E+01 -0.11417748769E+02  0.23686633170E+02  0.26393744143E+02  0.00000000000E+00 0.  1.
</event>
<event>
 7    1  0.1418970E-010  0.4778727E+02  0.7816164E-02  0.1312668E+00
        -11   -1    0    0    0    0  0.00000000000E+00  0.00000000000E+00  0.45593999997E+02  0.45594000000E+02  0.51100000000E-03 0.  1.
         11   -1    0    0    0    0 -0.00000000000E+00 -0.00000000000E+00 -0.45593999997E+02  0.45594000000E+02  0.51100000000E-03 0. -1.
    9900012    2    1    2    0    0  0.75916410261E+01  0.88448207689E+01  0.41806213691E+02  0.47787269924E+02  0.19999994893E+02 0.  0.
         12    1    1    2    0    0 -0.75916410261E+01 -0.88448207689E+01 -0.41806213691E+02  0.43400730076E+02  0.00000000000E+00 0. -1.
         11    1    3    3    0    0  0.32135983725E+01  0.71238765500E+01  0.71869113829E+01  0.10617369123E+02  0.51100000000E-03 0. -1.
        -11    1    3    3    0    0  0.14583867559E+01 -0.38965081833E+01  0.35714047188E+01  0.54831195390E+01  0.51100000000E-03 0.  1.
        -12    1    3    3    0    0  0.29196558977E+01  0.56174524022E+01  0.31047897590E+02  0.31686781263E+02  0.00000000000E+00 0.  1.
</event>
<event>
 7    1  0.1418970E-010  0.4778728E+02  0.7816164E-02  0.1312668E+00
        -11   -1    0    0    0    0  0.00000000000E+00  0.00000000000E+00  0.45593999997E+02  0.45594000000E+02  0.51100000000E-03 0.  1.
         11   -1    0    0    0    0 -0.00000000000E+00 -0.00000000000E+00 -0.45593999997E+02  0.45594000000E+02  0.51100000000E-03 0. -1.
    9900012    2    1    2    0    0  0.97937325966E+01 -0.23134192519E+02  0.35390885043E+02  0.47787276437E+02  0.20000024587E+02 0.  0.
         12    1    1    2    0    0 -0.97937325966E+01  0.23134192519E+02 -0.35390885043E+02  0.43400723563E+02  0.00000000000E+00 0. -1.
         11    1    3    3    0    0  0.26632766664E+01 -0.76064436907E+00  0.82458632480E+00  0.28899074944E+01  0.51100000000E-03 0. -1.
        -11    1    3    3    0    0 -0.37565441128E+01 -0.12963260544E+02  0.21909595072E+02  0.25733015837E+02  0.51100000000E-03 0.  1.
        -12    1    3    3    0    0  0.10887000043E+02 -0.94102876067E+01  0.12656703646E+02  0.19164353106E+02  0.00000000000E+00 0.  1.
</event>
<event>
 7    1  0.1418970E-010  0.4778727E+02  0.7816164E-02  0.1312668E+00
        -11   -1    0    0    0    0  0.00000000000E+00  0.00000000000E+00  0.45593999997E+02  0.45594000000E+02  0.51100000000E-03 0.  1.
         11   -1    0    0    0    0 -0.00000000000E+00 -0.00000000000E+00 -0.45593999997E+02  0.45594000000E+02  0.51100000000E-03 0. -1.
    9900012    2    1    2    0    0  0.41246620274E+02  0.86568696219E+01  0.10363298497E+02  0.47787273837E+02  0.20000012734E+02 0.  0.
         12    1    1    2    0    0 -0.41246620274E+02 -0.86568696219E+01 -0.10363298497E+02  0.43400726163E+02  0.00000000000E+00 0. -1.
         11    1    3    3    0    0  0.11833705934E+02 -0.25389376003E+01  0.97108814204E+01  0.15517216841E+02  0.51100000000E-03 0. -1.
        -11    1    3    3    0    0  0.45762250146E+01  0.41266481293E+01 -0.15474305354E+01  0.63533929274E+01  0.51100000000E-03 0.  1.
        -12    1    3    3    0    0  0.24836689325E+02  0.70691590929E+01  0.21998476121E+01  0.25916664069E+02  0.00000000000E+00 0.  1.
</event>
<event>
 7    1  0.1418970E-010  0.4778727E+02  0.7816164E-02  0.1312668E+00
        -11   -1    0    0    0    0  0.00000000000E+00  0.00000000000E+00  0.45593999997E+02  0.45594000000E+02  0.51100000000E-03 0.  1.
         11   -1    0    0    0    0 -0.00000000000E+00 -0.00000000000E+00 -0.45593999997E+02  0.45594000000E+02  0.51100000000E-03 0. -1.
    9900012    2    1    2    0    0 -0.66228903771E+01 -0.41115354610E+02  0.12218375937E+02  0.47787265303E+02  0.19999973824E+02 0.  0.
         12    1    1    2    0    0  0.66228903771E+01  0.41115354610E+02 -0.12218375937E+02  0.43400734697E+02  0.00000000000E+00 0. -1.
         11    1    3    3    0    0 -0.16983814844E+01 -0.28083190194E+02  0.62419460940E+01  0.28818604450E+02  0.51100000000E-03 0. -1.
        -11    1    3    3    0    0 -0.44645820203E+01 -0.15085488705E+02  0.60692971797E+01  0.16862408802E+02  0.51100000000E-03 0.  1.
        -12    1    3    3    0    0 -0.45992687240E+00  0.20533242887E+01 -0.92867336872E-01  0.21062520516E+01  0.00000000000E+00 0.  1.
</event>
<event>
 7    1  0.1418970E-010  0.4778730E+02  0.7816164E-02  0.1312668E+00
        -11   -1    0    0    0    0  0.00000000000E+00  0.00000000000E+00  0.45593999997E+02  0.45594000000E+02  0.51100000000E-03 0. -1.
         11   -1    0    0    0    0 -0.00000000000E+00 -0.00000000000E+00 -0.45593999997E+02  0.45594000000E+02  0.51100000000E-03 0.  1.
    9900012    2    1    2    0    0  0.40643598976E+02  0.13800736099E+02 -0.64232469455E+01  0.47787302357E+02  0.20000142765E+02 0.  0.
         12    1    1    2    0    0 -0.40643598976E+02 -0.13800736099E+02  0.64232469455E+01  0.43400697643E+02  0.00000000000E+00 0. -1.
         11    1    3    3    0    0  0.37032133910E+02  0.59168290682E+01 -0.14809534118E+01  0.37531067549E+02  0.51100000000E-03 0. -1.
        -11    1    3    3    0    0  0.21050515318E+01  0.25070871488E+01 -0.26829511759E+01  0.42326061943E+01  0.51100000000E-03 0.  1.
         12    1    3    3    0    0  0.15064135345E+01  0.53768198820E+01 -0.22593423578E+01  0.60236286133E+01  0.00000000000E+00 0. -1.
</event>
<event>
 7    1  0.1418970E-010  0.4778727E+02  0.7816164E-02  0.1312668E+00
        -11   -1    0    0    0    0  0.00000000000E+00  0.00000000000E+00  0.45593999997E+02  0.45594000000E+02  0.51100000000E-03 0.  1.
         11   -1    0    0    0    0 -0.00000000000E+00 -0.00000000000E+00 -0.45593999997E+02  0.45594000000E+02  0.51100000000E-03 0. -1.
    9900012    2    1    2    0    0 -0.31092918866E+02  0.18554568839E+02  0.23928682105E+02  0.47787268950E+02  0.19999990449E+02 0.  0.
         12    1    1    2    0    0  0.31092918866E+02 -0.18554568839E+02 -0.23928682105E+02  0.43400731050E+02  0.00000000000E+00 0. -1.
         11    1    3    3    0    0 -0.13255740864E+02  0.92126793881E+01  0.45310324463E+01  0.16766585301E+02  0.51100000000E-03 0.  1.
        -11    1    3    3    0    0 -0.64200034188E+01 -0.28457065192E+01  0.87317560548E+01  0.11205269009E+02  0.51100000000E-03 0. -1.
         12    1    3    3    0    0 -0.11417174584E+02  0.12187595970E+02  0.10665893604E+02  0.19815414640E+02  0.00000000000E+00 0. -1.
</event>
