<event>
 7    1  0.2642243E-009  0.4778727E+02  0.7816164E-02  0.1312668E+00
        -11   -1    0    0    0    0  0.00000000000E+00  0.00000000000E+00  0.45593999997E+02  0.45594000000E+02  0.51100000000E-03 0.  1.
         11   -1    0    0    0    0 -0.00000000000E+00 -0.00000000000E+00 -0.45593999997E+02  0.45594000000E+02  0.51100000000E-03 0. -1.
    9900012    2    1    2    0    0 -0.39389113259E+02  0.11608561596E+02 -0.14048565635E+02  0.47787272563E+02  0.20000006922E+02 0.  0.
        -12    1    1    2    0    0  0.39389113259E+02 -0.11608561596E+02  0.14048565635E+02  0.43400727437E+02  0.00000000000E+00 0.  1.
         11    1    3    3    0    0 -0.12583975090E+02  0.95247498837E+01 -0.75027148422E+01  0.17474782393E+02  0.51100000000E-03 0. -1.
        -11    1    3    3    0    0 -0.14424516286E+02 -0.48963319295E+01 -0.49165355122E+01  0.16006656683E+02  0.51100000000E-03 0.  1.
        -12    1    3    3    0    0 -0.12380621883E+02  0.69801436419E+01 -0.16293152803E+01  0.14305833487E+02  0.00000000000E+00 0.  1.
</event>
<event>
 7    1  0.2642243E-009  0.4778727E+02  0.7816164E-02  0.1312668E+00
        -11   -1    0    0    0    0  0.00000000000E+00  0.00000000000E+00  0.45593999997E+02  0.45594000000E+02  0.51100000000E-03 0.  1.
         11   -1    0    0    0    0 -0.00000000000E+00 -0.00000000000E+00 -0.45593999997E+02  0.45594000000E+02  0.51100000000E-03 0. -1.
    9900012    2    1    2    0    0 -0.86285976082E+01  0.70765074604E+01 -0.41941552761E+02  0.47787268410E+02  0.19999987988E+02 0.  0.
        -12    1    1    2    0    0  0.86285976082E+01 -0.70765074604E+01  0.41941552761E+02  0.43400731590E+02  0.00000000000E+00 0.  1.
         11    1    3    3    0    0 -0.74989250688E+01  0.33317849602E+01 -0.71361167078E+01  0.10874687588E+02  0.51100000000E-03 0. -1.
        -11    1    3    3    0    0  0.32347572710E+00 -0.41292286075E+01 -0.14671986318E+02  0.15245404167E+02  0.51100000000E-03 0.  1.
        -12    1    3    3    0    0 -0.14531482665E+01  0.78739511077E+01 -0.20133449736E+02  0.21667176655E+02  0.00000000000E+00 0.  1.
</event>
<event>
 7    1  0.2642243E-009  0.4778727E+02  0.7816164E-02  0.1312668E+00
        -11   -1    0    0    0    0  0.00000000000E+00  0.00000000000E+00  0.45593999997E+02  0.45594000000E+02  0.51100000000E-03 0.  1.
         11   -1    0    0    0    0 -0.00000000000E+00 -0.00000000000E+00 -0.45593999997E+02  0.45594000000E+02  0.51100000000E-03 0. -1.
    9900012    2    1    2    0    0  0.15431885848E+02  0.39573390336E+02 -0.89122043181E+01  0.47787266028E+02  0.19999977127E+02 0.  0.
        -12    1    1    2    0    0 -0.15431885848E+02 -0.39573390336E+02  0.89122043181E+01  0.43400733972E+02  0.00000000000E+00 0.  1.
         11    1    3    3    0    0  0.15054664234E+02  0.28732449010E+02 -0.63994075230E+01  0.33062803241E+02  0.51100000000E-03 0. -1.
        -11    1    3    3    0    0 -0.18937737048E+01  0.47921312537E+01  0.32288755299E+01  0.60808336802E+01  0.51100000000E-03 0.  1.
         12    1    3    3    0    0  0.22709953198E+01  0.60488100727E+01 -0.57416723250E+01  0.86436291062E+01  0.00000000000E+00 0. -1.
</event>
<event>
 7    1 -0.2642243E-009  0.4778727E+02  0.7816164E-02  0.1312668E+00
        -11   -1    0    0    0    0  0.00000000000E+00  0.00000000000E+00  0.45593999997E+02  0.45594000000E+02  0.51100000000E-03 0.  1.
         11   -1    0    0    0    0 -0.00000000000E+00 -0.00000000000E+00 -0.45593999997E+02  0.45594000000E+02  0.51100000000E-03 0. -1.
    9900012    2    1    2    0    0  0.11645417427E+01  0.82994262714E+01 -0.42583876405E+02  0.47787272316E+02  0.20000005795E+02 0.  0.
        -12    1    1    2    0    0 -0.11645417427E+01 -0.82994262714E+01  0.42583876405E+02  0.43400727684E+02  0.00000000000E+00 0.  1.
         11    1    3    3    0    0  0.25708241626E+01  0.39263157871E+01 -0.16785202162E+02  0.17428944443E+02  0.51100000000E-03 0. -1.
        -11    1    3    3    0    0  0.47273589849E+01 -0.28341912294E+01 -0.47357224055E+01  0.72668858433E+01  0.51100000000E-03 0.  1.
        -12    1    3    3    0    0 -0.61336414048E+01  0.72073017136E+01 -0.21062951837E+02  0.23091442029E+02  0.00000000000E+00 0.  1.
</event>
<event>
 7    1  0.2642243E-009  0.4778728E+02  0.7816164E-02  0.1312668E+00
        -11   -1    0    0    0    0  0.00000000000E+00  0.00000000000E+00  0.45593999997E+02  0.45594000000E+02  0.51100000000E-03 0. -1.
         11   -1    0    0    0    0 -0.00000000000E+00 -0.00000000000E+00 -0.45593999997E+02  0.45594000000E+02  0.51100000000E-03 0.  1.
    9900012    2    1    2    0    0  0.12254638287E+02 -0.16754221032E+02  0.38114859064E+02  0.47787279229E+02  0.20000037319E+02 0.  0.
        -12    1    1    2    0    0 -0.12254638287E+02  0.16754221032E+02 -0.38114859064E+02  0.43400720771E+02  0.00000000000E+00 0.  1.
         11    1    3    3    0    0 -0.47811287977E+01 -0.21809970740E+01  0.59450106781E+01  0.79346766186E+01  0.51100000000E-03 0. -1.
        -11    1    3    3    0    0  0.12277747283E+02 -0.12472530399E+02  0.19756565696E+02  0.26393729961E+02  0.51100000000E-03 0.  1.
         12    1    3    3    0    0  0.47580198016E+01 -0.21006935589E+01  0.12413282690E+02  0.13458872650E+02  0.00000000000E+00 0. -1.
</event>
<event>
 7    1  0.2642243E-009  0.4778727E+02  0.7816164E-02  0.1312668E+00
        -11   -1    0    0    0    0  0.00000000000E+00  0.00000000000E+00  0.45593999997E+02  0.45594000000E+02  0.51100000000E-03 0.  1.
         11   -1    0    0    0    0 -0.00000000000E+00 -0.00000000000E+00 -0.45593999997E+02  0.45594000000E+02  0.51100000000E-03 0. -1.
    9900012    2    1    2    0    0  0.67263312623E+01 -0.33002456550E+02 -0.27371837805E+02  0.47787272179E+02  0.20000005171E+02 0.  0.
        -12    1    1    2    0    0 -0.67263312623E+01  0.33002456550E+02  0.27371837805E+02  0.43400727821E+02  0.00000000000E+00 0.  1.
         11    1    3    3    0    0  0.28577440971E+01 -0.16467825027E+02 -0.11954548684E+02  0.20549141027E+02  0.51100000000E-03 0. -1.
        -11    1    3    3    0    0  0.95580916453E+00  0.45985287297E-01  0.24856129056E+01  0.26634484382E+01  0.51100000000E-03 0.  1.
        -12    1    3    3    0    0  0.29127780006E+01 -0.16580616811E+02 -0.17902902026E+02  0.24574682714E+02  0.00000000000E+00 0.  1.
</event>
<event>
 7    1  0.2642243E-009  0.4778727E+02  0.7816164E-02  0.1312668E+00
        -11   -1    0    0    0    0  0.00000000000E+00  0.00000000000E+00  0.45593999997E+02  0.45594000000E+02  0.51100000000E-03 0.  1.
         11   -1    0    0    0    0 -0.00000000000E+00 -0.00000000000E+00 -0.45593999997E+02  0.45594000000E+02  0.51100000000E-03 0. -1.
    9900012    2    1    2    0    0  0.28559627013E+02 -0.32676937580E+02  0.43439354695E+00  0.47787271406E+02  0.20000001649E+02 0.  0.
        -12    1    1    2    0    0 -0.28559627013E+02  0.32676937580E+02 -0.43439354695E+00  0.43400728594E+02  0.00000000000E+00 0.  1.
         11    1    3    3    0    0  0.59507086287E+01 -0.60206873851E+01 -0.50494359870E+01  0.98567953119E+01  0.51100000000E-03 0. -1.
        -11    1    3    3    0    0  0.21689387770E+02 -0.28066149657E+02  0.40155406250E+01  0.35696818698E+02  0.51100000000E-03 0.  1.
        -12    1    3    3    0    0  0.91953061486E+00  0.14098994620E+01  0.14682889090E+01  0.22336573965E+01  0.00000000000E+00 0.  1.
</event>
<event>
 7    1  0.2642243E-009  0.4778728E+02  0.7816164E-02  0.1312668E+00
        -11   -1    0    0    0    0  0.00000000000E+00  0.00000000000E+00  0.45593999997E+02  0.45594000000E+02  0.51100000000E-03 0.  1.
         11   -1    0    0    0    0 -0.00000000000E+00 -0.00000000000E+00 -0.45593999997E+02  0.45594000000E+02  0.51100000000E-03 0. -1.
    9900012    2    1    2    0    0  0.25720572727E+02 -0.23419675914E+02  0.25953671647E+02  0.47787283954E+02  0.20000058862E+02 0.  0.
        -12    1    1    2    0    0 -0.25720572727E+02  0.23419675914E+02 -0.25953671647E+02  0.43400716046E+02  0.00000000000E+00 0.  1.
         11    1    3    3    0    0  0.10898301591E+02 -0.77936780461E+01  0.10051998995E+02  0.16749838182E+02  0.51100000000E-03 0. -1.
        -11    1    3    3    0    0  0.17547034291E+02 -0.13422968333E+02  0.16378156967E+02  0.27501245738E+02  0.51100000000E-03 0.  1.
        -12    1    3    3    0    0 -0.27247631548E+01 -0.22030295350E+01 -0.47648431488E+00  0.35362000345E+01  0.00000000000E+00 0.  1.
</event>
<event>
 7    1  0.2642243E-009  0.4778727E+02  0.7816164E-02  0.1312668E+00
        -11   -1    0    0    0    0  0.00000000000E+00  0.00000000000E+00  0.45593999997E+02  0.45594000000E+02  0.51100000000E-03 0.  1.
         11   -1    0    0    0    0 -0.00000000000E+00 -0.00000000000E+00 -0.45593999997E+02  0.45594000000E+02  0.51100000000E-03 0. -1.
    9900012    2    1    2    0    0  0.16977706429E+02 -0.87615960471E+01 -0.38969411002E+02  0.47787273339E+02  0.20000010460E+02 0.  0.
        -12    1    1    2    0    0 -0.16977706429E+02  0.87615960471E+01  0.38969411002E+02  0.43400726661E+02  0.00000000000E+00 0.  1.
         11    1    3    3    0    0  0.81948851067E+01  0.13056027910E+01 -0.12393469544E+02  0.14915053743E+02  0.51100000000E-03 0. -1.
        -11    1    3    3    0    0  0.85200284554E+01 -0.12232310621E+02 -0.26813087140E+02  0.30678362900E+02  0.51100000000E-03 0.  1.
        -12    1    3    3    0    0  0.26279286674E+00  0.21651117832E+01  0.23714568148E+00  0.21938566951E+01  0.00000000000E+00 0.  1.
</event>
<event>
 7    1  0.2642243E-009  0.4778727E+02  0.7816164E-02  0.1312668E+00
        -11   -1    0    0    0    0  0.00000000000E+00  0.00000000000E+00  0.45593999997E+02  0.45594000000E+02  0.51100000000E-03 0. -1.
         11   -1    0    0    0    0 -0.00000000000E+00 -0.00000000000E+00 -0.45593999997E+02  0.45594000000E+02  0.51100000000E-03 0.  1.
    9900012    2    1    2    0    0 -0.30744636990E+01  0.23288371928E+02  0.36494146116E+02  0.47787270803E+02  0.19999998897E+02 0.  0.
        -12    1    1    2    0    0  0.30744636990E+01 -0.23288371928E+02 -0.36494146116E+02  0.43400729197E+02  0.00000000000E+00 0.  1.
         11    1    3    3    0    0 -0.16354317549E+01  0.16746770140E+02  0.28419716324E+02  0.33027401099E+02  0.51100000000E-03 0. -1.
        -11    1    3    3    0    0  0.34116433055E+01 -0.30327802265E+00  0.50826923492E+00  0.34626038583E+01  0.51100000000E-03 0.  1.
         12    1    3    3    0    0 -0.48506752496E+01  0.68448798105E+01  0.75661605579E+01  0.11297265846E+02  0.00000000000E+00 0. -1.
</event>
<event>
 7    1  0.2642243E-009  0.4778727E+02  0.7816164E-02  0.1312668E+00
        -11   -1    0    0    0    0  0.00000000000E+00  0.00000000000E+00  0.45593999997E+02  0.45594000000E+02  0.51100000000E-03 0.  1.
         11   -1    0    0    0    0 -0.00000000000E+00 -0.00000000000E+00 -0.45593999997E+02  0.45594000000E+02  0.51100000000E-03 0. -1.
    9900012    2    1    2    0    0 -0.19592869205E+02  0.34691969733E+02 -0.17210752170E+02  0.47787270998E+02  0.19999999789E+02 0.  0.
        -12    1    1    2    0    0  0.19592869205E+02 -0.34691969733E+02  0.17210752170E+02  0.43400729002E+02  0.00000000000E+00 0.  1.
         11    1    3    3    0    0 -0.68742797907E+01  0.13453425984E+01  0.18091130758E+01  0.72345393585E+01  0.51100000000E-03 0. -1.
        -11    1    3    3    0    0 -0.64810204416E+01  0.19993402290E+02 -0.10020328073E+02  0.23284044667E+02  0.51100000000E-03 0.  1.
         12    1    3    3    0    0 -0.62375689722E+01  0.13353224844E+02 -0.89995371726E+01  0.17268686972E+02  0.00000000000E+00 0. -1.
</event>
<event>
 7    1  0.2642243E-009  0.4778727E+02  0.7816164E-02  0.1312668E+00
        -11   -1    0    0    0    0  0.00000000000E+00  0.00000000000E+00  0.45593999997E+02  0.45594000000E+02  0.51100000000E-03 0.  1.
         11   -1    0    0    0    0 -0.00000000000E+00 -0.00000000000E+00 -0.45593999997E+02  0.45594000000E+02  0.51100000000E-03 0. -1.
    9900012    2    1    2    0    0  0.30383979485E+02  0.71768383624E+01 -0.30148462061E+02  0.47787274397E+02  0.20000015286E+02 0.  0.
        -12    1    1    2    0    0 -0.30383979485E+02 -0.71768383624E+01  0.30148462061E+02  0.43400725603E+02  0.00000000000E+00 0.  1.
         11    1    3    3    0    0  0.21537415734E+02  0.73532481201E+01 -0.26304298450E+02  0.34782849964E+02  0.51100000000E-03 0. -1.
        -11    1    3    3    0    0  0.62562757006E+01  0.19384318117E+01  0.14822471962E+01  0.67153228175E+01  0.51100000000E-03 0.  1.
         12    1    3    3    0    0  0.25902880503E+01 -0.21148415694E+01 -0.53264108064E+01  0.62891016152E+01  0.00000000000E+00 0. -1.
</event>
<event>
 7    1  0.2642243E-009  0.4778727E+02  0.7816164E-02  0.1312668E+00
        -11   -1    0    0    0    0  0.00000000000E+00  0.00000000000E+00  0.45593999997E+02  0.45594000000E+02  0.51100000000E-03 0. -1.
         11   -1    0    0    0    0 -0.00000000000E+00 -0.00000000000E+00 -0.45593999997E+02  0.45594000000E+02  0.51100000000E-03 0.  1.
    9900012    2    1    2    0    0 -0.23703528393E+02 -0.18951516394E+02  0.31025897291E+02  0.47787268041E+02  0.19999986304E+02 0.  0.
        -12    1    1    2    0    0  0.23703528393E+02  0.18951516394E+02 -0.31025897291E+02  0.43400731959E+02  0.00000000000E+00 0.  1.
         11    1    3    3    0    0 -0.53904171295E+01 -0.14129784537E+02  0.16709463643E+02  0.22536938199E+02  0.51100000000E-03 0. -1.
        -11    1    3    3    0    0 -0.29985225516E+01 -0.29114589675E+01  0.70413550859E+01  0.81883095031E+01  0.51100000000E-03 0.  1.
         12    1    3    3    0    0 -0.15314588712E+02 -0.19102728893E+01  0.72750785616E+01  0.17062020338E+02  0.00000000000E+00 0. -1.
</event>
<event>
 7    1  0.2642243E-009  0.4778727E+02  0.7816164E-02  0.1312668E+00
        -11   -1    0    0    0    0  0.00000000000E+00  0.00000000000E+00  0.45593999997E+02  0.45594000000E+02  0.51100000000E-03 0.  1.
         11   -1    0    0    0    0 -0.00000000000E+00 -0.00000000000E+00 -0.45593999997E+02  0.45594000000E+02  0.51100000000E-03 0. -1.
    9900012    2    1    2    0    0  0.13909512851E+02  0.24725720668E+01 -0.41036997570E+02  0.47787270398E+02  0.19999997054E+02 0.  0.
        -12    1    1    2    0    0 -0.13909512851E+02 -0.24725720668E+01  0.41036997570E+02  0.43400729602E+02  0.00000000000E+00 0.  1.
         11    1    3    3    0    0  0.64739490501E+01  0.65944899269E+00 -0.44204372082E+01  0.78668389236E+01  0.51100000000E-03 0. -1.
        -11    1    3    3    0    0  0.29424329146E+01 -0.25881667891E+01 -0.31689079200E+02  0.31930459746E+02  0.51100000000E-03 0.  1.
        -12    1    3    3    0    0  0.44931308868E+01  0.44012898632E+01 -0.49274811623E+01  0.79899717291E+01  0.00000000000E+00 0.  1.
</event>
<event>
 7    1  0.2642243E-009  0.4778729E+02  0.7816164E-02  0.1312668E+00
        -11   -1    0    0    0    0  0.00000000000E+00  0.00000000000E+00  0.45593999997E+02  0.45594000000E+02  0.51100000000E-03 0. -1.
         11   -1    0    0    0    0 -0.00000000000E+00 -0.00000000000E+00 -0.45593999997E+02  0.45594000000E+02  0.51100000000E-03 0.  1.
    9900012    2    1    2    0    0  0.21519737440E+02  0.72423713256E+01  0.36987443284E+02  0.47787285690E+02  0.20000066776E+02 0.  0.
        -12    1    1    2    0    0 -0.21519737440E+02 -0.72423713256E+01 -0.36987443284E+02  0.43400714310E+02  0.00000000000E+00 0.  1.
         11    1    3    3    0    0  0.11560804426E+02  0.16500646982E+01  0.23164434987E+02  0.25941587480E+02  0.51100000000E-03 0. -1.
        -11    1    3    3    0    0  0.11152380826E+01  0.38066956990E+01 -0.13523857325E+01  0.41908991345E+01  0.51100000000E-03 0.  1.
        -12    1    3    3    0    0  0.88436949321E+01  0.17856109285E+01  0.15175394030E+02  0.17654799075E+02  0.00000000000E+00 0.  1.
</event>
<event>
 7    1  0.2642243E-009  0.4778727E+02  0.7816164E-02  0.1312668E+00
        -11   -1    0    0    0    0  0.00000000000E+00  0.00000000000E+00  0.45593999997E+02  0.45594000000E+02  0.51100000000E-03 0.  1.
         11   -1    0    0    0    0 -0.00000000000E+00 -0.00000000000E+00 -0.45593999997E+02  0.45594000000E+02  0.51100000000E-03 0. -1.
    9900012    2    1    2    0    0  0.32350334800E+02  0.22209091272E+02 -0.18542800387E+02  0.47787270248E+02  0.19999996371E+02 0.  0.
        -12    1    1    2    0    0 -0.32350334800E+02 -0.22209091272E+02  0.18542800387E+02  0.43400729752E+02  0.00000000000E+00 0.  1.
         11    1    3    3    0    0  0.25479998670E+02  0.22354591989E+02 -0.15357593260E+02  0.37213086223E+02  0.51100000000E-03 0. -1.
        -11    1    3    3    0    0  0.70591594955E+01 -0.23108637578E+01 -0.37609315499E+01  0.83256489521E+01  0.51100000000E-03 0.  1.
         12    1    3    3    0    0 -0.18882336601E+00  0.21653630414E+01  0.57572442361E+00  0.22485350734E+01  0.00000000000E+00 0. -1.
</event>
<event>
 7    1  0.2642243E-009  0.4778727E+02  0.7816164E-02  0.1312668E+00
        -11   -1    0    0    0    0  0.00000000000E+00  0.00000000000E+00  0.45593999997E+02  0.45594000000E+02  0.51100000000E-03 0.  1.
         11   -1    0    0    0    0 -0.00000000000E+00 -0.00000000000E+00 -0.45593999997E+02  0.45594000000E+02  0.51100000000E-03 0. -1.
    9900012    2    1    2    0    0  0.33192993108E+02  0.21020191510E+02 -0.18439089399E+02  0.47787271199E+02  0.20000000705E+02 0.  0.
        -12    1    1    2    0    0 -0.33192993108E+02 -0.21020191510E+02  0.18439089399E+02  0.43400728801E+02  0.00000000000E+00 0.  1.
         11    1    3    3    0    0  0.10033785532E+02 -0.22287417815E+01 -0.43453015009E+01  0.11159112304E+02  0.51100000000E-03 0. -1.
        -11    1    3    3    0    0  0.20931929625E+02  0.22718152926E+02 -0.11025488999E+02  0.32799718873E+02  0.51100000000E-03 0.  1.
        -12    1    3    3    0    0  0.22272779513E+01  0.53078036508E+00 -0.30682988989E+01  0.38284400219E+01  0.00000000000E+00 0.  1.
</event>
<event>
 7    1  0.2642243E-009  0.4778727E+02  0.7816164E-02  0.1312668E+00
        -11   -1    0    0    0    0  0.00000000000E+00  0.00000000000E+00  0.45593999997E+02  0.45594000000E+02  0.51100000000E-03 0.  1.
         11   -1    0    0    0    0 -0.00000000000E+00 -0.00000000000E+00 -0.45593999997E+02  0.45594000000E+02  0.51100000000E-03 0. -1.
    9900012    2    1    2    0    0 -0.16866218761E+02  0.58512833340E+01 -0.39559025819E+02  0.47787269871E+02  0.19999994650E+02 0.  0.
        -12    1    1    2    0    0  0.16866218761E+02 -0.58512833340E+01  0.39559025819E+02  0.43400730129E+02  0.00000000000E+00 0.  1.
         11    1    3    3    0    0 -0.98283684536E+01 -0.28211612912E+01 -0.13487978352E+02  0.16925759593E+02  0.51100000000E-03 0. -1.
        -11    1    3    3    0    0 -0.38591014274E+01  0.94206042424E+01 -0.25615394147E+02  0.27564267915E+02  0.51100000000E-03 0.  1.
        -12    1    3    3    0    0 -0.31787488804E+01 -0.74815961717E+00 -0.45565331999E+00  0.32972423637E+01  0.00000000000E+00 0.  1.
</event>
<event>
 7    1  0.2642243E-009  0.4778728E+02  0.7816164E-02  0.1312668E+00
        -11   -1    0    0    0    0  0.00000000000E+00  0.00000000000E+00  0.45593999997E+02  0.45594000000E+02  0.51100000000E-03 0. -1.
         11   -1    0    0    0    0 -0.00000000000E+00 -0.00000000000E+00 -0.45593999997E+02  0.45594000000E+02  0.51100000000E-03 0.  1.
    9900012    2    1    2    0    0  0.31381761727E+02  0.81815697396E+01  0.28842154263E+02  0.47787275179E+02  0.20000018850E+02 0.  0.
        -12    1    1    2    0    0 -0.31381761727E+02 -0.81815697396E+01 -0.28842154263E+02  0.43400724821E+02  0.00000000000E+00 0.  1.
         11    1    3    3    0    0  0.17542667549E+02  0.68738034638E+01  0.20422937717E+02  0.27786520906E+02  0.51100000000E-03 0. -1.
        -11    1    3    3    0    0  0.27295226308E+01  0.48081976346E+01 -0.16489504968E+00  0.55313876129E+01  0.51100000000E-03 0.  1.
        -12    1    3    3    0    0  0.11109571547E+02 -0.35004313588E+01  0.85841115949E+01  0.14469366660E+02  0.00000000000E+00 0.  1.
</event>
<event>
 7    1  0.2642243E-009  0.4778727E+02  0.7816164E-02  0.1312668E+00
        -11   -1    0    0    0    0  0.00000000000E+00  0.00000000000E+00  0.45593999997E+02  0.45594000000E+02  0.51100000000E-03 0.  1.
         11   -1    0    0    0    0 -0.00000000000E+00 -0.00000000000E+00 -0.45593999997E+02  0.45594000000E+02  0.51100000000E-03 0. -1.
    9900012    2    1    2    0    0  0.39509656800E+02  0.15915480843E+02 -0.83251529382E+01  0.47787266338E+02  0.19999978542E+02 0.  0.
        -12    1    1    2    0    0 -0.39509656800E+02 -0.15915480843E+02  0.83251529382E+01  0.43400733662E+02  0.00000000000E+00 0.  1.
         11    1    3    3    0    0  0.54277653455E+01  0.17812488185E+01 -0.86689410677E+01  0.10381908471E+02  0.51100000000E-03 0. -1.
        -11    1    3    3    0    0  0.23402716358E+02  0.10184072086E+02  0.30433245186E+01  0.25703390468E+02  0.51100000000E-03 0.  1.
        -12    1    3    3    0    0  0.10679175097E+02  0.39501599384E+01 -0.26995363891E+01  0.11701967399E+02  0.00000000000E+00 0.  1.
</event>
<event>
 7    1  0.2642243E-009  0.4778727E+02  0.7816164E-02  0.1312668E+00
        -11   -1    0    0    0    0  0.00000000000E+00  0.00000000000E+00  0.45593999997E+02  0.45594000000E+02  0.51100000000E-03 0. -1.
         11   -1    0    0    0    0 -0.00000000000E+00 -0.00000000000E+00 -0.45593999997E+02  0.45594000000E+02  0.51100000000E-03 0.  1.
    9900012    2    1    2    0    0 -0.17694462193E+02  0.35134381676E+02 -0.18333144344E+02  0.47787274781E+02  0.20000017035E+02 0.  0.
        -12    1    1    2    0    0  0.17694462193E+02 -0.35134381676E+02  0.18333144344E+02  0.43400725219E+02  0.00000000000E+00 0.  1.
         11    1    3    3    0    0 -0.64764089290E+01  0.22708246875E+01 -0.36964222150E+01  0.77951301996E+01  0.51100000000E-03 0. -1.
        -11    1    3    3    0    0  0.19470350551E+01  0.12558486184E+02 -0.26301745837E+01  0.12977840319E+02  0.51100000000E-03 0.  1.
        -12    1    3    3    0    0 -0.13165088319E+02  0.20305070804E+02 -0.12006547546E+02  0.27014304262E+02  0.00000000000E+00 0.  1.
</event>
<event>
 7    1  0.2642243E-009  0.4778727E+02  0.7816164E-02  0.1312668E+00
        -11   -1    0    0    0    0  0.00000000000E+00  0.00000000000E+00  0.45593999997E+02  0.45594000000E+02  0.51100000000E-03 0.  1.
         11   -1    0    0    0    0 -0.00000000000E+00 -0.00000000000E+00 -0.45593999997E+02  0.45594000000E+02  0.51100000000E-03 0. -1.
    9900012    2    1    2    0    0  0.35211760541E+02  0.13870899230E+02 -0.21245079441E+02  0.47787270441E+02  0.19999997247E+02 0.  0.
        -12    1    1    2    0    0 -0.35211760541E+02 -0.13870899230E+02  0.21245079441E+02  0.43400729559E+02  0.00000000000E+00 0.  1.
         11    1    3    3    0    0  0.27537263043E+02  0.11003527730E+02 -0.18281679818E+02  0.34836737730E+02  0.51100000000E-03 0. -1.
        -11    1    3    3    0    0  0.22495357607E+01  0.27816862282E+01  0.31571648190E+01  0.47713603265E+01  0.51100000000E-03 0.  1.
         12    1    3    3    0    0  0.54249617370E+01  0.85685272246E-01 -0.61205644413E+01  0.81791723844E+01  0.00000000000E+00 0. -1.
</event>
<event>
 7    1  0.2642243E-009  0.4778727E+02  0.7816164E-02  0.1312668E+00
        -11   -1    0    0    0    0  0.00000000000E+00  0.00000000000E+00  0.45593999997E+02  0.45594000000E+02  0.51100000000E-03 0.  1.
         11   -1    0    0    0    0 -0.00000000000E+00 -0.00000000000E+00 -0.45593999997E+02  0.45594000000E+02  0.51100000000E-03 0. -1.
    9900012    2    1    2    0    0  0.93870452729E+01 -0.42338450288E+02  0.17211283933E+01  0.47787271035E+02  0.19999999956E+02 0.  0.
        -12    1    1    2    0    0 -0.93870452729E+01  0.42338450288E+02 -0.17211283933E+01  0.43400728965E+02  0.00000000000E+00 0.  1.
         11    1    3    3    0    0  0.19104892145E+01 -0.15804824019E+02  0.50847641838E+01  0.16712188916E+02  0.51100000000E-03 0. -1.
        -11    1    3    3    0    0  0.78982079839E+01 -0.25749499549E+02 -0.65900423319E+01  0.27728091794E+02  0.51100000000E-03 0.  1.
        -12    1    3    3    0    0 -0.42165192550E+00 -0.78412672090E+00  0.32264065414E+01  0.33469903243E+01  0.00000000000E+00 0.  1.
</event>
<event>
 7    1  0.2642243E-009  0.4778728E+02  0.7816164E-02  0.1312668E+00
        -11   -1    0    0    0    0  0.00000000000E+00  0.00000000000E+00  0.45593999997E+02  0.45594000000E+02  0.51100000000E-03 0. -1.
         11   -1    0    0    0    0 -0.00000000000E+00 -0.00000000000E+00 -0.45593999997E+02  0.45594000000E+02  0.51100000000E-03 0.  1.
    9900012    2    1    2    0    0 -0.32795176523E+02 -0.26772680305E+02 -0.95562908245E+01  0.47787277561E+02  0.20000029711E+02 0.  0.
        -12    1    1    2    0    0  0.32795176523E+02  0.26772680305E+02  0.95562908245E+01  0.43400722439E+02  0.00000000000E+00 0.  1.
         11    1    3    3    0    0 -0.16804129279E+02 -0.90114590980E+01 -0.68127985348E+01  0.20248441423E+02  0.51100000000E-03 0. -1.
        -11    1    3    3    0    0 -0.47081245196E+00  0.19710350220E+01  0.81321160489E+00  0.21835651578E+01  0.51100000000E-03 0.  1.
        -12    1    3    3    0    0 -0.15520234792E+02 -0.19732256229E+02 -0.35567038945E+01  0.25355270980E+02  0.00000000000E+00 0.  1.
</event>
<event>
 7    1  0.2668394E-009  0.4778727E+02  0.7816164E-02  0.1312668E+00
        -11   -1    0    0    0    0  0.00000000000E+00  0.00000000000E+00  0.45593999997E+02  0.45594000000E+02  0.51100000000E-03 0. -1.
         11   -1    0    0    0    0 -0.00000000000E+00 -0.00000000000E+00 -0.45593999997E+02  0.45594000000E+02  0.51100000000E-03 0.  1.
    9900012    2    1    2    0    0  0.61830215710E+01 -0.25061803310E+00  0.42957311337E+02  0.47787272328E+02  0.20000005852E+02 0.  0.
        -12    1    1    2    0    0 -0.61830215710E+01  0.25061803310E+00 -0.42957311337E+02  0.43400727672E+02  0.00000000000E+00 0.  1.
         11    1    3    3    0    0  0.85154715728E+01  0.13241829876E+01  0.14233527714E+02  0.16639111399E+02  0.51100000000E-03 0. -1.
        -11    1    3    3    0    0 -0.48345578321E+01  0.93282019062E+00  0.45113999424E+01  0.66780111292E+01  0.51100000000E-03 0.  1.
        -12    1    3    3    0    0  0.25021078303E+01 -0.25076212113E+01  0.24212383681E+02  0.24470149800E+02  0.00000000000E+00 0.  1.
</event>
<event>
 7    1  0.2642243E-009  0.4778727E+02  0.7816164E-02  0.1312668E+00
        -11   -1    0    0    0    0  0.00000000000E+00  0.00000000000E+00  0.45593999997E+02  0.45594000000E+02  0.51100000000E-03 0. -1.
         11   -1    0    0    0    0 -0.00000000000E+00 -0.00000000000E+00 -0.45593999997E+02  0.45594000000E+02  0.51100000000E-03 0.  1.
    9900012    2    1    2    0    0  0.26682359707E+02 -0.12250274337E+02  0.31962572059E+02  0.47787267823E+02  0.19999985313E+02 0.  0.
        -12    1    1    2    0    0 -0.26682359707E+02  0.12250274337E+02 -0.31962572059E+02  0.43400732177E+02  0.00000000000E+00 0.  1.
         11    1    3    3    0    0  0.18548864423E+02 -0.13900988028E+02  0.29444292583E+02  0.37473513386E+02  0.51100000000E-03 0. -1.
        -11    1    3    3    0    0  0.30088516913E+01  0.34429911965E+01  0.11758172959E+01  0.47212205471E+01  0.51100000000E-03 0.  1.
         12    1    3    3    0    0  0.51246435923E+01 -0.17922775057E+01  0.13424621803E+01  0.55925338900E+01  0.00000000000E+00 0. -1.
</event>
<event>
 7    1  0.2642243E-009  0.4778727E+02  0.7816164E-02  0.1312668E+00
        -11   -1    0    0    0    0  0.00000000000E+00  0.00000000000E+00  0.45593999997E+02  0.45594000000E+02  0.51100000000E-03 0.  1.
         11   -1    0    0    0    0 -0.00000000000E+00 -0.00000000000E+00 -0.45593999997E+02  0.45594000000E+02  0.51100000000E-03 0. -1.
    9900012    2    1    2    0    0 -0.38418320492E+02  0.19059304967E+02 -0.66632594123E+01  0.47787268656E+02  0.19999989108E+02 0.  0.
        -12    1    1    2    0    0  0.38418320492E+02 -0.19059304967E+02  0.66632594123E+01  0.43400731344E+02  0.00000000000E+00 0.  1.
         11    1    3    3    0    0 -0.34024818192E+02  0.13221194422E+02 -0.49190213614E+01  0.36833205214E+02  0.51100000000E-03 0. -1.
        -11    1    3    3    0    0 -0.47003703843E+01  0.75731485355E+01 -0.78460518129E+00  0.89477184825E+01  0.51100000000E-03 0.  1.
         12    1    3    3    0    0  0.30686808408E+00 -0.17350379907E+01 -0.95963286968E+00  0.20063449590E+01  0.00000000000E+00 0. -1.
</event>
<event>
 7    1  0.2642243E-009  0.4778727E+02  0.7816164E-02  0.1312668E+00
        -11   -1    0    0    0    0  0.00000000000E+00  0.00000000000E+00  0.45593999997E+02  0.45594000000E+02  0.51100000000E-03 0.  1.
         11   -1    0    0    0    0 -0.00000000000E+00 -0.00000000000E+00 -0.45593999997E+02  0.45594000000E+02  0.51100000000E-03 0. -1.
    9900012    2    1    2    0    0  0.12076543213E+02  0.24374743884E+02 -0.33817932624E+02  0.47787267260E+02  0.19999982747E+02 0.  0.
        -12    1    1    2    0    0 -0.12076543213E+02 -0.24374743884E+02  0.33817932624E+02  0.43400732740E+02  0.00000000000E+00 0.  1.
         11    1    3    3    0    0  0.87665713925E+01  0.21404335294E+02 -0.14375802874E+02  0.27233473004E+02  0.51100000000E-03 0. -1.
        -11    1    3    3    0    0  0.20858709470E+01  0.36120029678E+01 -0.18274722699E+02  0.18744676926E+02  0.51100000000E-03 0.  1.
         12    1    3    3    0    0  0.12241008731E+01 -0.64159437774E+00 -0.11674070512E+01  0.18091173307E+01  0.00000000000E+00 0. -1.
</event>
<event>
 7    1  0.2642243E-009  0.4778727E+02  0.7816164E-02  0.1312668E+00
        -11   -1    0    0    0    0  0.00000000000E+00  0.00000000000E+00  0.45593999997E+02  0.45594000000E+02  0.51100000000E-03 0.  1.
         11   -1    0    0    0    0 -0.00000000000E+00 -0.00000000000E+00 -0.45593999997E+02  0.45594000000E+02  0.51100000000E-03 0. -1.
    9900012    2    1    2    0    0  0.27917898571E+02 -0.30689200562E+02 -0.12743140000E+02  0.47787266034E+02  0.19999977155E+02 0.  0.
        -12    1    1    2    0    0 -0.27917898571E+02  0.30689200562E+02  0.12743140000E+02  0.43400733966E+02  0.00000000000E+00 0.  1.
         11    1    3    3    0    0  0.21608205019E+02 -0.24730647973E+02 -0.15629180627E+02  0.36370190550E+02  0.51100000000E-03 0. -1.
        -11    1    3    3    0    0  0.77031349957E+01 -0.41974638980E+01  0.26216686591E+01  0.91558800099E+01  0.51100000000E-03 0.  1.
         12    1    3    3    0    0 -0.13934414438E+01 -0.17610886907E+01  0.26437196804E+00  0.22611954740E+01  0.00000000000E+00 0. -1.
</event>
<event>
 7    1  0.2642243E-009  0.4778727E+02  0.7816164E-02  0.1312668E+00
        -11   -1    0    0    0    0  0.00000000000E+00  0.00000000000E+00  0.45593999997E+02  0.45594000000E+02  0.51100000000E-03 0.  1.
         11   -1    0    0    0    0 -0.00000000000E+00 -0.00000000000E+00 -0.45593999997E+02  0.45594000000E+02  0.51100000000E-03 0. -1.
    9900012    2    1    2    0    0  0.37773064712E+02 -0.29374292825E+01  0.21170510414E+02  0.47787269364E+02  0.19999992339E+02 0.  0.
        -12    1    1    2    0    0 -0.37773064712E+02  0.29374292825E+01 -0.21170510414E+02  0.43400730636E+02  0.00000000000E+00 0.  1.
         11    1    3    3    0    0  0.32363735195E+02 -0.30708873654E+01  0.10892920577E+02  0.34285527908E+02  0.51100000000E-03 0. -1.
        -11    1    3    3    0    0  0.50685088089E+01  0.15266223553E+01  0.10757498041E+02  0.11989333664E+02  0.51100000000E-03 0.  1.
         12    1    3    3    0    0  0.34082070809E+00 -0.13931642724E+01 -0.47990820315E+00  0.15124077917E+01  0.00000000000E+00 0. -1.
</event>
<event>
 7    1  0.2642243E-009  0.4778727E+02  0.7816164E-02  0.1312668E+00
        -11   -1    0    0    0    0  0.00000000000E+00  0.00000000000E+00  0.45593999997E+02  0.45594000000E+02  0.51100000000E-03 0.  1.
         11   -1    0    0    0    0 -0.00000000000E+00 -0.00000000000E+00 -0.45593999997E+02  0.45594000000E+02  0.51100000000E-03 0. -1.
    9900012    2    1    2    0    0 -0.35989735539E+02  0.23043168273E+02  0.75746057702E+01  0.47787270504E+02  0.19999997536E+02 0.  0.
        -12    1    1    2    0    0  0.35989735539E+02 -0.23043168273E+02 -0.75746057702E+01  0.43400729496E+02  0.00000000000E+00 0.  1.
         11    1    3    3    0    0 -0.93471042475E+01  0.12133261066E+02 -0.46142008695E+01  0.15996100520E+02  0.51100000000E-03 0. -1.
        -11    1    3    3    0    0 -0.39179792693E+01  0.39851020688E+01  0.19021093659E+01  0.59033567023E+01  0.51100000000E-03 0.  1.
         12    1    3    3    0    0 -0.22724652022E+02  0.69248051383E+01  0.10286697274E+02  0.25887813282E+02  0.00000000000E+00 0. -1.
</event>
<event>
 7    1  0.2642243E-009  0.4778728E+02  0.7816164E-02  0.1312668E+00
        -11   -1    0    0    0    0  0.00000000000E+00  0.00000000000E+00  0.45593999997E+02  0.45594000000E+02  0.51100000000E-03 0.  1.
         11   -1    0    0    0    0 -0.00000000000E+00 -0.00000000000E+00 -0.45593999997E+02  0.45594000000E+02  0.51100000000E-03 0. -1.
    9900012    2    1    2    0    0  0.15520364076E+02  0.40506530006E+02  0.14006574175E+01  0.47787279783E+02  0.20000039843E+02 0.  0.
        -12    1    1    2    0    0 -0.15520364076E+02 -0.40506530006E+02 -0.14006574175E+01  0.43400720217E+02  0.00000000000E+00 0.  1.
         11    1    3    3    0    0  0.11949247102E+02  0.30119350484E+02 -0.51897842203E+01  0.32816057661E+02  0.51100000000E-03 0. -1.
        -11    1    3    3    0    0 -0.19476002667E+00 -0.98475291161E+00  0.18171661176E+01  0.20759968028E+01  0.51100000000E-03 0.  1.
         12    1    3    3    0    0  0.37658770012E+01  0.11371932433E+02  0.47732755202E+01  0.12895225320E+02  0.00000000000E+00 0. -1.
</event>
<event>
 7    1  0.2642243E-009  0.4778727E+02  0.7816164E-02  0.1312668E+00
        -11   -1    0    0    0    0  0.00000000000E+00  0.00000000000E+00  0.45593999997E+02  0.45594000000E+02  0.51100000000E-03 0.  1.
         11   -1    0    0    0    0 -0.00000000000E+00 -0.00000000000E+00 -0.45593999997E+02  0.45594000000E+02  0.51100000000E-03 0. -1.
    9900012    2    1    2    0    0  0.60085940031E+01  0.47267750505E+01 -0.42722098792E+02  0.47787270404E+02  0.19999997081E+02 0.  0.
        -12    1    1    2    0    0 -0.60085940031E+01 -0.47267750505E+01  0.42722098792E+02  0.43400729596E+02  0.00000000000E+00 0.  1.
         11    1    3    3    0    0  0.47711170034E+01  0.58905023842E+01 -0.82703345763E+01  0.11218734780E+02  0.51100000000E-03 0. -1.
        -11    1    3    3    0    0  0.29415085049E+01  0.85916988665E+00 -0.13287629498E+01  0.33400982645E+01  0.51100000000E-03 0.  1.
         12    1    3    3    0    0 -0.17040315053E+01 -0.20228972203E+01 -0.33123001266E+02  0.33228437360E+02  0.00000000000E+00 0. -1.
</event>
<event>
 7    1  0.2642243E-009  0.4778727E+02  0.7816164E-02  0.1312668E+00
        -11   -1    0    0    0    0  0.00000000000E+00  0.00000000000E+00  0.45593999997E+02  0.45594000000E+02  0.51100000000E-03 0. -1.
         11   -1    0    0    0    0 -0.00000000000E+00 -0.00000000000E+00 -0.45593999997E+02  0.45594000000E+02  0.51100000000E-03 0.  1.
    9900012    2    1    2    0    0  0.17265778596E+02 -0.88664116893E+01  0.38818848267E+02  0.47787270196E+02  0.19999996131E+02 0.  0.
        -12    1    1    2    0    0 -0.17265778596E+02  0.88664116893E+01 -0.38818848267E+02  0.43400729804E+02  0.00000000000E+00 0.  1.
         11    1    3    3    0    0  0.46651611029E+01  0.10763407050E+01  0.65360316666E+00  0.48321252871E+01  0.51100000000E-03 0. -1.
        -11    1    3    3    0    0  0.87632958587E+01 -0.12052776362E+02  0.25270235927E+02  0.29336830034E+02  0.51100000000E-03 0.  1.
        -12    1    3    3    0    0  0.38373216340E+01  0.21100239677E+01  0.12895009173E+02  0.13618314875E+02  0.00000000000E+00 0.  1.
</event>
<event>
 7    1  0.2642243E-009  0.4778727E+02  0.7816164E-02  0.1312668E+00
        -11   -1    0    0    0    0  0.00000000000E+00  0.00000000000E+00  0.45593999997E+02  0.45594000000E+02  0.51100000000E-03 0. -1.
         11   -1    0    0    0    0 -0.00000000000E+00 -0.00000000000E+00 -0.45593999997E+02  0.45594000000E+02  0.51100000000E-03 0.  1.
    9900012    2    1    2    0    0 -0.20270186504E+02  0.35070304575E+02  0.15582571270E+02  0.47787271305E+02  0.20000001187E+02 0.  0.
        -12    1    1    2    0    0  0.20270186504E+02 -0.35070304575E+02 -0.15582571270E+02  0.43400728695E+02  0.00000000000E+00 0.  1.
         11    1    3    3    0    0 -0.18344981561E+02  0.17638665709E+02  0.11556217027E+02  0.27950081014E+02  0.51100000000E-03 0. -1.
        -11    1    3    3    0    0 -0.51282182400E+01  0.93013053865E+01  0.30110172123E+01  0.11039888094E+02  0.51100000000E-03 0.  1.
         12    1    3    3    0    0  0.32030132963E+01  0.81303334791E+01  0.10153370314E+01  0.87973021970E+01  0.00000000000E+00 0. -1.
</event>
<event>
 7    1  0.2642243E-009  0.4778727E+02  0.7816164E-02  0.1312668E+00
        -11   -1    0    0    0    0  0.00000000000E+00  0.00000000000E+00  0.45593999997E+02  0.45594000000E+02  0.51100000000E-03 0. -1.
         11   -1    0    0    0    0 -0.00000000000E+00 -0.00000000000E+00 -0.45593999997E+02  0.45594000000E+02  0.51100000000E-03 0.  1.
    9900012    2    1    2    0    0  0.17531482693E+02  0.38128810287E+01  0.39518757734E+02  0.47787272356E+02  0.20000005981E+02 0.  0.
        -12    1    1    2    0    0 -0.17531482693E+02 -0.38128810287E+01 -0.39518757734E+02  0.43400727644E+02  0.00000000000E+00 0.  1.
         11    1    3    3    0    0  0.62495472480E+01 -0.65010501250E+01  0.20187905942E+02  0.22110450926E+02  0.51100000000E-03 0. -1.
        -11    1    3    3    0    0  0.46688204657E+01  0.90248065875E+01  0.11799844114E+02  0.15571812350E+02  0.51100000000E-03 0.  1.
        -12    1    3    3    0    0  0.66131149792E+01  0.12891245662E+01  0.75310076779E+01  0.10105009081E+02  0.00000000000E+00 0.  1.
</event>
<event>
 7    1  0.2642243E-009  0.4778727E+02  0.7816164E-02  0.1312668E+00
        -11   -1    0    0    0    0  0.00000000000E+00  0.00000000000E+00  0.45593999997E+02  0.45594000000E+02  0.51100000000E-03 0. -1.
         11   -1    0    0    0    0 -0.00000000000E+00 -0.00000000000E+00 -0.45593999997E+02  0.45594000000E+02  0.51100000000E-03 0.  1.
    9900012    2    1    2    0    0  0.17933334676E+02 -0.39389961715E+02  0.32326260207E+01  0.47787269044E+02  0.19999990881E+02 0.  0.
        -12    1    1    2    0    0 -0.17933334676E+02  0.39389961715E+02 -0.32326260207E+01  0.43400730956E+02  0.00000000000E+00 0.  1.
         11    1    3    3    0    0  0.95359316395E+01 -0.27234846401E+02  0.10054686645E+01  0.28873548764E+02  0.51100000000E-03 0. -1.
        -11    1    3    3    0    0  0.97348376068E+01 -0.75179518931E+01  0.50797497427E+01  0.13307536271E+02  0.51100000000E-03 0.  1.
        -12    1    3    3    0    0 -0.13374345707E+01 -0.46371634205E+01 -0.28525923865E+01  0.56061840090E+01  0.00000000000E+00 0.  1.
</event>
<event>
 7    1  0.2642243E-009  0.4778727E+02  0.7816164E-02  0.1312668E+00
        -11   -1    0    0    0    0  0.00000000000E+00  0.00000000000E+00  0.45593999997E+02  0.45594000000E+02  0.51100000000E-03 0.  1.
         11   -1    0    0    0    0 -0.00000000000E+00 -0.00000000000E+00 -0.45593999997E+02  0.45594000000E+02  0.51100000000E-03 0. -1.
    9900012    2    1    2    0    0  0.31987055511E+02 -0.25919505852E+02 -0.13734290791E+02  0.47787271349E+02  0.20000001389E+02 0.  0.
        -12    1    1    2    0    0 -0.31987055511E+02  0.25919505852E+02  0.13734290791E+02  0.43400728651E+02  0.00000000000E+00 0.  1.
         11    1    3    3    0    0  0.19438157186E+02 -0.84124175812E+01 -0.14677596210E+02  0.25769023170E+02  0.51100000000E-03 0. -1.
        -11    1    3    3    0    0  0.44563725329E+01 -0.52989650239E+01  0.23317364512E+01  0.73058388714E+01  0.51100000000E-03 0.  1.
         12    1    3    3    0    0  0.80925257925E+01 -0.12208123247E+02 -0.13884310322E+01  0.14712409308E+02  0.00000000000E+00 0. -1.
</event>
<event>
 7    1  0.2642243E-009  0.4778725E+02  0.7816164E-02  0.1312668E+00
        -11   -1    0    0    0    0  0.00000000000E+00  0.00000000000E+00  0.45593999997E+02  0.45594000000E+02  0.51100000000E-03 0.  1.
         11   -1    0    0    0    0 -0.00000000000E+00 -0.00000000000E+00 -0.45593999997E+02  0.45594000000E+02  0.51100000000E-03 0. -1.
    9900012    2    1    2    0    0 -0.29848044677E+02  0.17980431418E+02 -0.25873210649E+02  0.47787254450E+02  0.19999924341E+02 0.  0.
        -12    1    1    2    0    0  0.29848044677E+02 -0.17980431418E+02  0.25873210649E+02  0.43400745550E+02  0.00000000000E+00 0.  1.
         11    1    3    3    0    0 -0.10135494448E+02 -0.63200338063E+00 -0.84250208935E+01  0.13195023808E+02  0.51100000000E-03 0. -1.
        -11    1    3    3    0    0 -0.97444837503E+00  0.83804945003E+01 -0.61235010770E+01  0.10424946206E+02  0.51100000000E-03 0.  1.
        -12    1    3    3    0    0 -0.18738101853E+02  0.10231940298E+02 -0.11324688678E+02  0.24167284436E+02  0.00000000000E+00 0.  1.
</event>
<event>
 7    1  0.2642243E-009  0.4778727E+02  0.7816164E-02  0.1312668E+00
        -11   -1    0    0    0    0  0.00000000000E+00  0.00000000000E+00  0.45593999997E+02  0.45594000000E+02  0.51100000000E-03 0.  1.
         11   -1    0    0    0    0 -0.00000000000E+00 -0.00000000000E+00 -0.45593999997E+02  0.45594000000E+02  0.51100000000E-03 0. -1.
    9900012    2    1    2    0    0  0.34868267030E+02 -0.25738396393E+02 -0.23157254169E+01  0.47787266380E+02  0.19999978733E+02 0.  0.
        -12    1    1    2    0    0 -0.34868267030E+02  0.25738396393E+02  0.23157254169E+01  0.43400733620E+02  0.00000000000E+00 0.  1.
         11    1    3    3    0    0  0.22222577190E+02 -0.20574463102E+02 -0.99553876156E+01  0.31878852108E+02  0.51100000000E-03 0. -1.
        -11    1    3    3    0    0  0.10749843103E+02 -0.39209540874E+01  0.51709752483E+01  0.12556750892E+02  0.51100000000E-03 0.  1.
        -12    1    3    3    0    0  0.18958467376E+01 -0.12429792040E+01  0.24686869504E+01  0.33516633801E+01  0.00000000000E+00 0.  1.
</event>
<event>
 7    1  0.2642243E-009  0.4778727E+02  0.7816164E-02  0.1312668E+00
        -11   -1    0    0    0    0  0.00000000000E+00  0.00000000000E+00  0.45593999997E+02  0.45594000000E+02  0.51100000000E-03 0. -1.
         11   -1    0    0    0    0 -0.00000000000E+00 -0.00000000000E+00 -0.45593999997E+02  0.45594000000E+02  0.51100000000E-03 0.  1.
    9900012    2    1    2    0    0 -0.28320613448E+02  0.30620335596E+02  0.11998398553E+02  0.47787266528E+02  0.19999979407E+02 0.  0.
        -12    1    1    2    0    0  0.28320613448E+02 -0.30620335596E+02 -0.11998398553E+02  0.43400733472E+02  0.00000000000E+00 0.  1.
         11    1    3    3    0    0 -0.81213804398E+01  0.89051969694E+01  0.35789992381E+00  0.12057671663E+02  0.51100000000E-03 0. -1.
        -11    1    3    3    0    0 -0.16113913808E+02  0.54844578011E+01  0.52304682271E+01  0.17807169728E+02  0.51100000000E-03 0.  1.
        -12    1    3    3    0    0 -0.40853191999E+01  0.16230680826E+02  0.64100304026E+01  0.17922425137E+02  0.00000000000E+00 0.  1.
</event>
<event>
 7    1  0.2642243E-009  0.4778725E+02  0.7816164E-02  0.1312668E+00
        -11   -1    0    0    0    0  0.00000000000E+00  0.00000000000E+00  0.45593999997E+02  0.45594000000E+02  0.51100000000E-03 0. -1.
         11   -1    0    0    0    0 -0.00000000000E+00 -0.00000000000E+00 -0.45593999997E+02  0.45594000000E+02  0.51100000000E-03 0.  1.
    9900012    2    1    2    0    0 -0.16265940486E+02  0.48032309778E+00  0.40234483721E+02  0.47787248734E+02  0.19999898276E+02 0.  0.
        -12    1    1    2    0    0  0.16265940486E+02 -0.48032309778E+00 -0.40234483721E+02  0.43400751266E+02  0.00000000000E+00 0.  1.
         11    1    3    3    0    0 -0.12808459776E+02 -0.37001209459E+01  0.27665980903E+02  0.30710813022E+02  0.51100000000E-03 0. -1.
        -11    1    3    3    0    0  0.25664518157E+01  0.48620003746E+01  0.59856531165E+01  0.81273468030E+01  0.51100000000E-03 0.  1.
        -12    1    3    3    0    0 -0.60239325256E+01 -0.68155633098E+00  0.65828497017E+01  0.89490889090E+01  0.00000000000E+00 0.  1.
</event>
<event>
 7    1  0.2642243E-009  0.4778730E+02  0.7816164E-02  0.1312668E+00
        -11   -1    0    0    0    0  0.00000000000E+00  0.00000000000E+00  0.45593999997E+02  0.45594000000E+02  0.51100000000E-03 0.  1.
         11   -1    0    0    0    0 -0.00000000000E+00 -0.00000000000E+00 -0.45593999997E+02  0.45594000000E+02  0.51100000000E-03 0. -1.
    9900012    2    1    2    0    0  0.19419623128E+02 -0.24412381069E+02 -0.30175067988E+02  0.47787299085E+02  0.20000127846E+02 0.  0.
        -12    1    1    2    0    0 -0.19419623128E+02  0.24412381069E+02  0.30175067988E+02  0.43400700915E+02  0.00000000000E+00 0.  1.
         11    1    3    3    0    0  0.62617737400E+01 -0.18578136386E+02 -0.19714111751E+02  0.27802934456E+02  0.51100000000E-03 0. -1.
        -11    1    3    3    0    0  0.26745168350E+01  0.44363766898E+00  0.13159609772E+01  0.30135706788E+01  0.51100000000E-03 0.  1.
         12    1    3    3    0    0  0.10483332553E+02 -0.62778823518E+01 -0.11776917214E+02  0.16970793950E+02  0.00000000000E+00 0. -1.
</event>
<event>
 7    1  0.2642243E-009  0.4778727E+02  0.7816164E-02  0.1312668E+00
        -11   -1    0    0    0    0  0.00000000000E+00  0.00000000000E+00  0.45593999997E+02  0.45594000000E+02  0.51100000000E-03 0. -1.
         11   -1    0    0    0    0 -0.00000000000E+00 -0.00000000000E+00 -0.45593999997E+02  0.45594000000E+02  0.51100000000E-03 0.  1.
    9900012    2    1    2    0    0 -0.17700787246E+02  0.39493637933E+02 -0.32493091073E+01  0.47787270560E+02  0.19999997789E+02 0.  0.
        -12    1    1    2    0    0  0.17700787246E+02 -0.39493637933E+02  0.32493091073E+01  0.43400729440E+02  0.00000000000E+00 0.  1.
         11    1    3    3    0    0 -0.60436551477E+01  0.29951264804E+02 -0.92962991285E+00  0.30569073308E+02  0.51100000000E-03 0.  1.
        -11    1    3    3    0    0 -0.50071120397E+01  0.10452234622E+01 -0.37380648208E+01  0.63353604419E+01  0.51100000000E-03 0. -1.
        -12    1    3    3    0    0 -0.66500200581E+01  0.84971496670E+01  0.14183856263E+01  0.10882836809E+02  0.00000000000E+00 0.  1.
</event>
<event>
 7    1  0.2642243E-009  0.4778728E+02  0.7816164E-02  0.1312668E+00
        -11   -1    0    0    0    0  0.00000000000E+00  0.00000000000E+00  0.45593999997E+02  0.45594000000E+02  0.51100000000E-03 0.  1.
         11   -1    0    0    0    0 -0.00000000000E+00 -0.00000000000E+00 -0.45593999997E+02  0.45594000000E+02  0.51100000000E-03 0. -1.
    9900012    2    1    2    0    0 -0.32029297532E+02  0.29127203298E+02 -0.30582753621E+01  0.47787275115E+02  0.20000018561E+02 0.  0.
        -12    1    1    2    0    0  0.32029297532E+02 -0.29127203298E+02  0.30582753621E+01  0.43400724885E+02  0.00000000000E+00 0.  1.
         11    1    3    3    0    0 -0.29957954561E+02  0.22288552424E+02 -0.36838542041E+01  0.37521052660E+02  0.51100000000E-03 0. -1.
        -11    1    3    3    0    0  0.33329391391E+00  0.28554077208E+01  0.37028910413E+01  0.46878396314E+01  0.51100000000E-03 0.  1.
         12    1    3    3    0    0 -0.24046368847E+01  0.39832431528E+01 -0.30773121992E+01  0.55783828242E+01  0.00000000000E+00 0. -1.
</event>
<event>
 7    1  0.2642243E-009  0.4778727E+02  0.7816164E-02  0.1312668E+00
        -11   -1    0    0    0    0  0.00000000000E+00  0.00000000000E+00  0.45593999997E+02  0.45594000000E+02  0.51100000000E-03 0. -1.
         11   -1    0    0    0    0 -0.00000000000E+00 -0.00000000000E+00 -0.45593999997E+02  0.45594000000E+02  0.51100000000E-03 0.  1.
    9900012    2    1    2    0    0 -0.77559433212E+01 -0.41312820177E+02  0.10803702179E+02  0.47787265576E+02  0.19999975068E+02 0.  0.
        -12    1    1    2    0    0  0.77559433212E+01  0.41312820177E+02 -0.10803702179E+02  0.43400734424E+02  0.00000000000E+00 0.  1.
         11    1    3    3    0    0  0.13840472682E+01 -0.17407222137E+02 -0.21472212722E+01  0.17593678661E+02  0.51100000000E-03 0. -1.
        -11    1    3    3    0    0 -0.94069937001E+01 -0.17486828033E+02  0.60330816750E+01  0.20752801254E+02  0.51100000000E-03 0.  1.
        -12    1    3    3    0    0  0.26700311072E+00 -0.64187700066E+01  0.69178417765E+01  0.94407856613E+01  0.00000000000E+00 0.  1.
</event>
<event>
 7    1  0.2642243E-009  0.4778727E+02  0.7816164E-02  0.1312668E+00
        -11   -1    0    0    0    0  0.00000000000E+00  0.00000000000E+00  0.45593999997E+02  0.45594000000E+02  0.51100000000E-03 0.  1.
         11   -1    0    0    0    0 -0.00000000000E+00 -0.00000000000E+00 -0.45593999997E+02  0.45594000000E+02  0.51100000000E-03 0. -1.
    9900012    2    1    2    0    0  0.34720282965E+01  0.43002254918E+02 -0.47301263428E+01  0.47787274157E+02  0.20000014190E+02 0.  0.
        -12    1    1    2    0    0 -0.34720282965E+01 -0.43002254918E+02  0.47301263428E+01  0.43400725843E+02  0.00000000000E+00 0.  1.
         11    1    3    3    0    0 -0.24067378802E+01  0.93687853769E+00  0.26004435524E+01  0.36650287241E+01  0.51100000000E-03 0. -1.
        -11    1    3    3    0    0 -0.80993484603E+00  0.11335357766E+01 -0.18064071817E+01  0.22812288309E+01  0.51100000000E-03 0.  1.
         12    1    3    3    0    0  0.66887010227E+01  0.40931840604E+02 -0.55241627135E+01  0.41841016602E+02  0.00000000000E+00 0. -1.
</event>
<event>
 7    1  0.2642243E-009  0.4778727E+02  0.7816164E-02  0.1312668E+00
        -11   -1    0    0    0    0  0.00000000000E+00  0.00000000000E+00  0.45593999997E+02  0.45594000000E+02  0.51100000000E-03 0. -1.
         11   -1    0    0    0    0 -0.00000000000E+00 -0.00000000000E+00 -0.45593999997E+02  0.45594000000E+02  0.51100000000E-03 0.  1.
    9900012    2    1    2    0    0  0.40784109308E+02 -0.12338104332E+01  0.14790439205E+02  0.47787274751E+02  0.20000016902E+02 0.  0.
        -12    1    1    2    0    0 -0.40784109308E+02  0.12338104332E+01 -0.14790439205E+02  0.43400725249E+02  0.00000000000E+00 0.  1.
         11    1    3    3    0    0  0.15325295718E+02  0.53681047801E+01  0.32317039318E+01  0.16556725169E+02  0.51100000000E-03 0. -1.
        -11    1    3    3    0    0  0.14545159009E+02 -0.74113045549E+01  0.12027590499E+02  0.20276883865E+02  0.51100000000E-03 0.  1.
        -12    1    3    3    0    0  0.10913654581E+02  0.80938934155E+00 -0.46885522600E+00  0.10953665717E+02  0.00000000000E+00 0.  1.
</event>
<event>
 7    1  0.2642243E-009  0.4778727E+02  0.7816164E-02  0.1312668E+00
        -11   -1    0    0    0    0  0.00000000000E+00  0.00000000000E+00  0.45593999997E+02  0.45594000000E+02  0.51100000000E-03 0.  1.
         11   -1    0    0    0    0 -0.00000000000E+00 -0.00000000000E+00 -0.45593999997E+02  0.45594000000E+02  0.51100000000E-03 0. -1.
    9900012    2    1    2    0    0  0.32399555863E+02 -0.18156160749E+02 -0.22455421221E+02  0.47787270335E+02  0.19999996764E+02 0.  0.
        -12    1    1    2    0    0 -0.32399555863E+02  0.18156160749E+02  0.22455421221E+02  0.43400729665E+02  0.00000000000E+00 0.  1.
         11    1    3    3    0    0  0.20525340880E+02 -0.12288699735E+02 -0.21754760373E+02  0.32335295863E+02  0.51100000000E-03 0. -1.
        -11    1    3    3    0    0  0.30538139948E+01  0.18317822274E+01  0.79521588483E+00  0.36487771387E+01  0.51100000000E-03 0.  1.
         12    1    3    3    0    0  0.88204009887E+01 -0.76992432409E+01 -0.14958767334E+01  0.11803197333E+02  0.00000000000E+00 0. -1.
</event>
<event>
 7    1  0.2642243E-009  0.4778727E+02  0.7816164E-02  0.1312668E+00
        -11   -1    0    0    0    0  0.00000000000E+00  0.00000000000E+00  0.45593999997E+02  0.45594000000E+02  0.51100000000E-03 0. -1.
         11   -1    0    0    0    0 -0.00000000000E+00 -0.00000000000E+00 -0.45593999997E+02  0.45594000000E+02  0.51100000000E-03 0.  1.
    9900012    2    1    2    0    0 -0.42419620936E+02 -0.39504849978E+01 -0.82820869708E+01  0.47787268017E+02  0.19999986196E+02 0.  0.
        -12    1    1    2    0    0  0.42419620936E+02  0.39504849978E+01  0.82820869708E+01  0.43400731983E+02  0.00000000000E+00 0.  1.
         11    1    3    3    0    0 -0.10138364549E+02  0.35824857897E+01  0.21841603814E+01  0.10972292240E+02  0.51100000000E-03 0. -1.
        -11    1    3    3    0    0 -0.15867623859E+02 -0.62654606747E+01 -0.11078055267E+02  0.20341110913E+02  0.51100000000E-03 0.  1.
        -12    1    3    3    0    0 -0.16413632527E+02 -0.12675101128E+01  0.61180791443E+00  0.16473864864E+02  0.00000000000E+00 0.  1.
</event>
<event>
 7    1  0.2642243E-009  0.4778727E+02  0.7816164E-02  0.1312668E+00
        -11   -1    0    0    0    0  0.00000000000E+00  0.00000000000E+00  0.45593999997E+02  0.45594000000E+02  0.51100000000E-03 0.  1.
         11   -1    0    0    0    0 -0.00000000000E+00 -0.00000000000E+00 -0.45593999997E+02  0.45594000000E+02  0.51100000000E-03 0. -1.
    9900012    2    1    2    0    0  0.31549155986E+02 -0.14882258032E+02 -0.25822324250E+02  0.47787271005E+02  0.19999999822E+02 0.  0.
        -12    1    1    2    0    0 -0.31549155986E+02  0.14882258032E+02  0.25822324250E+02  0.43400728995E+02  0.00000000000E+00 0.  1.
         11    1    3    3    0    0  0.22968838706E+02 -0.11596072085E+02 -0.18685471581E+02  0.31799108286E+02  0.51100000000E-03 0. -1.
        -11    1    3    3    0    0 -0.15372643741E+00 -0.78011252763E+00 -0.68512211802E+01  0.68972051800E+01  0.51100000000E-03 0.  1.
        -12    1    3    3    0    0  0.87340437175E+01 -0.25060734192E+01 -0.28563148937E+00  0.90909575398E+01  0.00000000000E+00 0.  1.
</event>
<event>
 7    1  0.2642243E-009  0.4778724E+02  0.7816164E-02  0.1312668E+00
        -11   -1    0    0    0    0  0.00000000000E+00  0.00000000000E+00  0.45593999997E+02  0.45594000000E+02  0.51100000000E-03 0.  1.
         11   -1    0    0    0    0 -0.00000000000E+00 -0.00000000000E+00 -0.45593999997E+02  0.45594000000E+02  0.51100000000E-03 0. -1.
    9900012    2    1    2    0    0  0.13997683805E+02 -0.24641795966E+02 -0.32870550262E+02  0.47787235780E+02  0.19999839214E+02 0.  0.
        -12    1    1    2    0    0 -0.13997683805E+02  0.24641795966E+02  0.32870550262E+02  0.43400764220E+02  0.00000000000E+00 0.  1.
         11    1    3    3    0    0  0.30836396723E+01  0.80205188350E+00 -0.60072947438E+01  0.67999787686E+01  0.51100000000E-03 0. -1.
        -11    1    3    3    0    0  0.69390639065E+00 -0.17620816558E+02 -0.12021763387E+02  0.21342386873E+02  0.51100000000E-03 0.  1.
        -12    1    3    3    0    0  0.10220137742E+02 -0.78230312917E+01 -0.14841492131E+02  0.19644870138E+02  0.00000000000E+00 0.  1.
</event>
<event>
 7    1  0.2642243E-009  0.4778727E+02  0.7816164E-02  0.1312668E+00
        -11   -1    0    0    0    0  0.00000000000E+00  0.00000000000E+00  0.45593999997E+02  0.45594000000E+02  0.51100000000E-03 0.  1.
         11   -1    0    0    0    0 -0.00000000000E+00 -0.00000000000E+00 -0.45593999997E+02  0.45594000000E+02  0.51100000000E-03 0. -1.
    9900012    2    1    2    0    0 -0.19879967000E+02  0.38297850752E+02  0.46566926337E+01  0.47787271361E+02  0.20000001442E+02 0.  0.
        -12    1    1    2    0    0  0.19879967000E+02 -0.38297850752E+02 -0.46566926337E+01  0.43400728639E+02  0.00000000000E+00 0.  1.
         11    1    3    3    0    0 -0.21537239539E+02  0.32771765635E+02  0.68401855469E+01  0.39807404441E+02  0.51100000000E-03 0. -1.
        -11    1    3    3    0    0  0.12972180537E+01 -0.51850651167E+00  0.31045911488E+00  0.14310865818E+01  0.51100000000E-03 0.  1.
         12    1    3    3    0    0  0.36005448516E+00  0.60445916290E+01 -0.24939520280E+01  0.65487803378E+01  0.00000000000E+00 0. -1.
</event>
<event>
 7    1  0.2642243E-009  0.4778727E+02  0.7816164E-02  0.1312668E+00
        -11   -1    0    0    0    0  0.00000000000E+00  0.00000000000E+00  0.45593999997E+02  0.45594000000E+02  0.51100000000E-03 0.  1.
         11   -1    0    0    0    0 -0.00000000000E+00 -0.00000000000E+00 -0.45593999997E+02  0.45594000000E+02  0.51100000000E-03 0. -1.
    9900012    2    1    2    0    0  0.30618884049E+02 -0.12682165328E+02 -0.28022663362E+02  0.47787273742E+02  0.20000012298E+02 0.  0.
        -12    1    1    2    0    0 -0.30618884049E+02  0.12682165328E+02  0.28022663362E+02  0.43400726258E+02  0.00000000000E+00 0.  1.
         11    1    3    3    0    0  0.16728531640E+02 -0.86015981235E+01 -0.55346557675E+01  0.19607745303E+02  0.51100000000E-03 0. -1.
        -11    1    3    3    0    0  0.30881516095E+01  0.27560846786E+01 -0.65463261990E+01  0.77451320250E+01  0.51100000000E-03 0.  1.
         12    1    3    3    0    0  0.10802200799E+02 -0.68366518833E+01 -0.15941681396E+02  0.20434396414E+02  0.00000000000E+00 0. -1.
</event>
<event>
 7    1  0.2642243E-009  0.4778727E+02  0.7816164E-02  0.1312668E+00
        -11   -1    0    0    0    0  0.00000000000E+00  0.00000000000E+00  0.45593999997E+02  0.45594000000E+02  0.51100000000E-03 0.  1.
         11   -1    0    0    0    0 -0.00000000000E+00 -0.00000000000E+00 -0.45593999997E+02  0.45594000000E+02  0.51100000000E-03 0. -1.
    9900012    2    1    2    0    0  0.14945936313E+02  0.32952994100E+02 -0.23965442427E+02  0.47787271168E+02  0.20000000562E+02 0.  0.
        -12    1    1    2    0    0 -0.14945936313E+02 -0.32952994100E+02  0.23965442427E+02  0.43400728832E+02  0.00000000000E+00 0.  1.
         11    1    3    3    0    0  0.99304173891E+01  0.27821660285E+02 -0.92427214991E+01  0.30952962241E+02  0.51100000000E-03 0. -1.
        -11    1    3    3    0    0  0.52426583438E+01  0.33183081083E+01 -0.99762512011E+01  0.11748285981E+02  0.51100000000E-03 0.  1.
         12    1    3    3    0    0 -0.22713941995E+00  0.18130257072E+01 -0.47464697271E+01  0.50860229455E+01  0.00000000000E+00 0. -1.
</event>
<event>
 7    1  0.2642243E-009  0.4778727E+02  0.7816164E-02  0.1312668E+00
        -11   -1    0    0    0    0  0.00000000000E+00  0.00000000000E+00  0.45593999997E+02  0.45594000000E+02  0.51100000000E-03 0.  1.
         11   -1    0    0    0    0 -0.00000000000E+00 -0.00000000000E+00 -0.45593999997E+02  0.45594000000E+02  0.51100000000E-03 0. -1.
    9900012    2    1    2    0    0 -0.20441229880E+02  0.31230064005E+02 -0.22146393771E+02  0.47787268050E+02  0.19999986348E+02 0.  0.
        -12    1    1    2    0    0  0.20441229880E+02 -0.31230064005E+02  0.22146393771E+02  0.43400731950E+02  0.00000000000E+00 0.  1.
         11    1    3    3    0    0 -0.15536480740E+02  0.23721782963E+02 -0.18525232234E+02  0.33871661464E+02  0.51100000000E-03 0. -1.
        -11    1    3    3    0    0  0.19873878331E+01  0.19660761235E+01 -0.42081277127E+01  0.50520792581E+01  0.51100000000E-03 0.  1.
         12    1    3    3    0    0 -0.68921369725E+01  0.55422049185E+01  0.58696617603E+00  0.88635273282E+01  0.00000000000E+00 0. -1.
</event>
<event>
 7    1  0.2642243E-009  0.4778727E+02  0.7816164E-02  0.1312668E+00
        -11   -1    0    0    0    0  0.00000000000E+00  0.00000000000E+00  0.45593999997E+02  0.45594000000E+02  0.51100000000E-03 0.  1.
         11   -1    0    0    0    0 -0.00000000000E+00 -0.00000000000E+00 -0.45593999997E+02  0.45594000000E+02  0.51100000000E-03 0. -1.
    9900012    2    1    2    0    0 -0.21073043052E+01  0.23365307375E+02 -0.36513624218E+02  0.47787273351E+02  0.20000010516E+02 0.  0.
        -12    1    1    2    0    0  0.21073043052E+01 -0.23365307375E+02  0.36513624218E+02  0.43400726649E+02  0.00000000000E+00 0.  1.
         11    1    3    3    0    0  0.69511928432E+01  0.48062553571E+01 -0.15963586567E+02  0.18062537719E+02  0.51100000000E-03 0. -1.
        -11    1    3    3    0    0 -0.53709897318E+01  0.12544084067E+02 -0.95460383707E+01  0.16653180615E+02  0.51100000000E-03 0.  1.
        -12    1    3    3    0    0 -0.36875074166E+01  0.60149679515E+01 -0.11003999279E+02  0.13071555016E+02  0.00000000000E+00 0.  1.
</event>
<event>
 7    1  0.2642243E-009  0.4778728E+02  0.7816164E-02  0.1312668E+00
        -11   -1    0    0    0    0  0.00000000000E+00  0.00000000000E+00  0.45593999997E+02  0.45594000000E+02  0.51100000000E-03 0.  1.
         11   -1    0    0    0    0 -0.00000000000E+00 -0.00000000000E+00 -0.45593999997E+02  0.45594000000E+02  0.51100000000E-03 0. -1.
    9900012    2    1    2    0    0 -0.23379111845E+02 -0.22100750889E+02 -0.29130683998E+02  0.47787276380E+02  0.20000024329E+02 0.  0.
        -12    1    1    2    0    0  0.23379111845E+02  0.22100750889E+02  0.29130683998E+02  0.43400723620E+02  0.00000000000E+00 0.  1.
         11    1    3    3    0    0 -0.21353591160E+02 -0.22785126285E+02 -0.17250029914E+02  0.35674940330E+02  0.51100000000E-03 0. -1.
        -11    1    3    3    0    0 -0.19295602507E+01  0.53327978154E+00 -0.87294740028E+01  0.89560765245E+01  0.51100000000E-03 0.  1.
         12    1    3    3    0    0 -0.95960434041E-01  0.15109561430E+00 -0.31511800816E+01  0.31562595262E+01  0.00000000000E+00 0. -1.
</event>
<event>
 7    1  0.2642243E-009  0.4778727E+02  0.7816164E-02  0.1312668E+00
        -11   -1    0    0    0    0  0.00000000000E+00  0.00000000000E+00  0.45593999997E+02  0.45594000000E+02  0.51100000000E-03 0.  1.
         11   -1    0    0    0    0 -0.00000000000E+00 -0.00000000000E+00 -0.45593999997E+02  0.45594000000E+02  0.51100000000E-03 0. -1.
    9900012    2    1    2    0    0 -0.12440689000E+02  0.12741158375E+02 -0.39579234135E+02  0.47787266893E+02  0.19999981070E+02 0.  0.
        -12    1    1    2    0    0  0.12440689000E+02 -0.12741158375E+02  0.39579234135E+02  0.43400733107E+02  0.00000000000E+00 0.  1.
         11    1    3    3    0    0 -0.78100091089E+01  0.52302700707E+01 -0.32239203334E+02  0.33581515736E+02  0.51100000000E-03 0. -1.
        -11    1    3    3    0    0  0.13317130717E+01 -0.26370258070E+00 -0.33720564229E+01  0.36350740758E+01  0.51100000000E-03 0.  1.
         12    1    3    3    0    0 -0.59623929624E+01  0.77745908853E+01 -0.39679743788E+01  0.10570677081E+02  0.00000000000E+00 0. -1.
</event>
<event>
 7    1  0.2642243E-009  0.4778727E+02  0.7816164E-02  0.1312668E+00
        -11   -1    0    0    0    0  0.00000000000E+00  0.00000000000E+00  0.45593999997E+02  0.45594000000E+02  0.51100000000E-03 0. -1.
         11   -1    0    0    0    0 -0.00000000000E+00 -0.00000000000E+00 -0.45593999997E+02  0.45594000000E+02  0.51100000000E-03 0.  1.
    9900012    2    1    2    0    0 -0.20894555508E+00 -0.40038723245E+02  0.16747541565E+02  0.47787272290E+02  0.20000005677E+02 0.  0.
        -12    1    1    2    0    0  0.20894555508E+00  0.40038723245E+02 -0.16747541565E+02  0.43400727710E+02  0.00000000000E+00 0.  1.
         11    1    3    3    0    0 -0.78895101237E+01 -0.23315587745E+02  0.81741800600E+01  0.25936040982E+02  0.51100000000E-03 0. -1.
        -11    1    3    3    0    0  0.92043933461E+01 -0.11934154588E+02  0.62890303342E+01  0.16330854399E+02  0.51100000000E-03 0.  1.
        -12    1    3    3    0    0 -0.15238287775E+01 -0.47889809118E+01  0.22843311709E+01  0.55203769088E+01  0.00000000000E+00 0.  1.
</event>
<event>
 7    1  0.2642243E-009  0.4778727E+02  0.7816164E-02  0.1312668E+00
        -11   -1    0    0    0    0  0.00000000000E+00  0.00000000000E+00  0.45593999997E+02  0.45594000000E+02  0.51100000000E-03 0. -1.
         11   -1    0    0    0    0 -0.00000000000E+00 -0.00000000000E+00 -0.45593999997E+02  0.45594000000E+02  0.51100000000E-03 0.  1.
    9900012    2    1    2    0    0  0.43083271112E+02  0.71419626768E-01 -0.52392997573E+01  0.47787267144E+02  0.19999982216E+02 0.  0.
        -12    1    1    2    0    0 -0.43083271112E+02 -0.71419626768E-01  0.52392997573E+01  0.43400732856E+02  0.00000000000E+00 0.  1.
         11    1    3    3    0    0  0.13265336297E+02  0.19905750123E+00  0.44439502553E+01  0.13991335358E+02  0.51100000000E-03 0. -1.
        -11    1    3    3    0    0  0.25187985079E+02 -0.49650212837E+01 -0.73328493093E+01  0.26699376546E+02  0.51100000000E-03 0.  1.
        -12    1    3    3    0    0  0.46299497354E+01  0.48373834093E+01 -0.23504007034E+01  0.70965552395E+01  0.00000000000E+00 0.  1.
</event>
<event>
 7    1  0.2642243E-009  0.4778727E+02  0.7816164E-02  0.1312668E+00
        -11   -1    0    0    0    0  0.00000000000E+00  0.00000000000E+00  0.45593999997E+02  0.45594000000E+02  0.51100000000E-03 0.  1.
         11   -1    0    0    0    0 -0.00000000000E+00 -0.00000000000E+00 -0.45593999997E+02  0.45594000000E+02  0.51100000000E-03 0. -1.
    9900012    2    1    2    0    0 -0.37761336835E+02 -0.17078681638E+02  0.12885002478E+02  0.47787271724E+02  0.20000003097E+02 0.  0.
        -12    1    1    2    0    0  0.37761336835E+02  0.17078681638E+02 -0.12885002478E+02  0.43400728276E+02  0.00000000000E+00 0.  1.
         11    1    3    3    0    0 -0.16461865588E+02 -0.71277006356E+01  0.87807457010E+01  0.19972446778E+02  0.51100000000E-03 0. -1.
        -11    1    3    3    0    0 -0.22746078265E+01 -0.28925830556E+01 -0.44664312774E+01  0.57870446789E+01  0.51100000000E-03 0.  1.
        -12    1    3    3    0    0 -0.19024863421E+02 -0.70583979465E+01  0.85706880541E+01  0.22027780267E+02  0.00000000000E+00 0.  1.
</event>
<event>
 7    1  0.2642243E-009  0.4778727E+02  0.7816164E-02  0.1312668E+00
        -11   -1    0    0    0    0  0.00000000000E+00  0.00000000000E+00  0.45593999997E+02  0.45594000000E+02  0.51100000000E-03 0.  1.
         11   -1    0    0    0    0 -0.00000000000E+00 -0.00000000000E+00 -0.45593999997E+02  0.45594000000E+02  0.51100000000E-03 0. -1.
    9900012    2    1    2    0    0 -0.17477816691E+02 -0.18674026215E+02 -0.35063227214E+02  0.47787271503E+02  0.20000002092E+02 0.  0.
        -12    1    1    2    0    0  0.17477816691E+02  0.18674026215E+02  0.35063227214E+02  0.43400728497E+02  0.00000000000E+00 0.  1.
         11    1    3    3    0    0 -0.18512350567E+02 -0.13689236331E+02 -0.24382523719E+02  0.33535202072E+02  0.51100000000E-03 0. -1.
        -11    1    3    3    0    0  0.83914893786E+00 -0.29531666990E+01  0.29870092890E+00  0.30845724173E+01  0.51100000000E-03 0.  1.
         12    1    3    3    0    0  0.19538493804E+00 -0.20316231845E+01 -0.10979404424E+02  0.11167497014E+02  0.00000000000E+00 0. -1.
</event>
<event>
 7    1  0.2642243E-009  0.4778728E+02  0.7816164E-02  0.1312668E+00
        -11   -1    0    0    0    0  0.00000000000E+00  0.00000000000E+00  0.45593999997E+02  0.45594000000E+02  0.51100000000E-03 0. -1.
         11   -1    0    0    0    0 -0.00000000000E+00 -0.00000000000E+00 -0.45593999997E+02  0.45594000000E+02  0.51100000000E-03 0.  1.
    9900012    2    1    2    0    0  0.29865981484E+02 -0.14737422591E+02  0.27829019777E+02  0.47787276315E+02  0.20000024031E+02 0.  0.
        -12    1    1    2    0    0 -0.29865981484E+02  0.14737422591E+02 -0.27829019777E+02  0.43400723685E+02  0.00000000000E+00 0.  1.
         11    1    3    3    0    0  0.16812875461E+02 -0.64675519680E+01  0.80449458436E+01  0.19728739534E+02  0.51100000000E-03 0. -1.
        -11    1    3    3    0    0  0.11887481156E+02 -0.94257507411E+01  0.21076853786E+02  0.25969034465E+02  0.51100000000E-03 0.  1.
        -12    1    3    3    0    0  0.11656248672E+01  0.11558801182E+01 -0.12927798530E+01  0.20895023157E+01  0.00000000000E+00 0.  1.
</event>
<event>
 7    1  0.2642243E-009  0.4778727E+02  0.7816164E-02  0.1312668E+00
        -11   -1    0    0    0    0  0.00000000000E+00  0.00000000000E+00  0.45593999997E+02  0.45594000000E+02  0.51100000000E-03 0. -1.
         11   -1    0    0    0    0 -0.00000000000E+00 -0.00000000000E+00 -0.45593999997E+02  0.45594000000E+02  0.51100000000E-03 0.  1.
    9900012    2    1    2    0    0  0.33433217596E+02  0.24167014520E+02  0.13483278353E+02  0.47787269306E+02  0.19999992076E+02 0.  0.
        -12    1    1    2    0    0 -0.33433217596E+02 -0.24167014520E+02 -0.13483278353E+02  0.43400730694E+02  0.00000000000E+00 0.  1.
         11    1    3    3    0    0 -0.15781479272E+01  0.26988245107E+01  0.38080416214E+00  0.31494787967E+01  0.51100000000E-03 0. -1.
        -11    1    3    3    0    0  0.28361596681E+02  0.11412828010E+02  0.84733427012E+01  0.31724286379E+02  0.51100000000E-03 0.  1.
         12    1    3    3    0    0  0.66497688423E+01  0.10055361999E+02  0.46291314892E+01  0.12913504131E+02  0.00000000000E+00 0. -1.
</event>
<event>
 7    1  0.2642243E-009  0.4778728E+02  0.7816164E-02  0.1312668E+00
        -11   -1    0    0    0    0  0.00000000000E+00  0.00000000000E+00  0.45593999997E+02  0.45594000000E+02  0.51100000000E-03 0.  1.
         11   -1    0    0    0    0 -0.00000000000E+00 -0.00000000000E+00 -0.45593999997E+02  0.45594000000E+02  0.51100000000E-03 0. -1.
    9900012    2    1    2    0    0  0.19684552874E+02  0.14109866135E+02 -0.36014618336E+02  0.47787277908E+02  0.20000031295E+02 0.  0.
        -12    1    1    2    0    0 -0.19684552874E+02 -0.14109866135E+02  0.36014618336E+02  0.43400722092E+02  0.00000000000E+00 0.  1.
         11    1    3    3    0    0 -0.30067704211E+01  0.23882980235E+01 -0.89355765146E+01  0.97256960534E+01  0.51100000000E-03 0.  1.
        -11    1    3    3    0    0  0.39084654532E+01 -0.99270205625E+00 -0.47897730325E+01  0.62612686842E+01  0.51100000000E-03 0. -1.
         12    1    3    3    0    0  0.18782857842E+02  0.12714270167E+02 -0.22289268789E+02  0.31800313171E+02  0.00000000000E+00 0. -1.
</event>
<event>
 7    1  0.2642243E-009  0.4778727E+02  0.7816164E-02  0.1312668E+00
        -11   -1    0    0    0    0  0.00000000000E+00  0.00000000000E+00  0.45593999997E+02  0.45594000000E+02  0.51100000000E-03 0.  1.
         11   -1    0    0    0    0 -0.00000000000E+00 -0.00000000000E+00 -0.45593999997E+02  0.45594000000E+02  0.51100000000E-03 0. -1.
    9900012    2    1    2    0    0  0.38589319449E+01  0.21771197032E+02 -0.37346312200E+02  0.47787269466E+02  0.19999992804E+02 0.  0.
        -12    1    1    2    0    0 -0.38589319449E+01 -0.21771197032E+02  0.37346312200E+02  0.43400730534E+02  0.00000000000E+00 0.  1.
         11    1    3    3    0    0  0.54882864396E+01  0.10955035865E+02 -0.15852165802E+02  0.20035599809E+02  0.51100000000E-03 0. -1.
        -11    1    3    3    0    0 -0.34952091688E+01 -0.23253722493E+01 -0.40637379524E+01  0.58427570237E+01  0.51100000000E-03 0.  1.
        -12    1    3    3    0    0  0.18658546741E+01  0.13141533416E+02 -0.17430408446E+02  0.21908912633E+02  0.00000000000E+00 0.  1.
</event>
<event>
 7    1  0.2642243E-009  0.4778727E+02  0.7816164E-02  0.1312668E+00
        -11   -1    0    0    0    0  0.00000000000E+00  0.00000000000E+00  0.45593999997E+02  0.45594000000E+02  0.51100000000E-03 0.  1.
         11   -1    0    0    0    0 -0.00000000000E+00 -0.00000000000E+00 -0.45593999997E+02  0.45594000000E+02  0.51100000000E-03 0. -1.
    9900012    2    1    2    0    0 -0.92577222564E+01  0.42188112567E+02  0.42521744461E+01  0.47787271310E+02  0.20000001209E+02 0.  0.
        -12    1    1    2    0    0  0.92577222564E+01 -0.42188112567E+02 -0.42521744461E+01  0.43400728690E+02  0.00000000000E+00 0.  1.
         11    1    3    3    0    0  0.31339317190E+01  0.10691714265E+02  0.19800025956E+01  0.11316125330E+02  0.51100000000E-03 0. -1.
        -11    1    3    3    0    0 -0.10168724099E+02  0.11253351712E+02 -0.29413032333E+01  0.15449664706E+02  0.51100000000E-03 0.  1.
        -12    1    3    3    0    0 -0.22229298764E+01  0.20243046590E+02  0.52134750838E+01  0.21021481273E+02  0.00000000000E+00 0.  1.
</event>
<event>
 7    1  0.2642243E-009  0.4778727E+02  0.7816164E-02  0.1312668E+00
        -11   -1    0    0    0    0  0.00000000000E+00  0.00000000000E+00  0.45593999997E+02  0.45594000000E+02  0.51100000000E-03 0.  1.
         11   -1    0    0    0    0 -0.00000000000E+00 -0.00000000000E+00 -0.45593999997E+02  0.45594000000E+02  0.51100000000E-03 0. -1.
    9900012    2    1    2    0    0 -0.37009781829E+02  0.22119707736E+02 -0.49616183201E+01  0.47787273305E+02  0.20000010305E+02 0.  0.
        -12    1    1    2    0    0  0.37009781829E+02 -0.22119707736E+02  0.49616183201E+01  0.43400726695E+02  0.00000000000E+00 0.  1.
         11    1    3    3    0    0 -0.13074882495E+02  0.93195111645E+01 -0.11138867281E+02  0.19541755427E+02  0.51100000000E-03 0. -1.
        -11    1    3    3    0    0 -0.51899871522E+01  0.16753612329E+01  0.29798872211E+01  0.62147027292E+01  0.51100000000E-03 0.  1.
         12    1    3    3    0    0 -0.18744912181E+02  0.11124835338E+02  0.31973617400E+01  0.22030815148E+02  0.00000000000E+00 0. -1.
</event>
<event>
 7    1  0.2642243E-009  0.4778727E+02  0.7816164E-02  0.1312668E+00
        -11   -1    0    0    0    0  0.00000000000E+00  0.00000000000E+00  0.45593999997E+02  0.45594000000E+02  0.51100000000E-03 0. -1.
         11   -1    0    0    0    0 -0.00000000000E+00 -0.00000000000E+00 -0.45593999997E+02  0.45594000000E+02  0.51100000000E-03 0.  1.
    9900012    2    1    2    0    0  0.39487080593E+02 -0.80879610721E+01  0.16092809872E+02  0.47787272153E+02  0.20000005053E+02 0.  0.
        -12    1    1    2    0    0 -0.39487080593E+02  0.80879610721E+01 -0.16092809872E+02  0.43400727847E+02  0.00000000000E+00 0.  1.
         11    1    3    3    0    0  0.23719216329E+02 -0.24032189229E+01  0.19429940808E+01  0.23919697129E+02  0.51100000000E-03 0. -1.
        -11    1    3    3    0    0  0.16424812432E+02 -0.63707835524E+01  0.14538373379E+02  0.22841314482E+02  0.51100000000E-03 0.  1.
        -12    1    3    3    0    0 -0.65694816739E+00  0.68604140314E+00 -0.38855758807E+00  0.10262605423E+01  0.00000000000E+00 0.  1.
</event>
<event>
 7    1  0.2642243E-009  0.4778726E+02  0.7816164E-02  0.1312668E+00
        -11   -1    0    0    0    0  0.00000000000E+00  0.00000000000E+00  0.45593999997E+02  0.45594000000E+02  0.51100000000E-03 0. -1.
         11   -1    0    0    0    0 -0.00000000000E+00 -0.00000000000E+00 -0.45593999997E+02  0.45594000000E+02  0.51100000000E-03 0.  1.
    9900012    2    1    2    0    0  0.26058560660E+02 -0.30685066732E+02  0.16217357756E+02  0.47787255806E+02  0.19999930521E+02 0.  0.
        -12    1    1    2    0    0 -0.26058560660E+02  0.30685066732E+02 -0.16217357756E+02  0.43400744194E+02  0.00000000000E+00 0.  1.
         11    1    3    3    0    0  0.12118253103E+02 -0.27327249588E+01  0.61110842874E+01  0.13844319969E+02  0.51100000000E-03 0. -1.
        -11    1    3    3    0    0  0.61516432211E+01 -0.17020035450E+02  0.96555951917E+01  0.20512309471E+02  0.51100000000E-03 0.  1.
        -12    1    3    3    0    0  0.77886643357E+01 -0.10932306323E+02  0.45067827640E+00  0.13430626366E+02  0.00000000000E+00 0.  1.
</event>
<event>
 7    1  0.2642243E-009  0.4778728E+02  0.7816164E-02  0.1312668E+00
        -11   -1    0    0    0    0  0.00000000000E+00  0.00000000000E+00  0.45593999997E+02  0.45594000000E+02  0.51100000000E-03 0. -1.
         11   -1    0    0    0    0 -0.00000000000E+00 -0.00000000000E+00 -0.45593999997E+02  0.45594000000E+02  0.51100000000E-03 0.  1.
    9900012    2    1    2    0    0  0.26654648542E+02 -0.19137887310E+02  0.28405873642E+02  0.47787277922E+02  0.20000031355E+02 0.  0.
        -12    1    1    2    0    0 -0.26654648542E+02  0.19137887310E+02 -0.28405873642E+02  0.43400722078E+02  0.00000000000E+00 0.  1.
         11    1    3    3    0    0  0.17742707578E+02 -0.11030469732E+02  0.14976745821E+02  0.25705599592E+02  0.51100000000E-03 0. -1.
        -11    1    3    3    0    0 -0.19869265170E+01  0.44012630008E+00 -0.83455743930E+00  0.21995623484E+01  0.51100000000E-03 0.  1.
        -12    1    3    3    0    0  0.10898867480E+02 -0.85475438782E+01  0.14263685260E+02  0.19882115982E+02  0.00000000000E+00 0.  1.
</event>
<event>
 7    1  0.2642243E-009  0.4778727E+02  0.7816164E-02  0.1312668E+00
        -11   -1    0    0    0    0  0.00000000000E+00  0.00000000000E+00  0.45593999997E+02  0.45594000000E+02  0.51100000000E-03 0. -1.
         11   -1    0    0    0    0 -0.00000000000E+00 -0.00000000000E+00 -0.45593999997E+02  0.45594000000E+02  0.51100000000E-03 0.  1.
    9900012    2    1    2    0    0 -0.18839248279E+02 -0.28502095946E+02  0.26764461750E+02  0.47787272336E+02  0.20000005889E+02 0.  0.
        -12    1    1    2    0    0  0.18839248279E+02  0.28502095946E+02 -0.26764461750E+02  0.43400727664E+02  0.00000000000E+00 0.  1.
         11    1    3    3    0    0  0.27744223752E+01 -0.81605966073E+01  0.78924453472E+01  0.11686892244E+02  0.51100000000E-03 0. -1.
        -11    1    3    3    0    0 -0.16860146227E+02 -0.17101006399E+02  0.11165961562E+02  0.26483724219E+02  0.51100000000E-03 0.  1.
        -12    1    3    3    0    0 -0.47535244270E+01 -0.32404929394E+01  0.77060548407E+01  0.96166558728E+01  0.00000000000E+00 0.  1.
</event>
<event>
 7    1  0.2642243E-009  0.4778727E+02  0.7816164E-02  0.1312668E+00
        -11   -1    0    0    0    0  0.00000000000E+00  0.00000000000E+00  0.45593999997E+02  0.45594000000E+02  0.51100000000E-03 0.  1.
         11   -1    0    0    0    0 -0.00000000000E+00 -0.00000000000E+00 -0.45593999997E+02  0.45594000000E+02  0.51100000000E-03 0. -1.
    9900012    2    1    2    0    0 -0.13867773487E+02  0.83373449687E+01 -0.40271537051E+02  0.47787272367E+02  0.20000006031E+02 0.  0.
        -12    1    1    2    0    0  0.13867773487E+02 -0.83373449687E+01  0.40271537051E+02  0.43400727633E+02  0.00000000000E+00 0.  1.
         11    1    3    3    0    0 -0.11332275257E+02  0.74053091562E+01 -0.11509188938E+02  0.17768525444E+02  0.51100000000E-03 0. -1.
        -11    1    3    3    0    0  0.29627715669E+01  0.75189403271E+00 -0.89947198672E+01  0.94999129335E+01  0.51100000000E-03 0.  1.
         12    1    3    3    0    0 -0.54982697967E+01  0.18014177984E+00 -0.19767628246E+02  0.20518833989E+02  0.00000000000E+00 0. -1.
</event>
<event>
 7    1  0.2642243E-009  0.4778727E+02  0.7816164E-02  0.1312668E+00
        -11   -1    0    0    0    0  0.00000000000E+00  0.00000000000E+00  0.45593999997E+02  0.45594000000E+02  0.51100000000E-03 0. -1.
         11   -1    0    0    0    0 -0.00000000000E+00 -0.00000000000E+00 -0.45593999997E+02  0.45594000000E+02  0.51100000000E-03 0.  1.
    9900012    2    1    2    0    0  0.35511831667E+02 -0.18445324446E+02  0.16801876188E+02  0.47787271600E+02  0.20000002531E+02 0.  0.
        -12    1    1    2    0    0 -0.35511831667E+02  0.18445324446E+02 -0.16801876188E+02  0.43400728400E+02  0.00000000000E+00 0.  1.
         11    1    3    3    0    0  0.10987666441E+02  0.28211676453E+01  0.49994316291E+01  0.12396859182E+02  0.51100000000E-03 0. -1.
        -11    1    3    3    0    0  0.56355774866E+01 -0.84422916824E+01  0.61580048662E+01  0.11872364830E+02  0.51100000000E-03 0.  1.
         12    1    3    3    0    0  0.18888587739E+02 -0.12824200409E+02  0.56444396931E+01  0.23518047588E+02  0.00000000000E+00 0. -1.
</event>
<event>
 7    1  0.2642243E-009  0.4778727E+02  0.7816164E-02  0.1312668E+00
        -11   -1    0    0    0    0  0.00000000000E+00  0.00000000000E+00  0.45593999997E+02  0.45594000000E+02  0.51100000000E-03 0.  1.
         11   -1    0    0    0    0 -0.00000000000E+00 -0.00000000000E+00 -0.45593999997E+02  0.45594000000E+02  0.51100000000E-03 0. -1.
    9900012    2    1    2    0    0  0.10183256513E+02 -0.14325128975E+02 -0.39682681789E+02  0.47787271120E+02  0.20000000345E+02 0.  0.
        -12    1    1    2    0    0 -0.10183256513E+02  0.14325128975E+02  0.39682681789E+02  0.43400728880E+02  0.00000000000E+00 0.  1.
         11    1    3    3    0    0  0.86147690329E+01 -0.45501435855E+01 -0.28371159683E+02  0.29997345785E+02  0.51100000000E-03 0. -1.
        -11    1    3    3    0    0 -0.22438580766E+01 -0.53496068631E+01 -0.92608966447E+00  0.58745923250E+01  0.51100000000E-03 0.  1.
         12    1    3    3    0    0  0.38123455565E+01 -0.44253785267E+01 -0.10385432442E+02  0.11915333010E+02  0.00000000000E+00 0. -1.
</event>
<event>
 7    1  0.2642243E-009  0.4778727E+02  0.7816164E-02  0.1312668E+00
        -11   -1    0    0    0    0  0.00000000000E+00  0.00000000000E+00  0.45593999997E+02  0.45594000000E+02  0.51100000000E-03 0. -1.
         11   -1    0    0    0    0 -0.00000000000E+00 -0.00000000000E+00 -0.45593999997E+02  0.45594000000E+02  0.51100000000E-03 0.  1.
    9900012    2    1    2    0    0  0.27429004808E+02  0.33606373945E+02 -0.13727760266E+01  0.47787272028E+02  0.20000004484E+02 0.  0.
        -12    1    1    2    0    0 -0.27429004808E+02 -0.33606373945E+02  0.13727760266E+01  0.43400727972E+02  0.00000000000E+00 0.  1.
         11    1    3    3    0    0  0.19247649643E+02  0.22935757210E+02  0.16700518295E+01  0.29988498611E+02  0.51100000000E-03 0. -1.
        -11    1    3    3    0    0 -0.16466352938E+01  0.61375777086E+01  0.59089902865E+00  0.63820396303E+01  0.51100000000E-03 0.  1.
         12    1    3    3    0    0  0.98279904594E+01  0.45330390260E+01 -0.36337268847E+01  0.11416733787E+02  0.00000000000E+00 0. -1.
</event>
<event>
 7    1  0.2642243E-009  0.4778727E+02  0.7816164E-02  0.1312668E+00
        -11   -1    0    0    0    0  0.00000000000E+00  0.00000000000E+00  0.45593999997E+02  0.45594000000E+02  0.51100000000E-03 0.  1.
         11   -1    0    0    0    0 -0.00000000000E+00 -0.00000000000E+00 -0.45593999997E+02  0.45594000000E+02  0.51100000000E-03 0. -1.
    9900012    2    1    2    0    0 -0.24100189024E+00  0.11734414571E+02 -0.41783595575E+02  0.47787269287E+02  0.19999991988E+02 0.  0.
        -12    1    1    2    0    0  0.24100189024E+00 -0.11734414571E+02  0.41783595575E+02  0.43400730713E+02  0.00000000000E+00 0.  1.
         11    1    3    3    0    0  0.39134106891E+01  0.36817908827E+01 -0.26588077347E+02  0.27125564042E+02  0.51100000000E-03 0. -1.
        -11    1    3    3    0    0  0.56580550258E+00  0.34406455084E+01  0.60450330587E+00  0.35388701430E+01  0.51100000000E-03 0.  1.
        -12    1    3    3    0    0 -0.47202180819E+01  0.46119781801E+01 -0.15800021534E+02  0.17122835102E+02  0.00000000000E+00 0.  1.
</event>
<event>
 7    1  0.2642243E-009  0.4778727E+02  0.7816164E-02  0.1312668E+00
        -11   -1    0    0    0    0  0.00000000000E+00  0.00000000000E+00  0.45593999997E+02  0.45594000000E+02  0.51100000000E-03 0. -1.
         11   -1    0    0    0    0 -0.00000000000E+00 -0.00000000000E+00 -0.45593999997E+02  0.45594000000E+02  0.51100000000E-03 0.  1.
    9900012    2    1    2    0    0 -0.37355423850E+02 -0.19781203820E+02  0.98437565846E+01  0.47787271213E+02  0.20000000768E+02 0.  0.
        -12    1    1    2    0    0  0.37355423850E+02  0.19781203820E+02 -0.98437565846E+01  0.43400728787E+02  0.00000000000E+00 0.  1.
         11    1    3    3    0    0 -0.23033770033E+02 -0.17972408400E+02  0.60028044944E+01  0.29826090720E+02  0.51100000000E-03 0. -1.
        -11    1    3    3    0    0 -0.58735754254E+01  0.12389687931E+01  0.62467801085E+01  0.86634977886E+01  0.51100000000E-03 0.  1.
        -12    1    3    3    0    0 -0.84480783914E+01 -0.30477642136E+01 -0.24058280183E+01  0.92976827039E+01  0.00000000000E+00 0.  1.
</event>
<event>
 7    1  0.2642243E-009  0.4778727E+02  0.7816164E-02  0.1312668E+00
        -11   -1    0    0    0    0  0.00000000000E+00  0.00000000000E+00  0.45593999997E+02  0.45594000000E+02  0.51100000000E-03 0. -1.
         11   -1    0    0    0    0 -0.00000000000E+00 -0.00000000000E+00 -0.45593999997E+02  0.45594000000E+02  0.51100000000E-03 0.  1.
    9900012    2    1    2    0    0  0.42781776221E+02  0.45039674162E+01  0.57495485140E+01  0.47787269508E+02  0.19999992997E+02 0.  0.
        -12    1    1    2    0    0 -0.42781776221E+02 -0.45039674162E+01 -0.57495485140E+01  0.43400730492E+02  0.00000000000E+00 0.  1.
         11    1    3    3    0    0  0.17717923582E+02  0.68860412878E+01 -0.36651759451E+01  0.19359129516E+02  0.51100000000E-03 0.  1.
        -11    1    3    3    0    0  0.19728428163E+02 -0.41361170776E+01  0.38497605871E+01  0.20521671450E+02  0.51100000000E-03 0. -1.
         12    1    3    3    0    0  0.53354244758E+01  0.17540432061E+01  0.55649638721E+01  0.79064685419E+01  0.00000000000E+00 0. -1.
</event>
<event>
 7    1  0.2642243E-009  0.4778727E+02  0.7816164E-02  0.1312668E+00
        -11   -1    0    0    0    0  0.00000000000E+00  0.00000000000E+00  0.45593999997E+02  0.45594000000E+02  0.51100000000E-03 0. -1.
         11   -1    0    0    0    0 -0.00000000000E+00 -0.00000000000E+00 -0.45593999997E+02  0.45594000000E+02  0.51100000000E-03 0.  1.
    9900012    2    1    2    0    0  0.14471061071E+02 -0.91898131716E+01  0.39871786217E+02  0.47787267163E+02  0.19999982304E+02 0.  0.
        -12    1    1    2    0    0 -0.14471061071E+02  0.91898131716E+01 -0.39871786217E+02  0.43400732837E+02  0.00000000000E+00 0.  1.
         11    1    3    3    0    0  0.12884895962E+02 -0.11366539267E+01  0.20046112724E+02  0.23857056853E+02  0.51100000000E-03 0. -1.
        -11    1    3    3    0    0 -0.15905608889E+01 -0.34948067309E+01  0.17484255654E+02  0.17900914895E+02  0.51100000000E-03 0.  1.
         12    1    3    3    0    0  0.31767259980E+01 -0.45583525140E+01  0.23414178384E+01  0.60292954150E+01  0.00000000000E+00 0. -1.
</event>
<event>
 7    1  0.2642243E-009  0.4778725E+02  0.7816164E-02  0.1312668E+00
        -11   -1    0    0    0    0  0.00000000000E+00  0.00000000000E+00  0.45593999997E+02  0.45594000000E+02  0.51100000000E-03 0. -1.
         11   -1    0    0    0    0 -0.00000000000E+00 -0.00000000000E+00 -0.45593999997E+02  0.45594000000E+02  0.51100000000E-03 0.  1.
    9900012    2    1    2    0    0  0.28586986589E+02  0.32650352352E+02  0.60304241727E+00  0.47787251492E+02  0.19999910851E+02 0.  0.
        -12    1    1    2    0    0 -0.28586986589E+02 -0.32650352352E+02 -0.60304241727E+00  0.43400748508E+02  0.00000000000E+00 0.  1.
         11    1    3    3    0    0  0.77412827726E+01  0.10615191933E+02  0.16757099112E+01  0.13244537089E+02  0.51100000000E-03 0. -1.
        -11    1    3    3    0    0  0.11627195575E+02  0.55479252750E+01  0.62055304392E+01  0.14299641957E+02  0.51100000000E-03 0.  1.
        -12    1    3    3    0    0  0.92185082406E+01  0.16487235144E+02 -0.72781979332E+01  0.20243072445E+02  0.00000000000E+00 0.  1.
</event>
<event>
 7    1  0.2642243E-009  0.4778727E+02  0.7816164E-02  0.1312668E+00
        -11   -1    0    0    0    0  0.00000000000E+00  0.00000000000E+00  0.45593999997E+02  0.45594000000E+02  0.51100000000E-03 0.  1.
         11   -1    0    0    0    0 -0.00000000000E+00 -0.00000000000E+00 -0.45593999997E+02  0.45594000000E+02  0.51100000000E-03 0. -1.
    9900012    2    1    2    0    0  0.16927675402E+02 -0.72622914783E+01 -0.39298043712E+02  0.47787270609E+02  0.19999998016E+02 0.  0.
        -12    1    1    2    0    0 -0.16927675402E+02  0.72622914783E+01  0.39298043712E+02  0.43400729391E+02  0.00000000000E+00 0.  1.
         11    1    3    3    0    0  0.13390076279E+02 -0.23596622272E+01 -0.14553834696E+02  0.19916732995E+02  0.51100000000E-03 0. -1.
        -11    1    3    3    0    0 -0.18565991867E+01  0.28088916332E+01 -0.76201449935E+01  0.83308728672E+01  0.51100000000E-03 0.  1.
        -12    1    3    3    0    0  0.53941983099E+01 -0.77115208844E+01 -0.17124064023E+02  0.19539664747E+02  0.00000000000E+00 0.  1.
</event>
<event>
 7    1  0.2642243E-009  0.4778727E+02  0.7816164E-02  0.1312668E+00
        -11   -1    0    0    0    0  0.00000000000E+00  0.00000000000E+00  0.45593999997E+02  0.45594000000E+02  0.51100000000E-03 0.  1.
         11   -1    0    0    0    0 -0.00000000000E+00 -0.00000000000E+00 -0.45593999997E+02  0.45594000000E+02  0.51100000000E-03 0. -1.
    9900012    2    1    2    0    0  0.12947799660E+02 -0.13081977507E+02 -0.39304450729E+02  0.47787268455E+02  0.19999988194E+02 0.  0.
        -12    1    1    2    0    0 -0.12947799660E+02  0.13081977507E+02  0.39304450729E+02  0.43400731545E+02  0.00000000000E+00 0.  1.
         11    1    3    3    0    0  0.36019614316E+01 -0.67072796182E+01 -0.21067953092E+02  0.22401347589E+02  0.51100000000E-03 0. -1.
        -11    1    3    3    0    0  0.31491898825E+01  0.40241218876E+01 -0.29976636640E+01  0.59242671771E+01  0.51100000000E-03 0.  1.
        -12    1    3    3    0    0  0.61966483459E+01 -0.10398819776E+02 -0.15238833973E+02  0.19461653689E+02  0.00000000000E+00 0.  1.
</event>
<event>
 7    1  0.2642243E-009  0.4778727E+02  0.7816164E-02  0.1312668E+00
        -11   -1    0    0    0    0  0.00000000000E+00  0.00000000000E+00  0.45593999997E+02  0.45594000000E+02  0.51100000000E-03 0.  1.
         11   -1    0    0    0    0 -0.00000000000E+00 -0.00000000000E+00 -0.45593999997E+02  0.45594000000E+02  0.51100000000E-03 0. -1.
    9900012    2    1    2    0    0  0.35361651281E+02  0.20196211465E+02 -0.15009655764E+02  0.47787272990E+02  0.20000008872E+02 0.  0.
        -12    1    1    2    0    0 -0.35361651281E+02 -0.20196211465E+02  0.15009655764E+02  0.43400727010E+02  0.00000000000E+00 0.  1.
         11    1    3    3    0    0  0.13623531909E+02  0.20895812840E+01  0.20298917608E+01  0.13931526565E+02  0.51100000000E-03 0.  1.
        -11    1    3    3    0    0  0.61221232586E+01  0.17489156218E+01 -0.19127566343E+01  0.66481378783E+01  0.51100000000E-03 0. -1.
         12    1    3    3    0    0  0.15615996113E+02  0.16357714559E+02 -0.15126790890E+02  0.27207608547E+02  0.00000000000E+00 0. -1.
</event>
<event>
 7    1  0.2642243E-009  0.4778727E+02  0.7816164E-02  0.1312668E+00
        -11   -1    0    0    0    0  0.00000000000E+00  0.00000000000E+00  0.45593999997E+02  0.45594000000E+02  0.51100000000E-03 0.  1.
         11   -1    0    0    0    0 -0.00000000000E+00 -0.00000000000E+00 -0.45593999997E+02  0.45594000000E+02  0.51100000000E-03 0. -1.
    9900012    2    1    2    0    0  0.26418320150E+02 -0.24121516167E+02 -0.24573324395E+02  0.47787268974E+02  0.19999990561E+02 0.  0.
        -12    1    1    2    0    0 -0.26418320150E+02  0.24121516167E+02  0.24573324395E+02  0.43400731026E+02  0.00000000000E+00 0.  1.
         11    1    3    3    0    0  0.16206765111E+02 -0.16571911005E+02 -0.10430227981E+02  0.25418047244E+02  0.51100000000E-03 0. -1.
        -11    1    3    3    0    0  0.94635233551E+01 -0.84345252742E+00 -0.11965438830E+02  0.15278789648E+02  0.51100000000E-03 0.  1.
         12    1    3    3    0    0  0.74803168414E+00 -0.67061526341E+01 -0.21776575850E+01  0.70904320821E+01  0.00000000000E+00 0. -1.
</event>
<event>
 7    1  0.2642243E-009  0.4778727E+02  0.7816164E-02  0.1312668E+00
        -11   -1    0    0    0    0  0.00000000000E+00  0.00000000000E+00  0.45593999997E+02  0.45594000000E+02  0.51100000000E-03 0.  1.
         11   -1    0    0    0    0 -0.00000000000E+00 -0.00000000000E+00 -0.45593999997E+02  0.45594000000E+02  0.51100000000E-03 0. -1.
    9900012    2    1    2    0    0  0.33477976286E+02 -0.27619671851E+02  0.42699209932E-01  0.47787274285E+02  0.20000014773E+02 0.  0.
        -12    1    1    2    0    0 -0.33477976286E+02  0.27619671851E+02 -0.42699209932E-01  0.43400725715E+02  0.00000000000E+00 0.  1.
         11    1    3    3    0    0  0.21120413209E+02 -0.18179197731E+02  0.62644969395E+01  0.28562195406E+02  0.51100000000E-03 0. -1.
        -11    1    3    3    0    0  0.39730953038E+01 -0.77988611431E+00  0.21157169317E+01  0.45683659048E+01  0.51100000000E-03 0.  1.
         12    1    3    3    0    0  0.83844677734E+01 -0.86605880062E+01 -0.83375146613E+01  0.14656712973E+02  0.00000000000E+00 0. -1.
</event>
<event>
 7    1  0.2642243E-009  0.4778727E+02  0.7816164E-02  0.1312668E+00
        -11   -1    0    0    0    0  0.00000000000E+00  0.00000000000E+00  0.45593999997E+02  0.45594000000E+02  0.51100000000E-03 0.  1.
         11   -1    0    0    0    0 -0.00000000000E+00 -0.00000000000E+00 -0.45593999997E+02  0.45594000000E+02  0.51100000000E-03 0. -1.
    9900012    2    1    2    0    0  0.14524508762E+02  0.82445342453E+01 -0.40058580058E+02  0.47787268025E+02  0.19999986233E+02 0.  0.
        -12    1    1    2    0    0 -0.14524508762E+02 -0.82445342453E+01  0.40058580058E+02  0.43400731975E+02  0.00000000000E+00 0.  1.
         11    1    3    3    0    0  0.64111050331E+01  0.98679568926E+01 -0.14142404031E+02  0.18398000789E+02  0.51100000000E-03 0. -1.
        -11    1    3    3    0    0  0.37256634673E+01 -0.63478791736E+01 -0.15067350007E+02  0.16769054081E+02  0.51100000000E-03 0.  1.
        -12    1    3    3    0    0  0.43877402618E+01  0.47244565264E+01 -0.10848826020E+02  0.12620213155E+02  0.00000000000E+00 0.  1.
</event>
<event>
 7    1  0.2642243E-009  0.4778727E+02  0.7816164E-02  0.1312668E+00
        -11   -1    0    0    0    0  0.00000000000E+00  0.00000000000E+00  0.45593999997E+02  0.45594000000E+02  0.51100000000E-03 0.  1.
         11   -1    0    0    0    0 -0.00000000000E+00 -0.00000000000E+00 -0.45593999997E+02  0.45594000000E+02  0.51100000000E-03 0. -1.
    9900012    2    1    2    0    0 -0.23678345188E+02  0.31286965621E+02 -0.18549539325E+02  0.47787266622E+02  0.19999979834E+02 0.  0.
        -12    1    1    2    0    0  0.23678345188E+02 -0.31286965621E+02  0.18549539325E+02  0.43400733378E+02  0.00000000000E+00 0.  1.
         11    1    3    3    0    0 -0.12239941790E+02  0.22449762319E+02 -0.19709929160E+02  0.32284505741E+02  0.51100000000E-03 0. -1.
        -11    1    3    3    0    0 -0.11639810711E+02  0.88020894600E+01  0.27681513438E+00  0.14595841844E+02  0.51100000000E-03 0.  1.
        -12    1    3    3    0    0  0.20140731272E+00  0.35113842698E-01  0.88357470088E+00  0.90691903696E+00  0.00000000000E+00 0.  1.
</event>
<event>
 7    1  0.2642243E-009  0.4778728E+02  0.7816164E-02  0.1312668E+00
        -11   -1    0    0    0    0  0.00000000000E+00  0.00000000000E+00  0.45593999997E+02  0.45594000000E+02  0.51100000000E-03 0.  1.
         11   -1    0    0    0    0 -0.00000000000E+00 -0.00000000000E+00 -0.45593999997E+02  0.45594000000E+02  0.51100000000E-03 0. -1.
    9900012    2    1    2    0    0  0.15242676824E+02  0.40581142148E+02 -0.21104506186E+01  0.47787282303E+02  0.20000051333E+02 0.  0.
        -12    1    1    2    0    0 -0.15242676824E+02 -0.40581142148E+02  0.21104506186E+01  0.43400717697E+02  0.00000000000E+00 0.  1.
         11    1    3    3    0    0  0.57690144012E+01  0.12474903779E+02  0.60939219860E+01  0.15034647881E+02  0.51100000000E-03 0. -1.
        -11    1    3    3    0    0  0.93537617924E+01  0.11994681572E+02 -0.65325167195E+01  0.16554123977E+02  0.51100000000E-03 0.  1.
        -12    1    3    3    0    0  0.11990063040E+00  0.16111556796E+02 -0.16718558851E+01  0.16198510446E+02  0.00000000000E+00 0.  1.
</event>
<event>
 7    1  0.2642243E-009  0.4778727E+02  0.7816164E-02  0.1312668E+00
        -11   -1    0    0    0    0  0.00000000000E+00  0.00000000000E+00  0.45593999997E+02  0.45594000000E+02  0.51100000000E-03 0.  1.
         11   -1    0    0    0    0 -0.00000000000E+00 -0.00000000000E+00 -0.45593999997E+02  0.45594000000E+02  0.51100000000E-03 0. -1.
    9900012    2    1    2    0    0  0.26623102565E+02 -0.28723181763E+02 -0.18703281659E+02  0.47787268375E+02  0.19999987828E+02 0.  0.
        -12    1    1    2    0    0 -0.26623102565E+02  0.28723181763E+02  0.18703281659E+02  0.43400731625E+02  0.00000000000E+00 0.  1.
         11    1    3    3    0    0  0.45774362913E+01 -0.35759664589E+01 -0.56048298539E+01  0.80718385185E+01  0.51100000000E-03 0. -1.
        -11    1    3    3    0    0 -0.58070065507E+00 -0.10015801870E+02 -0.55639484792E+01  0.11472184765E+02  0.51100000000E-03 0.  1.
        -12    1    3    3    0    0  0.22626366929E+02 -0.15131413435E+02 -0.75345033258E+01  0.28243245091E+02  0.00000000000E+00 0.  1.
</event>
<event>
 7    1  0.2642243E-009  0.4778730E+02  0.7816164E-02  0.1312668E+00
        -11   -1    0    0    0    0  0.00000000000E+00  0.00000000000E+00  0.45593999997E+02  0.45594000000E+02  0.51100000000E-03 0.  1.
         11   -1    0    0    0    0 -0.00000000000E+00 -0.00000000000E+00 -0.45593999997E+02  0.45594000000E+02  0.51100000000E-03 0. -1.
    9900012    2    1    2    0    0 -0.11403102531E+02  0.41758441508E+02  0.31341489647E+01  0.47787296385E+02  0.20000115540E+02 0.  0.
        -12    1    1    2    0    0  0.11403102531E+02 -0.41758441508E+02 -0.31341489647E+01  0.43400703615E+02  0.00000000000E+00 0.  1.
         11    1    3    3    0    0 -0.93472928283E+01  0.36452827950E+02  0.20417309872E+01  0.37687520673E+02  0.51100000000E-03 0. -1.
        -11    1    3    3    0    0  0.25111900344E+01 -0.31482945076E+00  0.13195562575E+01  0.28541937478E+01  0.51100000000E-03 0.  1.
        -12    1    3    3    0    0 -0.45669997374E+01  0.56204430088E+01 -0.22713827996E+00  0.72455819652E+01  0.00000000000E+00 0.  1.
</event>
<event>
 7    1  0.2642243E-009  0.4778726E+02  0.7816164E-02  0.1312668E+00
        -11   -1    0    0    0    0  0.00000000000E+00  0.00000000000E+00  0.45593999997E+02  0.45594000000E+02  0.51100000000E-03 0. -1.
         11   -1    0    0    0    0 -0.00000000000E+00 -0.00000000000E+00 -0.45593999997E+02  0.45594000000E+02  0.51100000000E-03 0.  1.
    9900012    2    1    2    0    0  0.31752897759E+02  0.12233553632E+02  0.26939149380E+02  0.47787261298E+02  0.19999955562E+02 0.  0.
        -12    1    1    2    0    0 -0.31752897759E+02 -0.12233553632E+02 -0.26939149380E+02  0.43400738702E+02  0.00000000000E+00 0.  1.
         11    1    3    3    0    0  0.84487919209E+01  0.10974351856E+02  0.15007844779E+02  0.20421897285E+02  0.51100000000E-03 0. -1.
        -11    1    3    3    0    0  0.90940941869E+01 -0.17050957929E+01  0.12358836211E+01  0.93347367038E+01  0.51100000000E-03 0.  1.
         12    1    3    3    0    0  0.14210011651E+02  0.29642975690E+01  0.10695420981E+02  0.18030627309E+02  0.00000000000E+00 0. -1.
</event>
<event>
 7    1  0.2642243E-009  0.4778726E+02  0.7816164E-02  0.1312668E+00
        -11   -1    0    0    0    0  0.00000000000E+00  0.00000000000E+00  0.45593999997E+02  0.45594000000E+02  0.51100000000E-03 0. -1.
         11   -1    0    0    0    0 -0.00000000000E+00 -0.00000000000E+00 -0.45593999997E+02  0.45594000000E+02  0.51100000000E-03 0.  1.
    9900012    2    1    2    0    0  0.23580661095E+02 -0.17558777018E+02  0.31925940878E+02  0.47787263497E+02  0.19999965588E+02 0.  0.
        -12    1    1    2    0    0 -0.23580661095E+02  0.17558777018E+02 -0.31925940878E+02  0.43400736503E+02  0.00000000000E+00 0.  1.
         11    1    3    3    0    0  0.11359809959E+01  0.75753977309E+00  0.20378082084E+01  0.24529537065E+01  0.51100000000E-03 0. -1.
        -11    1    3    3    0    0  0.46304560171E-01  0.53360363992E+00  0.98360286020E+01  0.98506007877E+01  0.51100000000E-03 0.  1.
        -12    1    3    3    0    0  0.22398375539E+02 -0.18849920431E+02  0.20052104068E+02  0.35483709003E+02  0.00000000000E+00 0.  1.
</event>
<event>
 7    1  0.2642243E-009  0.4778727E+02  0.7816164E-02  0.1312668E+00
        -11   -1    0    0    0    0  0.00000000000E+00  0.00000000000E+00  0.45593999997E+02  0.45594000000E+02  0.51100000000E-03 0. -1.
         11   -1    0    0    0    0 -0.00000000000E+00 -0.00000000000E+00 -0.45593999997E+02  0.45594000000E+02  0.51100000000E-03 0.  1.
    9900012    2    1    2    0    0  0.38483087667E+02 -0.16562388565E+02  0.11329728543E+02  0.47787268437E+02  0.19999988110E+02 0.  0.
        -12    1    1    2    0    0 -0.38483087667E+02  0.16562388565E+02 -0.11329728543E+02  0.43400731563E+02  0.00000000000E+00 0.  1.
         11    1    3    3    0    0  0.38919378589E+02 -0.16143036491E+02  0.13437584266E+02  0.44225381039E+02  0.51100000000E-03 0. -1.
        -11    1    3    3    0    0  0.76427146136E-01 -0.23063072037E+00 -0.27260559570E+01  0.27368618854E+01  0.51100000000E-03 0.  1.
         12    1    3    3    0    0 -0.51271806772E+00 -0.18872135365E+00  0.61820023399E+00  0.82502551209E+00  0.00000000000E+00 0. -1.
</event>
<event>
 7    1  0.2642243E-009  0.4778728E+02  0.7816164E-02  0.1312668E+00
        -11   -1    0    0    0    0  0.00000000000E+00  0.00000000000E+00  0.45593999997E+02  0.45594000000E+02  0.51100000000E-03 0.  1.
         11   -1    0    0    0    0 -0.00000000000E+00 -0.00000000000E+00 -0.45593999997E+02  0.45594000000E+02  0.51100000000E-03 0. -1.
    9900012    2    1    2    0    0 -0.20011589182E+02  0.34710812291E+02  0.16682882043E+02  0.47787277140E+02  0.20000027791E+02 0.  0.
        -12    1    1    2    0    0  0.20011589182E+02 -0.34710812291E+02 -0.16682882043E+02  0.43400722860E+02  0.00000000000E+00 0.  1.
         11    1    3    3    0    0 -0.50090066250E+00  0.71782587403E+01 -0.31086174502E+01  0.78384821700E+01  0.51100000000E-03 0. -1.
        -11    1    3    3    0    0 -0.49958229809E+01  0.10859775092E+02  0.10711747482E+02  0.16050996750E+02  0.51100000000E-03 0.  1.
         12    1    3    3    0    0 -0.14514865538E+02  0.16672778459E+02  0.90797520120E+01  0.23897798220E+02  0.00000000000E+00 0. -1.
</event>
<event>
 7    1  0.2642243E-009  0.4778727E+02  0.7816164E-02  0.1312668E+00
        -11   -1    0    0    0    0  0.00000000000E+00  0.00000000000E+00  0.45593999997E+02  0.45594000000E+02  0.51100000000E-03 0.  1.
         11   -1    0    0    0    0 -0.00000000000E+00 -0.00000000000E+00 -0.45593999997E+02  0.45594000000E+02  0.51100000000E-03 0. -1.
    9900012    2    1    2    0    0  0.19954500124E+02  0.13390646647E+02 -0.36140444732E+02  0.47787271455E+02  0.20000001871E+02 0.  0.
        -12    1    1    2    0    0 -0.19954500124E+02 -0.13390646647E+02  0.36140444732E+02  0.43400728545E+02  0.00000000000E+00 0.  1.
         11    1    3    3    0    0 -0.19582153424E+01  0.22236991583E+01 -0.61822982518E+01  0.68556733592E+01  0.51100000000E-03 0.  1.
        -11    1    3    3    0    0  0.22313949416E+02  0.73487024325E+01 -0.22430515684E+02  0.32481437778E+02  0.51100000000E-03 0. -1.
         12    1    3    3    0    0 -0.40123395005E+00  0.38182450560E+01 -0.75276307965E+01  0.84501603179E+01  0.00000000000E+00 0. -1.
</event>
<event>
 7    1  0.2642243E-009  0.4778727E+02  0.7816164E-02  0.1312668E+00
        -11   -1    0    0    0    0  0.00000000000E+00  0.00000000000E+00  0.45593999997E+02  0.45594000000E+02  0.51100000000E-03 0.  1.
         11   -1    0    0    0    0 -0.00000000000E+00 -0.00000000000E+00 -0.45593999997E+02  0.45594000000E+02  0.51100000000E-03 0. -1.
    9900012    2    1    2    0    0  0.20777874080E+02  0.10770873529E+02 -0.36549853431E+02  0.47787267821E+02  0.19999985301E+02 0.  0.
        -12    1    1    2    0    0 -0.20777874080E+02 -0.10770873529E+02  0.36549853431E+02  0.43400732179E+02  0.00000000000E+00 0.  1.
         11    1    3    3    0    0  0.74392679181E+00 -0.42297772285E+01 -0.44576190343E+01  0.61898958141E+01  0.51100000000E-03 0. -1.
        -11    1    3    3    0    0  0.74721569859E+01  0.10966184025E+02 -0.15838830925E+02  0.20662983507E+02  0.51100000000E-03 0.  1.
         12    1    3    3    0    0  0.12561790302E+02  0.40344667326E+01 -0.16253403472E+02  0.20934388500E+02  0.00000000000E+00 0. -1.
</event>
<event>
 7    1  0.2642243E-009  0.4778727E+02  0.7816164E-02  0.1312668E+00
        -11   -1    0    0    0    0  0.00000000000E+00  0.00000000000E+00  0.45593999997E+02  0.45594000000E+02  0.51100000000E-03 0.  1.
         11   -1    0    0    0    0 -0.00000000000E+00 -0.00000000000E+00 -0.45593999997E+02  0.45594000000E+02  0.51100000000E-03 0. -1.
    9900012    2    1    2    0    0  0.12047824698E+00 -0.33963122154E+02 -0.27020642461E+02  0.47787270738E+02  0.19999998603E+02 0.  0.
        -12    1    1    2    0    0 -0.12047824698E+00  0.33963122154E+02  0.27020642461E+02  0.43400729262E+02  0.00000000000E+00 0.  1.
         11    1    3    3    0    0 -0.61668616871E+01 -0.22961694645E+02 -0.17639103092E+02  0.29604181498E+02  0.51100000000E-03 0. -1.
        -11    1    3    3    0    0  0.69692881918E+01 -0.11435574708E+02 -0.59440067897E+01  0.14651776813E+02  0.51100000000E-03 0.  1.
         12    1    3    3    0    0 -0.68194825772E+00  0.43414719893E+00 -0.34375325802E+01  0.35313124269E+01  0.00000000000E+00 0. -1.
</event>
<event>
 7    1  0.2642243E-009  0.4778729E+02  0.7816164E-02  0.1312668E+00
        -11   -1    0    0    0    0  0.00000000000E+00  0.00000000000E+00  0.45593999997E+02  0.45594000000E+02  0.51100000000E-03 0. -1.
         11   -1    0    0    0    0 -0.00000000000E+00 -0.00000000000E+00 -0.45593999997E+02  0.45594000000E+02  0.51100000000E-03 0.  1.
    9900012    2    1    2    0    0 -0.26215853847E+02 -0.16919768656E+02  0.30167407204E+02  0.47787285470E+02  0.20000065772E+02 0.  0.
        -12    1    1    2    0    0  0.26215853847E+02  0.16919768656E+02 -0.30167407204E+02  0.43400714530E+02  0.00000000000E+00 0.  1.
         11    1    3    3    0    0 -0.90314589484E+01 -0.12136852211E+02  0.49461453999E+01  0.15916494178E+02  0.51100000000E-03 0. -1.
        -11    1    3    3    0    0 -0.20302169906E+01 -0.13242777706E+01  0.22322809368E+00  0.24341987769E+01  0.51100000000E-03 0.  1.
         12    1    3    3    0    0 -0.15154177908E+02 -0.34586386742E+01  0.24998033710E+02  0.29436592515E+02  0.00000000000E+00 0. -1.
</event>
<event>
 7    1  0.2642243E-009  0.4778727E+02  0.7816164E-02  0.1312668E+00
        -11   -1    0    0    0    0  0.00000000000E+00  0.00000000000E+00  0.45593999997E+02  0.45594000000E+02  0.51100000000E-03 0.  1.
         11   -1    0    0    0    0 -0.00000000000E+00 -0.00000000000E+00 -0.45593999997E+02  0.45594000000E+02  0.51100000000E-03 0. -1.
    9900012    2    1    2    0    0 -0.37543165914E+02 -0.13001059169E+02 -0.17467306154E+02  0.47787266934E+02  0.19999981260E+02 0.  0.
        -12    1    1    2    0    0  0.37543165914E+02  0.13001059169E+02  0.17467306154E+02  0.43400733066E+02  0.00000000000E+00 0.  1.
         11    1    3    3    0    0 -0.27155429936E+02 -0.45777929737E+01 -0.62520163712E+01  0.28239356800E+02  0.51100000000E-03 0. -1.
        -11    1    3    3    0    0 -0.56162943875E+01 -0.83683010395E+01 -0.38846050613E+01  0.10800989847E+02  0.51100000000E-03 0.  1.
         12    1    3    3    0    0 -0.47714415907E+01 -0.54965155675E-01 -0.73306847217E+01  0.87469202872E+01  0.00000000000E+00 0. -1.
</event>
<event>
 7    1  0.2642243E-009  0.4778727E+02  0.7816164E-02  0.1312668E+00
        -11   -1    0    0    0    0  0.00000000000E+00  0.00000000000E+00  0.45593999997E+02  0.45594000000E+02  0.51100000000E-03 0.  1.
         11   -1    0    0    0    0 -0.00000000000E+00 -0.00000000000E+00 -0.45593999997E+02  0.45594000000E+02  0.51100000000E-03 0. -1.
    9900012    2    1    2    0    0 -0.12515730190E+01 -0.13923240963E+02 -0.41087712262E+02  0.47787272208E+02  0.20000005304E+02 0.  0.
        -12    1    1    2    0    0  0.12515730190E+01  0.13923240963E+02  0.41087712262E+02  0.43400727792E+02  0.00000000000E+00 0.  1.
         11    1    3    3    0    0 -0.31318314737E+01 -0.13355210599E+02 -0.26527706787E+02  0.29864514832E+02  0.51100000000E-03 0. -1.
        -11    1    3    3    0    0  0.12601672329E+01  0.28477493160E+01 -0.16873661781E+00  0.31186807995E+01  0.51100000000E-03 0.  1.
         12    1    3    3    0    0  0.62009122180E+00 -0.34157796802E+01 -0.14391268857E+02  0.14804076576E+02  0.00000000000E+00 0. -1.
</event>
<event>
 7    1  0.2642243E-009  0.4778727E+02  0.7816164E-02  0.1312668E+00
        -11   -1    0    0    0    0  0.00000000000E+00  0.00000000000E+00  0.45593999997E+02  0.45594000000E+02  0.51100000000E-03 0. -1.
         11   -1    0    0    0    0 -0.00000000000E+00 -0.00000000000E+00 -0.45593999997E+02  0.45594000000E+02  0.51100000000E-03 0.  1.
    9900012    2    1    2    0    0 -0.34857642647E+02  0.23854313795E+02  0.99769644504E+01  0.47787270085E+02  0.19999995624E+02 0.  0.
        -12    1    1    2    0    0  0.34857642647E+02 -0.23854313795E+02 -0.99769644504E+01  0.43400729915E+02  0.00000000000E+00 0.  1.
         11    1    3    3    0    0 -0.28908126133E+02  0.15649246365E+02  0.82696076914E+01  0.33896387417E+02  0.51100000000E-03 0. -1.
        -11    1    3    3    0    0 -0.30156419341E+01 -0.16953820695E+01  0.43316010033E+00  0.34865519600E+01  0.51100000000E-03 0.  1.
         12    1    3    3    0    0 -0.29338745798E+01  0.99004494994E+01  0.12741966586E+01  0.10404330707E+02  0.00000000000E+00 0. -1.
</event>
<event>
 7    1  0.2642243E-009  0.4778727E+02  0.7816164E-02  0.1312668E+00
        -11   -1    0    0    0    0  0.00000000000E+00  0.00000000000E+00  0.45593999997E+02  0.45594000000E+02  0.51100000000E-03 0.  1.
         11   -1    0    0    0    0 -0.00000000000E+00 -0.00000000000E+00 -0.45593999997E+02  0.45594000000E+02  0.51100000000E-03 0. -1.
    9900012    2    1    2    0    0 -0.36857746810E+02  0.14668070078E+02 -0.17606171048E+02  0.47787273753E+02  0.20000012351E+02 0.  0.
        -12    1    1    2    0    0  0.36857746810E+02 -0.14668070078E+02  0.17606171048E+02  0.43400726247E+02  0.00000000000E+00 0.  1.
         11    1    3    3    0    0 -0.25137075379E+02  0.76222384110E+01 -0.19011230371E+02  0.32425267270E+02  0.51100000000E-03 0. -1.
        -11    1    3    3    0    0 -0.70866927885E+01  0.81415275073E+00 -0.10660610082E+01  0.72125269992E+01  0.51100000000E-03 0.  1.
         12    1    3    3    0    0 -0.46339786428E+01  0.62316789162E+01  0.24711203314E+01  0.81494794845E+01  0.00000000000E+00 0. -1.
</event>
<event>
 7    1  0.2642243E-009  0.4778727E+02  0.7816164E-02  0.1312668E+00
        -11   -1    0    0    0    0  0.00000000000E+00  0.00000000000E+00  0.45593999997E+02  0.45594000000E+02  0.51100000000E-03 0.  1.
         11   -1    0    0    0    0 -0.00000000000E+00 -0.00000000000E+00 -0.45593999997E+02  0.45594000000E+02  0.51100000000E-03 0. -1.
    9900012    2    1    2    0    0 -0.13988963403E+02 -0.25676006574E+02 -0.32072959708E+02  0.47787272413E+02  0.20000006239E+02 0.  0.
        -12    1    1    2    0    0  0.13988963403E+02  0.25676006574E+02  0.32072959708E+02  0.43400727587E+02  0.00000000000E+00 0.  1.
         11    1    3    3    0    0 -0.10171234425E+02 -0.14966455892E+02 -0.16143960548E+02  0.24250284001E+02  0.51100000000E-03 0. -1.
        -11    1    3    3    0    0  0.47913894739E+01 -0.53615264343E+01 -0.64178465158E+01  0.96380564928E+01  0.51100000000E-03 0.  1.
         12    1    3    3    0    0 -0.86091184519E+01 -0.53480242473E+01 -0.95111526439E+01  0.13898931919E+02  0.00000000000E+00 0. -1.
</event>
<event>
 7    1  0.2642243E-009  0.4778729E+02  0.7816164E-02  0.1312668E+00
        -11   -1    0    0    0    0  0.00000000000E+00  0.00000000000E+00  0.45593999997E+02  0.45594000000E+02  0.51100000000E-03 0.  1.
         11   -1    0    0    0    0 -0.00000000000E+00 -0.00000000000E+00 -0.45593999997E+02  0.45594000000E+02  0.51100000000E-03 0. -1.
    9900012    2    1    2    0    0 -0.97317515723E+01  0.13697175570E+02 -0.40016276810E+02  0.47787285524E+02  0.20000066019E+02 0.  0.
        -12    1    1    2    0    0  0.97317515723E+01 -0.13697175570E+02  0.40016276810E+02  0.43400714476E+02  0.00000000000E+00 0.  1.
         11    1    3    3    0    0 -0.13122309315E+02  0.12959671209E+02 -0.26304901674E+02  0.32126249889E+02  0.51100000000E-03 0. -1.
        -11    1    3    3    0    0  0.14089952257E+01 -0.13161475210E+01 -0.30229265890E+00  0.19516385311E+01  0.51100000000E-03 0.  1.
         12    1    3    3    0    0  0.19815625172E+01  0.20536518815E+01 -0.13409082478E+02  0.13709397104E+02  0.00000000000E+00 0. -1.
</event>
<event>
 7    1  0.2642243E-009  0.4778727E+02  0.7816164E-02  0.1312668E+00
        -11   -1    0    0    0    0  0.00000000000E+00  0.00000000000E+00  0.45593999997E+02  0.45594000000E+02  0.51100000000E-03 0. -1.
         11   -1    0    0    0    0 -0.00000000000E+00 -0.00000000000E+00 -0.45593999997E+02  0.45594000000E+02  0.51100000000E-03 0.  1.
    9900012    2    1    2    0    0  0.63752689410E+00  0.50385579759E+01  0.43102548629E+02  0.47787271835E+02  0.20000003602E+02 0.  0.
        -12    1    1    2    0    0 -0.63752689410E+00 -0.50385579759E+01 -0.43102548629E+02  0.43400728165E+02  0.00000000000E+00 0.  1.
         11    1    3    3    0    0 -0.71618599982E+01  0.34574967705E+01  0.16477245975E+02  0.18296069462E+02  0.51100000000E-03 0. -1.
        -11    1    3    3    0    0 -0.52953111528E+00  0.20574175311E+01  0.66922160660E+00  0.22273814040E+01  0.51100000000E-03 0.  1.
         12    1    3    3    0    0  0.83289180076E+01 -0.47635632561E+00  0.25956081047E+02  0.27263820969E+02  0.00000000000E+00 0. -1.
</event>
<event>
 7    1  0.2642243E-009  0.4778727E+02  0.7816164E-02  0.1312668E+00
        -11   -1    0    0    0    0  0.00000000000E+00  0.00000000000E+00  0.45593999997E+02  0.45594000000E+02  0.51100000000E-03 0. -1.
         11   -1    0    0    0    0 -0.00000000000E+00 -0.00000000000E+00 -0.45593999997E+02  0.45594000000E+02  0.51100000000E-03 0.  1.
    9900012    2    1    2    0    0  0.17595700734E+01 -0.14201049470E+02  0.40973862745E+02  0.47787270500E+02  0.19999997517E+02 0.  0.
        -12    1    1    2    0    0 -0.17595700734E+01  0.14201049470E+02 -0.40973862745E+02  0.43400729500E+02  0.00000000000E+00 0.  1.
         11    1    3    3    0    0 -0.24187695366E+01 -0.16998351310E+02  0.22767054797E+02  0.28515490137E+02  0.51100000000E-03 0. -1.
        -11    1    3    3    0    0  0.42571233921E+01  0.94818301780E+00  0.14269779355E+02  0.14921419293E+02  0.51100000000E-03 0.  1.
         12    1    3    3    0    0 -0.78783782125E-01  0.18491188219E+01  0.39370285929E+01  0.43503610704E+01  0.00000000000E+00 0. -1.
</event>
<event>
 7    1  0.2642243E-009  0.4778727E+02  0.7816164E-02  0.1312668E+00
        -11   -1    0    0    0    0  0.00000000000E+00  0.00000000000E+00  0.45593999997E+02  0.45594000000E+02  0.51100000000E-03 0.  1.
         11   -1    0    0    0    0 -0.00000000000E+00 -0.00000000000E+00 -0.45593999997E+02  0.45594000000E+02  0.51100000000E-03 0. -1.
    9900012    2    1    2    0    0 -0.42729394153E+02  0.41758306483E+01 -0.63548913886E+01  0.47787270388E+02  0.19999997006E+02 0.  0.
        -12    1    1    2    0    0  0.42729394153E+02 -0.41758306483E+01  0.63548913886E+01  0.43400729612E+02  0.00000000000E+00 0.  1.
         11    1    3    3    0    0 -0.24634554213E+02 -0.14498209895E+01  0.17556958389E+01  0.24739557601E+02  0.51100000000E-03 0. -1.
        -11    1    3    3    0    0 -0.13544320163E+01 -0.15401462192E+01  0.14202166076E+01  0.24947047795E+01  0.51100000000E-03 0.  1.
         12    1    3    3    0    0 -0.16740407924E+02  0.71657978569E+01 -0.95308038352E+01  0.20553008007E+02  0.00000000000E+00 0. -1.
</event>
<event>
 7    1  0.2642243E-009  0.4778727E+02  0.7816164E-02  0.1312668E+00
        -11   -1    0    0    0    0  0.00000000000E+00  0.00000000000E+00  0.45593999997E+02  0.45594000000E+02  0.51100000000E-03 0.  1.
         11   -1    0    0    0    0 -0.00000000000E+00 -0.00000000000E+00 -0.45593999997E+02  0.45594000000E+02  0.51100000000E-03 0. -1.
    9900012    2    1    2    0    0  0.38323310755E+01 -0.30729383159E+02 -0.30407919589E+02  0.47787270460E+02  0.19999997337E+02 0.  0.
        -12    1    1    2    0    0 -0.38323310755E+01  0.30729383159E+02  0.30407919589E+02  0.43400729540E+02  0.00000000000E+00 0.  1.
         11    1    3    3    0    0  0.16953648547E+01  0.10758599766E+01 -0.93135281567E+01  0.95275150835E+01  0.51100000000E-03 0.  1.
        -11    1    3    3    0    0  0.31370749981E+00 -0.16179723265E+02 -0.10360935205E+02  0.19215380192E+02  0.51100000000E-03 0. -1.
        -12    1    3    3    0    0  0.18232587210E+01 -0.15625519871E+02 -0.10733456227E+02  0.19044375185E+02  0.00000000000E+00 0.  1.
</event>
<event>
 7    1  0.2642243E-009  0.4778727E+02  0.7816164E-02  0.1312668E+00
        -11   -1    0    0    0    0  0.00000000000E+00  0.00000000000E+00  0.45593999997E+02  0.45594000000E+02  0.51100000000E-03 0.  1.
         11   -1    0    0    0    0 -0.00000000000E+00 -0.00000000000E+00 -0.45593999997E+02  0.45594000000E+02  0.51100000000E-03 0. -1.
    9900012    2    1    2    0    0 -0.90809154717E+01  0.32905436330E+02 -0.26802844920E+02  0.47787271184E+02  0.20000000638E+02 0.  0.
        -12    1    1    2    0    0  0.90809154717E+01 -0.32905436330E+02  0.26802844920E+02  0.43400728816E+02  0.00000000000E+00 0.  1.
         11    1    3    3    0    0 -0.48451812668E+01  0.10818444774E+02 -0.12280956860E+02  0.17068580213E+02  0.51100000000E-03 0. -1.
        -11    1    3    3    0    0 -0.75797916383E+01  0.13849709316E+02 -0.28447018236E+01  0.16042444270E+02  0.51100000000E-03 0.  1.
        -12    1    3    3    0    0  0.33440574335E+01  0.82372822402E+01 -0.11677186237E+02  0.14676246701E+02  0.00000000000E+00 0.  1.
</event>
<event>
 7    1  0.2642243E-009  0.4778727E+02  0.7816164E-02  0.1312668E+00
        -11   -1    0    0    0    0  0.00000000000E+00  0.00000000000E+00  0.45593999997E+02  0.45594000000E+02  0.51100000000E-03 0.  1.
         11   -1    0    0    0    0 -0.00000000000E+00 -0.00000000000E+00 -0.45593999997E+02  0.45594000000E+02  0.51100000000E-03 0. -1.
    9900012    2    1    2    0    0 -0.75635332661E+01  0.41422333479E+02 -0.10516970813E+02  0.47787269345E+02  0.19999992253E+02 0.  0.
        -12    1    1    2    0    0  0.75635332661E+01 -0.41422333479E+02  0.10516970813E+02  0.43400730655E+02  0.00000000000E+00 0.  1.
         11    1    3    3    0    0 -0.60666979524E+01  0.32875126886E+01 -0.43766167331E+01  0.81711283194E+01  0.51100000000E-03 0. -1.
        -11    1    3    3    0    0 -0.12264012202E+01  0.15005299357E+02  0.17944980233E+01  0.15161902657E+02  0.51100000000E-03 0.  1.
         12    1    3    3    0    0 -0.27043409355E+00  0.23129521433E+02 -0.79348521034E+01  0.24454238369E+02  0.00000000000E+00 0. -1.
</event>
<event>
 7    1  0.2642243E-009  0.4778727E+02  0.7816164E-02  0.1312668E+00
        -11   -1    0    0    0    0  0.00000000000E+00  0.00000000000E+00  0.45593999997E+02  0.45594000000E+02  0.51100000000E-03 0.  1.
         11   -1    0    0    0    0 -0.00000000000E+00 -0.00000000000E+00 -0.45593999997E+02  0.45594000000E+02  0.51100000000E-03 0. -1.
    9900012    2    1    2    0    0  0.24007258727E+02 -0.17952152790E+02 -0.31384631483E+02  0.47787270113E+02  0.19999995754E+02 0.  0.
        -12    1    1    2    0    0 -0.24007258727E+02  0.17952152790E+02  0.31384631483E+02  0.43400729887E+02  0.00000000000E+00 0.  1.
         11    1    3    3    0    0  0.43996662118E+01 -0.14695221423E+01  0.14492350080E+01  0.48597160896E+01  0.51100000000E-03 0.  1.
        -11    1    3    3    0    0  0.18722945625E+02 -0.17580298138E+02 -0.28474790304E+02  0.38346176584E+02  0.51100000000E-03 0. -1.
        -12    1    3    3    0    0  0.88464689052E+00  0.10976674901E+01 -0.43590761868E+01  0.45813774394E+01  0.00000000000E+00 0.  1.
</event>
<event>
 7    1  0.2642243E-009  0.4778727E+02  0.7816164E-02  0.1312668E+00
        -11   -1    0    0    0    0  0.00000000000E+00  0.00000000000E+00  0.45593999997E+02  0.45594000000E+02  0.51100000000E-03 0.  1.
         11   -1    0    0    0    0 -0.00000000000E+00 -0.00000000000E+00 -0.45593999997E+02  0.45594000000E+02  0.51100000000E-03 0. -1.
    9900012    2    1    2    0    0  0.47918968388E+01 -0.38314346295E+02 -0.19815946332E+02  0.47787272628E+02  0.20000007221E+02 0.  0.
        -12    1    1    2    0    0 -0.47918968388E+01  0.38314346295E+02  0.19815946332E+02  0.43400727372E+02  0.00000000000E+00 0.  1.
         11    1    3    3    0    0  0.21669744388E+01 -0.25049231784E+02 -0.21989285844E+02  0.33401923349E+02  0.51100000000E-03 0. -1.
        -11    1    3    3    0    0  0.27510219213E+01 -0.72253111049E+01  0.29898561726E+01  0.82892992688E+01  0.51100000000E-03 0.  1.
         12    1    3    3    0    0 -0.12609952126E+00 -0.60398034064E+01 -0.81651666088E+00  0.60960500108E+01  0.00000000000E+00 0. -1.
</event>
<event>
 7    1  0.2642243E-009  0.4778728E+02  0.7816164E-02  0.1312668E+00
        -11   -1    0    0    0    0  0.00000000000E+00  0.00000000000E+00  0.45593999997E+02  0.45594000000E+02  0.51100000000E-03 0.  1.
         11   -1    0    0    0    0 -0.00000000000E+00 -0.00000000000E+00 -0.45593999997E+02  0.45594000000E+02  0.51100000000E-03 0. -1.
    9900012    2    1    2    0    0 -0.30948727385E+02 -0.21750451663E+02 -0.21277144442E+02  0.47787277081E+02  0.20000027523E+02 0.  0.
        -12    1    1    2    0    0  0.30948727385E+02  0.21750451663E+02  0.21277144442E+02  0.43400722919E+02  0.00000000000E+00 0.  1.
         11    1    3    3    0    0 -0.12892916468E+02 -0.11231755891E+02 -0.57504763211E+00  0.17108778901E+02  0.51100000000E-03 0. -1.
        -11    1    3    3    0    0 -0.14872897284E+02 -0.11351163704E+02 -0.14547803910E+02  0.23700012446E+02  0.51100000000E-03 0.  1.
         12    1    3    3    0    0 -0.31829136329E+01  0.83246793201E+00 -0.61542928990E+01  0.69784857339E+01  0.00000000000E+00 0. -1.
</event>
<event>
 7    1  0.2642243E-009  0.4778728E+02  0.7816164E-02  0.1312668E+00
        -11   -1    0    0    0    0  0.00000000000E+00  0.00000000000E+00  0.45593999997E+02  0.45594000000E+02  0.51100000000E-03 0.  1.
         11   -1    0    0    0    0 -0.00000000000E+00 -0.00000000000E+00 -0.45593999997E+02  0.45594000000E+02  0.51100000000E-03 0. -1.
    9900012    2    1    2    0    0  0.55633299244E+01 -0.33416712905E+02 -0.27129235928E+02  0.47787276697E+02  0.20000025770E+02 0.  0.
        -12    1    1    2    0    0 -0.55633299244E+01  0.33416712905E+02  0.27129235928E+02  0.43400723303E+02  0.00000000000E+00 0.  1.
         11    1    3    3    0    0  0.63955463349E+01 -0.13104417499E+02 -0.17780435372E+02  0.22995057147E+02  0.51100000000E-03 0. -1.
        -11    1    3    3    0    0 -0.57425792128E+01 -0.10872100397E+02 -0.44273501522E+01  0.13068328611E+02  0.51100000000E-03 0.  1.
         12    1    3    3    0    0  0.49103628023E+01 -0.94401950097E+01 -0.49214504038E+01  0.11723890939E+02  0.00000000000E+00 0. -1.
</event>
<event>
 7    1  0.2642243E-009  0.4778727E+02  0.7816164E-02  0.1312668E+00
        -11   -1    0    0    0    0  0.00000000000E+00  0.00000000000E+00  0.45593999997E+02  0.45594000000E+02  0.51100000000E-03 0.  1.
         11   -1    0    0    0    0 -0.00000000000E+00 -0.00000000000E+00 -0.45593999997E+02  0.45594000000E+02  0.51100000000E-03 0. -1.
    9900012    2    1    2    0    0  0.24139512358E+02  0.14840081991E+02 -0.32873692332E+02  0.47787265699E+02  0.19999975626E+02 0.  0.
        -12    1    1    2    0    0 -0.24139512358E+02 -0.14840081991E+02  0.32873692332E+02  0.43400734301E+02  0.00000000000E+00 0.  1.
         11    1    3    3    0    0  0.57150935857E+01  0.11845699396E+02 -0.16603011712E+02  0.21181191824E+02  0.51100000000E-03 0. -1.
        -11    1    3    3    0    0  0.15281729961E+02 -0.96510252667E+00 -0.14907380288E+02  0.21370369225E+02  0.51100000000E-03 0.  1.
         12    1    3    3    0    0  0.31426888112E+01  0.39594851217E+01 -0.13633003310E+01  0.52357046503E+01  0.00000000000E+00 0. -1.
</event>
<event>
 7    1  0.2642243E-009  0.4778727E+02  0.7816164E-02  0.1312668E+00
        -11   -1    0    0    0    0  0.00000000000E+00  0.00000000000E+00  0.45593999997E+02  0.45594000000E+02  0.51100000000E-03 0. -1.
         11   -1    0    0    0    0 -0.00000000000E+00 -0.00000000000E+00 -0.45593999997E+02  0.45594000000E+02  0.51100000000E-03 0.  1.
    9900012    2    1    2    0    0 -0.16844395406E+02  0.30399736555E+02 -0.25995105630E+02  0.47787272404E+02  0.20000006197E+02 0.  0.
        -12    1    1    2    0    0  0.16844395406E+02 -0.30399736555E+02  0.25995105630E+02  0.43400727596E+02  0.00000000000E+00 0.  1.
         11    1    3    3    0    0 -0.46574101223E+01 -0.14598774970E+00 -0.48770502825E+01  0.67452502688E+01  0.51100000000E-03 0. -1.
        -11    1    3    3    0    0 -0.10672540745E+02  0.19853677030E+02 -0.77023776921E+01  0.23820122584E+02  0.51100000000E-03 0.  1.
        -12    1    3    3    0    0 -0.15144445384E+01  0.10692047275E+02 -0.13415677655E+02  0.17221899551E+02  0.00000000000E+00 0.  1.
</event>
<event>
 7    1  0.2642243E-009  0.4778727E+02  0.7816164E-02  0.1312668E+00
        -11   -1    0    0    0    0  0.00000000000E+00  0.00000000000E+00  0.45593999997E+02  0.45594000000E+02  0.51100000000E-03 0.  1.
         11   -1    0    0    0    0 -0.00000000000E+00 -0.00000000000E+00 -0.45593999997E+02  0.45594000000E+02  0.51100000000E-03 0. -1.
    9900012    2    1    2    0    0  0.57194045595E+01  0.40308415989E+02 -0.15038053078E+02  0.47787273872E+02  0.20000012894E+02 0.  0.
        -12    1    1    2    0    0 -0.57194045595E+01 -0.40308415989E+02  0.15038053078E+02  0.43400726128E+02  0.00000000000E+00 0.  1.
         11    1    3    3    0    0  0.76321756592E+01  0.56210350645E+01 -0.17216703066E+01  0.96338097030E+01  0.51100000000E-03 0.  1.
        -11    1    3    3    0    0 -0.39108494231E+01  0.20564946825E+02 -0.11177986496E+02  0.23730974769E+02  0.51100000000E-03 0. -1.
        -12    1    3    3    0    0  0.19980783235E+01  0.14122434099E+02 -0.21383962752E+01  0.14422489400E+02  0.00000000000E+00 0.  1.
</event>
<event>
 7    1  0.2642243E-009  0.4778727E+02  0.7816164E-02  0.1312668E+00
        -11   -1    0    0    0    0  0.00000000000E+00  0.00000000000E+00  0.45593999997E+02  0.45594000000E+02  0.51100000000E-03 0.  1.
         11   -1    0    0    0    0 -0.00000000000E+00 -0.00000000000E+00 -0.45593999997E+02  0.45594000000E+02  0.51100000000E-03 0. -1.
    9900012    2    1    2    0    0 -0.29990156603E+02 -0.23482326667E+01 -0.31284169744E+02  0.47787274588E+02  0.20000016156E+02 0.  0.
        -12    1    1    2    0    0  0.29990156603E+02  0.23482326667E+01  0.31284169744E+02  0.43400725412E+02  0.00000000000E+00 0.  1.
         11    1    3    3    0    0 -0.27248720204E+02 -0.20963390740E+01 -0.20093285022E+02  0.33920900541E+02  0.51100000000E-03 0. -1.
        -11    1    3    3    0    0 -0.54976323158E+00  0.35444767399E+01 -0.66448489619E+01  0.75511305749E+01  0.51100000000E-03 0.  1.
        -12    1    3    3    0    0 -0.21916731667E+01 -0.37963703326E+01 -0.45460357605E+01  0.63152434717E+01  0.00000000000E+00 0.  1.
</event>
<event>
 7    1  0.2642243E-009  0.4778726E+02  0.7816164E-02  0.1312668E+00
        -11   -1    0    0    0    0  0.00000000000E+00  0.00000000000E+00  0.45593999997E+02  0.45594000000E+02  0.51100000000E-03 0.  1.
         11   -1    0    0    0    0 -0.00000000000E+00 -0.00000000000E+00 -0.45593999997E+02  0.45594000000E+02  0.51100000000E-03 0. -1.
    9900012    2    1    2    0    0 -0.21320010648E+02 -0.53619895055E+01 -0.37420984933E+02  0.47787263844E+02  0.19999967170E+02 0.  0.
        -12    1    1    2    0    0  0.21320010648E+02  0.53619895055E+01  0.37420984933E+02  0.43400736156E+02  0.00000000000E+00 0.  1.
         11    1    3    3    0    0 -0.18523601678E+02  0.70652262449E+00 -0.24285942019E+02  0.30552086235E+02  0.51100000000E-03 0. -1.
        -11    1    3    3    0    0  0.30287890688E+01 -0.14300102654E+01 -0.62630439336E+01  0.71024088982E+01  0.51100000000E-03 0.  1.
         12    1    3    3    0    0 -0.58251980394E+01 -0.46385018646E+01 -0.68719989812E+01  0.10132768711E+02  0.00000000000E+00 0. -1.
</event>
<event>
 7    1  0.2642243E-009  0.4778727E+02  0.7816164E-02  0.1312668E+00
        -11   -1    0    0    0    0  0.00000000000E+00  0.00000000000E+00  0.45593999997E+02  0.45594000000E+02  0.51100000000E-03 0.  1.
         11   -1    0    0    0    0 -0.00000000000E+00 -0.00000000000E+00 -0.45593999997E+02  0.45594000000E+02  0.51100000000E-03 0. -1.
    9900012    2    1    2    0    0 -0.14709405987E+02 -0.14492562047E+02 -0.38173582062E+02  0.47787270207E+02  0.19999996180E+02 0.  0.
        -12    1    1    2    0    0  0.14709405987E+02  0.14492562047E+02  0.38173582062E+02  0.43400729793E+02  0.00000000000E+00 0.  1.
         11    1    3    3    0    0 -0.45258856273E+01 -0.20215274278E+01 -0.11901847062E+02  0.12892795569E+02  0.51100000000E-03 0. -1.
        -11    1    3    3    0    0 -0.12824230248E+02 -0.14144347176E+02 -0.18798899681E+02  0.26794067775E+02  0.51100000000E-03 0.  1.
        -12    1    3    3    0    0  0.26407098885E+01  0.16733125559E+01 -0.74728353189E+01  0.81004068619E+01  0.00000000000E+00 0.  1.
</event>
<event>
 7    1  0.2642243E-009  0.4778727E+02  0.7816164E-02  0.1312668E+00
        -11   -1    0    0    0    0  0.00000000000E+00  0.00000000000E+00  0.45593999997E+02  0.45594000000E+02  0.51100000000E-03 0.  1.
         11   -1    0    0    0    0 -0.00000000000E+00 -0.00000000000E+00 -0.45593999997E+02  0.45594000000E+02  0.51100000000E-03 0. -1.
    9900012    2    1    2    0    0 -0.36420180270E+02  0.15083083190E+02  0.18157481560E+02  0.47787273439E+02  0.20000010917E+02 0.  0.
        -12    1    1    2    0    0  0.36420180270E+02 -0.15083083190E+02 -0.18157481560E+02  0.43400726561E+02  0.00000000000E+00 0.  1.
         11    1    3    3    0    0 -0.12536250393E+02  0.74990254639E+01 -0.10363514222E+01  0.14644691235E+02  0.51100000000E-03 0. -1.
        -11    1    3    3    0    0 -0.15793672159E+02 -0.86173271449E-01  0.10012267416E+02  0.18700080352E+02  0.51100000000E-03 0.  1.
         12    1    3    3    0    0 -0.80902577175E+01  0.76702309979E+01  0.91815655663E+01  0.14442501852E+02  0.00000000000E+00 0. -1.
</event>
<event>
 7    1  0.2642243E-009  0.4778727E+02  0.7816164E-02  0.1312668E+00
        -11   -1    0    0    0    0  0.00000000000E+00  0.00000000000E+00  0.45593999997E+02  0.45594000000E+02  0.51100000000E-03 0.  1.
         11   -1    0    0    0    0 -0.00000000000E+00 -0.00000000000E+00 -0.45593999997E+02  0.45594000000E+02  0.51100000000E-03 0. -1.
    9900012    2    1    2    0    0 -0.34702571257E+01  0.82846804524E+01 -0.42461098010E+02  0.47787268913E+02  0.19999990282E+02 0.  0.
        -12    1    1    2    0    0  0.34702571257E+01 -0.82846804524E+01  0.42461098010E+02  0.43400731087E+02  0.00000000000E+00 0.  1.
         11    1    3    3    0    0 -0.66985328606E+01 -0.38232924819E-01 -0.34838677565E+02  0.35476827070E+02  0.51100000000E-03 0. -1.
        -11    1    3    3    0    0  0.21666655358E+01  0.40138709208E+01 -0.16090749495E+01  0.48368090480E+01  0.51100000000E-03 0.  1.
         12    1    3    3    0    0  0.10616101991E+01  0.43090424564E+01 -0.60133454955E+01  0.74736327950E+01  0.00000000000E+00 0. -1.
</event>
<event>
 7    1  0.2642243E-009  0.4778727E+02  0.7816164E-02  0.1312668E+00
        -11   -1    0    0    0    0  0.00000000000E+00  0.00000000000E+00  0.45593999997E+02  0.45594000000E+02  0.51100000000E-03 0.  1.
         11   -1    0    0    0    0 -0.00000000000E+00 -0.00000000000E+00 -0.45593999997E+02  0.45594000000E+02  0.51100000000E-03 0. -1.
    9900012    2    1    2    0    0 -0.42673510279E+02 -0.79033344744E+01 -0.36347433604E+00  0.47787270871E+02  0.19999999208E+02 0.  0.
        -12    1    1    2    0    0  0.42673510279E+02  0.79033344744E+01  0.36347433604E+00  0.43400729129E+02  0.00000000000E+00 0.  1.
         11    1    3    3    0    0 -0.14851082035E+02 -0.81619276337E+01 -0.46965067816E+01  0.17584904791E+02  0.51100000000E-03 0. -1.
        -11    1    3    3    0    0 -0.23570425050E+02  0.36771061763E+01  0.11440924745E+01  0.23882943594E+02  0.51100000000E-03 0.  1.
         12    1    3    3    0    0 -0.42520031947E+01 -0.34185130170E+01  0.31889399711E+01  0.63194224858E+01  0.00000000000E+00 0. -1.
</event>
<event>
 7    1  0.2642243E-009  0.4778729E+02  0.7816164E-02  0.1312668E+00
        -11   -1    0    0    0    0  0.00000000000E+00  0.00000000000E+00  0.45593999997E+02  0.45594000000E+02  0.51100000000E-03 0. -1.
         11   -1    0    0    0    0 -0.00000000000E+00 -0.00000000000E+00 -0.45593999997E+02  0.45594000000E+02  0.51100000000E-03 0.  1.
    9900012    2    1    2    0    0 -0.40731086346E+02  0.11032061451E+02  0.10143654850E+02  0.47787291382E+02  0.20000092728E+02 0.  0.
        -12    1    1    2    0    0  0.40731086346E+02 -0.11032061451E+02 -0.10143654850E+02  0.43400708618E+02  0.00000000000E+00 0.  1.
         11    1    3    3    0    0 -0.27246238398E+02  0.10986523399E+02  0.47892038559E+01  0.29765713112E+02  0.51100000000E-03 0. -1.
        -11    1    3    3    0    0 -0.13209572360E+02 -0.24305672708E+01  0.68895561720E+01  0.15095245732E+02  0.51100000000E-03 0.  1.
        -12    1    3    3    0    0 -0.27527558824E+00  0.24761053227E+01 -0.15351051775E+01  0.29263325383E+01  0.00000000000E+00 0.  1.
</event>
<event>
 7    1  0.2642243E-009  0.4778727E+02  0.7816164E-02  0.1312668E+00
        -11   -1    0    0    0    0  0.00000000000E+00  0.00000000000E+00  0.45593999997E+02  0.45594000000E+02  0.51100000000E-03 0.  1.
         11   -1    0    0    0    0 -0.00000000000E+00 -0.00000000000E+00 -0.45593999997E+02  0.45594000000E+02  0.51100000000E-03 0. -1.
    9900012    2    1    2    0    0 -0.37549947823E+02  0.52778070262E+01 -0.21113256160E+02  0.47787269428E+02  0.19999992630E+02 0.  0.
        -12    1    1    2    0    0  0.37549947823E+02 -0.52778070262E+01  0.21113256160E+02  0.43400730572E+02  0.00000000000E+00 0.  1.
         11    1    3    3    0    0 -0.67063449199E+01  0.66739251246E+01 -0.45979109507E+01  0.10519368998E+02  0.51100000000E-03 0. -1.
        -11    1    3    3    0    0 -0.93669235580E+01 -0.64151047956E+01 -0.56795009957E+01  0.12694469595E+02  0.51100000000E-03 0.  1.
        -12    1    3    3    0    0 -0.21476679345E+02  0.50189866972E+01 -0.10835844214E+02  0.24573430834E+02  0.00000000000E+00 0.  1.
</event>
<event>
 7    1  0.2642243E-009  0.4778727E+02  0.7816164E-02  0.1312668E+00
        -11   -1    0    0    0    0  0.00000000000E+00  0.00000000000E+00  0.45593999997E+02  0.45594000000E+02  0.51100000000E-03 0.  1.
         11   -1    0    0    0    0 -0.00000000000E+00 -0.00000000000E+00 -0.45593999997E+02  0.45594000000E+02  0.51100000000E-03 0. -1.
    9900012    2    1    2    0    0 -0.32158623129E+02 -0.19902545925E+02 -0.21291655637E+02  0.47787274481E+02  0.20000015666E+02 0.  0.
        -12    1    1    2    0    0  0.32158623129E+02  0.19902545925E+02  0.21291655637E+02  0.43400725519E+02  0.00000000000E+00 0.  1.
         11    1    3    3    0    0 -0.14373085646E+02 -0.59922656111E+01 -0.14161754915E+02  0.21048708765E+02  0.51100000000E-03 0. -1.
        -11    1    3    3    0    0 -0.12853340344E+02 -0.87879056355E+01  0.14002925465E+01  0.15633184670E+02  0.51100000000E-03 0.  1.
        -12    1    3    3    0    0 -0.49321971392E+01 -0.51223746782E+01 -0.85301932685E+01  0.11105381045E+02  0.00000000000E+00 0.  1.
</event>
<event>
 7    1  0.2642243E-009  0.4778727E+02  0.7816164E-02  0.1312668E+00
        -11   -1    0    0    0    0  0.00000000000E+00  0.00000000000E+00  0.45593999997E+02  0.45594000000E+02  0.51100000000E-03 0.  1.
         11   -1    0    0    0    0 -0.00000000000E+00 -0.00000000000E+00 -0.45593999997E+02  0.45594000000E+02  0.51100000000E-03 0. -1.
    9900012    2    1    2    0    0  0.42077211552E+02 -0.10053965339E+02 -0.34712013997E+01  0.47787272009E+02  0.20000004397E+02 0.  0.
        -12    1    1    2    0    0 -0.42077211552E+02  0.10053965339E+02  0.34712013997E+01  0.43400727991E+02  0.00000000000E+00 0.  1.
         11    1    3    3    0    0  0.32166877817E+01  0.25403506307E+01  0.29923114095E+01  0.50748782689E+01  0.51100000000E-03 0. -1.
        -11    1    3    3    0    0  0.27493027942E+02 -0.37010296486E+01 -0.52005108836E+01  0.28224271817E+02  0.51100000000E-03 0.  1.
         12    1    3    3    0    0  0.11367495828E+02 -0.88932863211E+01 -0.12630019255E+01  0.14488121923E+02  0.00000000000E+00 0. -1.
</event>
<event>
 7    1  0.2642243E-009  0.4778727E+02  0.7816164E-02  0.1312668E+00
        -11   -1    0    0    0    0  0.00000000000E+00  0.00000000000E+00  0.45593999997E+02  0.45594000000E+02  0.51100000000E-03 0.  1.
         11   -1    0    0    0    0 -0.00000000000E+00 -0.00000000000E+00 -0.45593999997E+02  0.45594000000E+02  0.51100000000E-03 0. -1.
    9900012    2    1    2    0    0  0.10795246448E+02  0.15003600682E+02 -0.39268026023E+02  0.47787271353E+02  0.20000001409E+02 0.  0.
        -12    1    1    2    0    0 -0.10795246448E+02 -0.15003600682E+02  0.39268026023E+02  0.43400728647E+02  0.00000000000E+00 0.  1.
         11    1    3    3    0    0  0.12829983255E+01  0.12135779229E+02 -0.24174651769E+02  0.27080195911E+02  0.51100000000E-03 0. -1.
        -11    1    3    3    0    0  0.36553886664E+01  0.19057925802E+01  0.37468610174E+00  0.41393600468E+01  0.51100000000E-03 0.  1.
         12    1    3    3    0    0  0.58568594561E+01  0.96202887346E+00 -0.15468060356E+02  0.16567715395E+02  0.00000000000E+00 0. -1.
</event>
<event>
 7    1  0.2642243E-009  0.4778727E+02  0.7816164E-02  0.1312668E+00
        -11   -1    0    0    0    0  0.00000000000E+00  0.00000000000E+00  0.45593999997E+02  0.45594000000E+02  0.51100000000E-03 0. -1.
         11   -1    0    0    0    0 -0.00000000000E+00 -0.00000000000E+00 -0.45593999997E+02  0.45594000000E+02  0.51100000000E-03 0.  1.
    9900012    2    1    2    0    0 -0.31916318229E+02 -0.28119708804E+02 -0.86170693729E+01  0.47787271007E+02  0.19999999828E+02 0.  0.
        -12    1    1    2    0    0  0.31916318229E+02  0.28119708804E+02  0.86170693729E+01  0.43400728993E+02  0.00000000000E+00 0.  1.
         11    1    3    3    0    0 -0.12145739933E+02 -0.44083595885E+01  0.48689769523E+01  0.13807953129E+02  0.51100000000E-03 0. -1.
        -11    1    3    3    0    0 -0.13602070464E+02 -0.18540534537E+02 -0.11392817002E+02  0.25662502243E+02  0.51100000000E-03 0.  1.
         12    1    3    3    0    0 -0.61685078322E+01 -0.51708146785E+01 -0.20932293235E+01  0.83168156355E+01  0.00000000000E+00 0. -1.
</event>
<event>
 7    1  0.2642243E-009  0.4778726E+02  0.7816164E-02  0.1312668E+00
        -11   -1    0    0    0    0  0.00000000000E+00  0.00000000000E+00  0.45593999997E+02  0.45594000000E+02  0.51100000000E-03 0.  1.
         11   -1    0    0    0    0 -0.00000000000E+00 -0.00000000000E+00 -0.45593999997E+02  0.45594000000E+02  0.51100000000E-03 0. -1.
    9900012    2    1    2    0    0 -0.12403116371E+02 -0.24374405208E+02 -0.33699776923E+02  0.47787263951E+02  0.19999967658E+02 0.  0.
        -12    1    1    2    0    0  0.12403116371E+02  0.24374405208E+02  0.33699776923E+02  0.43400736049E+02  0.00000000000E+00 0.  1.
         11    1    3    3    0    0 -0.10416670947E+01 -0.18456175829E+01 -0.80358280760E+01  0.83105900949E+01  0.51100000000E-03 0. -1.
        -11    1    3    3    0    0 -0.83059888546E+01 -0.61518479703E+01 -0.19858569479E+01  0.10525127666E+02  0.51100000000E-03 0.  1.
        -12    1    3    3    0    0 -0.30554604222E+01 -0.16376939654E+02 -0.23678091899E+02  0.28951546190E+02  0.00000000000E+00 0.  1.
</event>
<event>
 7    1  0.2642243E-009  0.4778727E+02  0.7816164E-02  0.1312668E+00
        -11   -1    0    0    0    0  0.00000000000E+00  0.00000000000E+00  0.45593999997E+02  0.45594000000E+02  0.51100000000E-03 0. -1.
         11   -1    0    0    0    0 -0.00000000000E+00 -0.00000000000E+00 -0.45593999997E+02  0.45594000000E+02  0.51100000000E-03 0.  1.
    9900012    2    1    2    0    0 -0.43333377424E+02 -0.14386277265E+01  0.19421759650E+01  0.47787270788E+02  0.19999998829E+02 0.  0.
        -12    1    1    2    0    0  0.43333377424E+02  0.14386277265E+01 -0.19421759650E+01  0.43400729212E+02  0.00000000000E+00 0.  1.
         11    1    3    3    0    0 -0.15246729887E+02  0.27566266876E+01  0.47245520328E+01  0.16198245433E+02  0.51100000000E-03 0. -1.
        -11    1    3    3    0    0 -0.64356527778E+01  0.44821919933E+01 -0.26023288491E+01  0.82631584422E+01  0.51100000000E-03 0.  1.
        -12    1    3    3    0    0 -0.21650994759E+02 -0.86774464074E+01 -0.18004721870E+00  0.23325866912E+02  0.00000000000E+00 0.  1.
</event>
<event>
 7    1  0.2642243E-009  0.4778728E+02  0.7816164E-02  0.1312668E+00
        -11   -1    0    0    0    0  0.00000000000E+00  0.00000000000E+00  0.45593999997E+02  0.45594000000E+02  0.51100000000E-03 0. -1.
         11   -1    0    0    0    0 -0.00000000000E+00 -0.00000000000E+00 -0.45593999997E+02  0.45594000000E+02  0.51100000000E-03 0.  1.
    9900012    2    1    2    0    0  0.43110965973E+02 -0.44316029045E+01  0.23298796199E+01  0.47787276153E+02  0.20000023291E+02 0.  0.
        -12    1    1    2    0    0 -0.43110965973E+02  0.44316029045E+01 -0.23298796199E+01  0.43400723847E+02  0.00000000000E+00 0.  1.
         11    1    3    3    0    0  0.11937949195E+02 -0.44308961759E+01  0.13712920742E+01  0.12807338292E+02  0.51100000000E-03 0. -1.
        -11    1    3    3    0    0  0.97577126499E+01 -0.39833849839E+01 -0.59815656755E+01  0.12118557681E+02  0.51100000000E-03 0.  1.
        -12    1    3    3    0    0  0.21415304128E+02  0.39826782554E+01  0.69401532212E+01  0.22861380179E+02  0.00000000000E+00 0.  1.
</event>
<event>
 7    1  0.2642243E-009  0.4778725E+02  0.7816164E-02  0.1312668E+00
        -11   -1    0    0    0    0  0.00000000000E+00  0.00000000000E+00  0.45593999997E+02  0.45594000000E+02  0.51100000000E-03 0. -1.
         11   -1    0    0    0    0 -0.00000000000E+00 -0.00000000000E+00 -0.45593999997E+02  0.45594000000E+02  0.51100000000E-03 0.  1.
    9900012    2    1    2    0    0  0.32270998727E+02  0.24084856878E+02  0.16190349256E+02  0.47787250022E+02  0.19999904150E+02 0.  0.
        -12    1    1    2    0    0 -0.32270998727E+02 -0.24084856878E+02 -0.16190349256E+02  0.43400749978E+02  0.00000000000E+00 0.  1.
         11    1    3    3    0    0  0.23527370805E+02  0.13731941355E+02  0.17457142421E+02  0.32355141974E+02  0.51100000000E-03 0. -1.
        -11    1    3    3    0    0  0.27320833030E+00  0.56396167010E+01 -0.10059206513E+01  0.57351369595E+01  0.51100000000E-03 0.  1.
         12    1    3    3    0    0  0.84704195911E+01  0.47132988212E+01 -0.26087251378E+00  0.96969710888E+01  0.00000000000E+00 0. -1.
</event>
<event>
 7    1  0.2642243E-009  0.4778727E+02  0.7816164E-02  0.1312668E+00
        -11   -1    0    0    0    0  0.00000000000E+00  0.00000000000E+00  0.45593999997E+02  0.45594000000E+02  0.51100000000E-03 0.  1.
         11   -1    0    0    0    0 -0.00000000000E+00 -0.00000000000E+00 -0.45593999997E+02  0.45594000000E+02  0.51100000000E-03 0. -1.
    9900012    2    1    2    0    0  0.34620315706E+02 -0.24874681961E+01 -0.26055118018E+02  0.47787274977E+02  0.20000017930E+02 0.  0.
        -12    1    1    2    0    0 -0.34620315706E+02  0.24874681961E+01  0.26055118018E+02  0.43400725023E+02  0.00000000000E+00 0.  1.
         11    1    3    3    0    0  0.25028751468E+02  0.74919169956E+00 -0.99046224214E+01  0.26927703835E+02  0.51100000000E-03 0.  1.
        -11    1    3    3    0    0 -0.32360093829E-01 -0.24308069341E+01 -0.75353087286E+01  0.79177488860E+01  0.51100000000E-03 0. -1.
        -12    1    3    3    0    0  0.96239243315E+01 -0.80585296161E+00 -0.86151868680E+01  0.12941822256E+02  0.00000000000E+00 0.  1.
</event>
<event>
 7    1  0.2642243E-009  0.4778727E+02  0.7816164E-02  0.1312668E+00
        -11   -1    0    0    0    0  0.00000000000E+00  0.00000000000E+00  0.45593999997E+02  0.45594000000E+02  0.51100000000E-03 0.  1.
         11   -1    0    0    0    0 -0.00000000000E+00 -0.00000000000E+00 -0.45593999997E+02  0.45594000000E+02  0.51100000000E-03 0. -1.
    9900012    2    1    2    0    0  0.41178434278E+02  0.73972283347E+01  0.11543007332E+02  0.47787268959E+02  0.19999990494E+02 0.  0.
        -12    1    1    2    0    0 -0.41178434278E+02 -0.73972283347E+01 -0.11543007332E+02  0.43400731041E+02  0.00000000000E+00 0.  1.
         11    1    3    3    0    0  0.49714202631E+01  0.29263552683E+01 -0.16413749788E+00  0.57710931346E+01  0.51100000000E-03 0. -1.
        -11    1    3    3    0    0  0.17630686008E+02  0.76893654781E+01 -0.10326742635E+01  0.19262238887E+02  0.51100000000E-03 0.  1.
        -12    1    3    3    0    0  0.18576328007E+02 -0.32184924117E+01  0.12739819094E+02  0.22753936937E+02  0.00000000000E+00 0.  1.
</event>
<event>
 7    1  0.2642243E-009  0.4778727E+02  0.7816164E-02  0.1312668E+00
        -11   -1    0    0    0    0  0.00000000000E+00  0.00000000000E+00  0.45593999997E+02  0.45594000000E+02  0.51100000000E-03 0.  1.
         11   -1    0    0    0    0 -0.00000000000E+00 -0.00000000000E+00 -0.45593999997E+02  0.45594000000E+02  0.51100000000E-03 0. -1.
    9900012    2    1    2    0    0  0.17185529511E+02 -0.13508745480E+02 -0.37493928132E+02  0.47787271023E+02  0.19999999901E+02 0.  0.
        -12    1    1    2    0    0 -0.17185529511E+02  0.13508745480E+02  0.37493928132E+02  0.43400728977E+02  0.00000000000E+00 0.  1.
         11    1    3    3    0    0 -0.32761368633E+00 -0.63812075368E+01 -0.20365809219E+01  0.67063255563E+01  0.51100000000E-03 0. -1.
        -11    1    3    3    0    0  0.17153129551E+02 -0.83043365460E+01 -0.34822217938E+02  0.39696079419E+02  0.51100000000E-03 0.  1.
        -12    1    3    3    0    0  0.36001364671E+00  0.11767986027E+01 -0.63512927173E+00  0.13848660473E+01  0.00000000000E+00 0.  1.
</event>
<event>
 7    1  0.2642243E-009  0.4778727E+02  0.7816164E-02  0.1312668E+00
        -11   -1    0    0    0    0  0.00000000000E+00  0.00000000000E+00  0.45593999997E+02  0.45594000000E+02  0.51100000000E-03 0.  1.
         11   -1    0    0    0    0 -0.00000000000E+00 -0.00000000000E+00 -0.45593999997E+02  0.45594000000E+02  0.51100000000E-03 0. -1.
    9900012    2    1    2    0    0  0.42412381329E+02  0.10964128820E+01  0.91439108794E+01  0.47787270544E+02  0.19999997716E+02 0.  0.
        -12    1    1    2    0    0 -0.42412381329E+02 -0.10964128820E+01 -0.91439108794E+01  0.43400729456E+02  0.00000000000E+00 0.  1.
         11    1    3    3    0    0  0.19098476271E+02  0.64561534869E+01  0.97320312888E+01  0.22386293730E+02  0.51100000000E-03 0. -1.
        -11    1    3    3    0    0  0.44469460536E+01 -0.45367547445E+01  0.10746859685E+01  0.64430135036E+01  0.51100000000E-03 0.  1.
         12    1    3    3    0    0  0.18866959004E+02 -0.82298586046E+00 -0.16628063780E+01  0.18957963310E+02  0.00000000000E+00 0. -1.
</event>
<event>
 7    1  0.2642243E-009  0.4778727E+02  0.7816164E-02  0.1312668E+00
        -11   -1    0    0    0    0  0.00000000000E+00  0.00000000000E+00  0.45593999997E+02  0.45594000000E+02  0.51100000000E-03 0.  1.
         11   -1    0    0    0    0 -0.00000000000E+00 -0.00000000000E+00 -0.45593999997E+02  0.45594000000E+02  0.51100000000E-03 0. -1.
    9900012    2    1    2    0    0 -0.32718990947E+02  0.20968756062E+02 -0.19323616820E+02  0.47787271130E+02  0.20000000392E+02 0.  0.
        -12    1    1    2    0    0  0.32718990947E+02 -0.20968756062E+02  0.19323616820E+02  0.43400728870E+02  0.00000000000E+00 0.  1.
         11    1    3    3    0    0 -0.28296567541E+02  0.13068527701E+02 -0.13963198858E+02  0.34153375726E+02  0.51100000000E-03 0. -1.
        -11    1    3    3    0    0  0.80426338278E+00  0.38647201079E+01 -0.58000848765E+01  0.70159736272E+01  0.51100000000E-03 0.  1.
         12    1    3    3    0    0 -0.52266867895E+01  0.40355082532E+01  0.43966691491E+00  0.66179217775E+01  0.00000000000E+00 0. -1.
</event>
<event>
 7    1  0.2642243E-009  0.4778727E+02  0.7816164E-02  0.1312668E+00
        -11   -1    0    0    0    0  0.00000000000E+00  0.00000000000E+00  0.45593999997E+02  0.45594000000E+02  0.51100000000E-03 0. -1.
         11   -1    0    0    0    0 -0.00000000000E+00 -0.00000000000E+00 -0.45593999997E+02  0.45594000000E+02  0.51100000000E-03 0.  1.
    9900012    2    1    2    0    0 -0.30263465668E+02 -0.22651857627E+02  0.21322269012E+02  0.47787272310E+02  0.20000005771E+02 0.  0.
        -12    1    1    2    0    0  0.30263465668E+02  0.22651857627E+02 -0.21322269012E+02  0.43400727690E+02  0.00000000000E+00 0.  1.
         11    1    3    3    0    0 -0.13681191881E+02 -0.21919308803E+02  0.14966386931E+02  0.29860071127E+02  0.51100000000E-03 0. -1.
        -11    1    3    3    0    0 -0.83834767646E+01 -0.14690620344E+01  0.27970580176E+01  0.89590378802E+01  0.51100000000E-03 0.  1.
         12    1    3    3    0    0 -0.81987970218E+01  0.73651320985E+00  0.35588240639E+01  0.89681633031E+01  0.00000000000E+00 0. -1.
</event>
<event>
 7    1  0.2642243E-009  0.4778727E+02  0.7816164E-02  0.1312668E+00
        -11   -1    0    0    0    0  0.00000000000E+00  0.00000000000E+00  0.45593999997E+02  0.45594000000E+02  0.51100000000E-03 0. -1.
         11   -1    0    0    0    0 -0.00000000000E+00 -0.00000000000E+00 -0.45593999997E+02  0.45594000000E+02  0.51100000000E-03 0.  1.
    9900012    2    1    2    0    0  0.25014314195E+02  0.24855220851E+02  0.25300699760E+02  0.47787270438E+02  0.19999997235E+02 0.  0.
        -12    1    1    2    0    0 -0.25014314195E+02 -0.24855220851E+02 -0.25300699760E+02  0.43400729562E+02  0.00000000000E+00 0.  1.
         11    1    3    3    0    0  0.90094626598E+01  0.11350684251E+02  0.14346277386E+02  0.20391766120E+02  0.51100000000E-03 0. -1.
        -11    1    3    3    0    0  0.83787057231E+01  0.42598254941E+01  0.12139192000E+02  0.15352810997E+02  0.51100000000E-03 0.  1.
        -12    1    3    3    0    0  0.76261458121E+01  0.92447111050E+01 -0.11847696257E+01  0.12042693321E+02  0.00000000000E+00 0.  1.
</event>
<event>
 7    1  0.2642243E-009  0.4778727E+02  0.7816164E-02  0.1312668E+00
        -11   -1    0    0    0    0  0.00000000000E+00  0.00000000000E+00  0.45593999997E+02  0.45594000000E+02  0.51100000000E-03 0.  1.
         11   -1    0    0    0    0 -0.00000000000E+00 -0.00000000000E+00 -0.45593999997E+02  0.45594000000E+02  0.51100000000E-03 0. -1.
    9900012    2    1    2    0    0  0.90228084805E+00  0.43306056001E+02  0.27192625062E+01  0.47787274365E+02  0.20000015141E+02 0.  0.
        -12    1    1    2    0    0 -0.90228084805E+00 -0.43306056001E+02 -0.27192625062E+01  0.43400725635E+02  0.00000000000E+00 0.  1.
         11    1    3    3    0    0  0.28769108119E+00  0.35467595198E+02  0.10221074998E+02  0.36912104379E+02  0.51100000000E-03 0. -1.
        -11    1    3    3    0    0  0.53024479991E+00  0.75162470334E+01 -0.70972338614E+01  0.10351128333E+02  0.51100000000E-03 0.  1.
         12    1    3    3    0    0  0.84344966948E-01  0.32221376927E+00 -0.40457863073E+00  0.52404165388E+00  0.00000000000E+00 0. -1.
</event>
<event>
 7    1  0.4861825E-009  0.4778726E+02  0.7816164E-02  0.1312668E+00
        -11   -1    0    0    0    0  0.00000000000E+00  0.00000000000E+00  0.45593999997E+02  0.45594000000E+02  0.51100000000E-03 0.  1.
         11   -1    0    0    0    0 -0.00000000000E+00 -0.00000000000E+00 -0.45593999997E+02  0.45594000000E+02  0.51100000000E-03 0. -1.
    9900012    2    1    2    0    0  0.38533342741E+02  0.11682810108E+02 -0.16196215696E+02  0.47787263167E+02  0.19999964082E+02 0.  0.
        -12    1    1    2    0    0 -0.38533342741E+02 -0.11682810108E+02  0.16196215696E+02  0.43400736833E+02  0.00000000000E+00 0.  1.
         11    1    3    3    0    0  0.16926307196E+02  0.12639060166E+02 -0.11073487062E+02  0.23850950361E+02  0.51100000000E-03 0.  1.
        -11    1    3    3    0    0  0.32073045813E+01 -0.24682513519E+01 -0.35919488760E+01  0.54112072962E+01  0.51100000000E-03 0. -1.
         12    1    3    3    0    0  0.18399730964E+02  0.15120012936E+01 -0.15307797579E+01  0.18525105509E+02  0.00000000000E+00 0. -1.
</event>
<event>
 7    1  0.2642243E-009  0.4778727E+02  0.7816164E-02  0.1312668E+00
        -11   -1    0    0    0    0  0.00000000000E+00  0.00000000000E+00  0.45593999997E+02  0.45594000000E+02  0.51100000000E-03 0.  1.
         11   -1    0    0    0    0 -0.00000000000E+00 -0.00000000000E+00 -0.45593999997E+02  0.45594000000E+02  0.51100000000E-03 0. -1.
    9900012    2    1    2    0    0  0.25493667262E+02  0.24225095564E+02 -0.25433070677E+02  0.47787269480E+02  0.19999992869E+02 0.  0.
        -12    1    1    2    0    0 -0.25493667262E+02 -0.24225095564E+02  0.25433070677E+02  0.43400730520E+02  0.00000000000E+00 0.  1.
         11    1    3    3    0    0  0.13091811302E+02  0.22349176534E+02 -0.15862833556E+02  0.30372861301E+02  0.51100000000E-03 0. -1.
        -11    1    3    3    0    0  0.22313353266E+01 -0.19392275856E+01 -0.28789636088E-01  0.29563981587E+01  0.51100000000E-03 0.  1.
         12    1    3    3    0    0  0.10170520634E+02  0.38151466158E+01 -0.95414474844E+01  0.14458010021E+02  0.00000000000E+00 0. -1.
</event>
<event>
 7    1  0.2642243E-009  0.4778728E+02  0.7816164E-02  0.1312668E+00
        -11   -1    0    0    0    0  0.00000000000E+00  0.00000000000E+00  0.45593999997E+02  0.45594000000E+02  0.51100000000E-03 0. -1.
         11   -1    0    0    0    0 -0.00000000000E+00 -0.00000000000E+00 -0.45593999997E+02  0.45594000000E+02  0.51100000000E-03 0.  1.
    9900012    2    1    2    0    0 -0.16360002806E+02 -0.10625086395E+02  0.38769582922E+02  0.47787277511E+02  0.20000029482E+02 0.  0.
        -12    1    1    2    0    0  0.16360002806E+02  0.10625086395E+02 -0.38769582922E+02  0.43400722489E+02  0.00000000000E+00 0.  1.
         11    1    3    3    0    0 -0.69731804084E+01 -0.21195090078E+01  0.22587284473E+02  0.23734004794E+02  0.51100000000E-03 0. -1.
        -11    1    3    3    0    0 -0.80960370180E+01 -0.63179673254E+01  0.31007431496E+01  0.10727401123E+02  0.51100000000E-03 0.  1.
        -12    1    3    3    0    0 -0.12907853792E+01 -0.21876100614E+01  0.13081555299E+02  0.13325871593E+02  0.00000000000E+00 0.  1.
</event>
<event>
 7    1  0.2642243E-009  0.4778727E+02  0.7816164E-02  0.1312668E+00
        -11   -1    0    0    0    0  0.00000000000E+00  0.00000000000E+00  0.45593999997E+02  0.45594000000E+02  0.51100000000E-03 0.  1.
         11   -1    0    0    0    0 -0.00000000000E+00 -0.00000000000E+00 -0.45593999997E+02  0.45594000000E+02  0.51100000000E-03 0. -1.
    9900012    2    1    2    0    0  0.25853791459E+02 -0.10668901971E+02 -0.33187032437E+02  0.47787272770E+02  0.20000007869E+02 0.  0.
        -12    1    1    2    0    0 -0.25853791459E+02  0.10668901971E+02  0.33187032437E+02  0.43400727230E+02  0.00000000000E+00 0.  1.
         11    1    3    3    0    0  0.12247641581E+02 -0.61816349799E+01 -0.20557476774E+02  0.24714918306E+02  0.51100000000E-03 0. -1.
        -11    1    3    3    0    0  0.12878088953E+02 -0.29301549274E+01 -0.33371706717E+01  0.13622323273E+02  0.51100000000E-03 0.  1.
         12    1    3    3    0    0  0.72806092543E+00 -0.15571120636E+01 -0.92923849917E+01  0.94500311917E+01  0.00000000000E+00 0. -1.
</event>
<event>
 7    1  0.2642243E-009  0.4778727E+02  0.7816164E-02  0.1312668E+00
        -11   -1    0    0    0    0  0.00000000000E+00  0.00000000000E+00  0.45593999997E+02  0.45594000000E+02  0.51100000000E-03 0.  1.
         11   -1    0    0    0    0 -0.00000000000E+00 -0.00000000000E+00 -0.45593999997E+02  0.45594000000E+02  0.51100000000E-03 0. -1.
    9900012    2    1    2    0    0 -0.14278106612E+02 -0.29418065079E+02 -0.28536577488E+02  0.47787272631E+02  0.20000007235E+02 0.  0.
        -12    1    1    2    0    0  0.14278106612E+02  0.29418065079E+02  0.28536577488E+02  0.43400727369E+02  0.00000000000E+00 0.  1.
         11    1    3    3    0    0 -0.18232428235E+01 -0.61275263645E+01 -0.58112030477E+01  0.86394950584E+01  0.51100000000E-03 0. -1.
        -11    1    3    3    0    0 -0.14324141743E+02 -0.10801053117E+02 -0.18649929624E+02  0.25877860428E+02  0.51100000000E-03 0.  1.
        -12    1    3    3    0    0  0.18692779547E+01 -0.12489485598E+02 -0.40754448157E+01  0.13269917144E+02  0.00000000000E+00 0.  1.
</event>
<event>
 7    1  0.2642243E-009  0.4778727E+02  0.7816164E-02  0.1312668E+00
        -11   -1    0    0    0    0  0.00000000000E+00  0.00000000000E+00  0.45593999997E+02  0.45594000000E+02  0.51100000000E-03 0. -1.
         11   -1    0    0    0    0 -0.00000000000E+00 -0.00000000000E+00 -0.45593999997E+02  0.45594000000E+02  0.51100000000E-03 0.  1.
    9900012    2    1    2    0    0  0.34136544430E+02  0.19919351124E+02  0.17931512249E+02  0.47787270209E+02  0.19999996193E+02 0.  0.
        -12    1    1    2    0    0 -0.34136544430E+02 -0.19919351124E+02 -0.17931512249E+02  0.43400729791E+02  0.00000000000E+00 0.  1.
         11    1    3    3    0    0  0.21257557562E+02  0.73925236526E+01  0.15163788580E+02  0.27138047900E+02  0.51100000000E-03 0. -1.
        -11    1    3    3    0    0  0.42210645906E+01  0.22628580861E+01 -0.33990724353E+01  0.58729555317E+01  0.51100000000E-03 0.  1.
         12    1    3    3    0    0  0.86579222773E+01  0.10263969385E+02  0.61667961051E+01  0.14776266778E+02  0.00000000000E+00 0. -1.
</event>
<event>
 7    1  0.2642243E-009  0.4778727E+02  0.7816164E-02  0.1312668E+00
        -11   -1    0    0    0    0  0.00000000000E+00  0.00000000000E+00  0.45593999997E+02  0.45594000000E+02  0.51100000000E-03 0.  1.
         11   -1    0    0    0    0 -0.00000000000E+00 -0.00000000000E+00 -0.45593999997E+02  0.45594000000E+02  0.51100000000E-03 0. -1.
    9900012    2    1    2    0    0 -0.24021816423E+02 -0.88767346722E+01 -0.35039679688E+02  0.47787271488E+02  0.20000002022E+02 0.  0.
        -12    1    1    2    0    0  0.24021816423E+02  0.88767346722E+01  0.35039679688E+02  0.43400728512E+02  0.00000000000E+00 0.  1.
         11    1    3    3    0    0 -0.25854585401E+02 -0.90728874962E+01 -0.30470601455E+02  0.40978462966E+02  0.51100000000E-03 0. -1.
        -11    1    3    3    0    0  0.21067735354E+01 -0.97740242003E+00 -0.26303252424E+00  0.23373054123E+01  0.51100000000E-03 0.  1.
        -12    1    3    3    0    0 -0.27400455757E+00  0.11735552440E+01 -0.43060457090E+01  0.44715031093E+01  0.00000000000E+00 0.  1.
</event>
<event>
 7    1  0.2642243E-009  0.4778727E+02  0.7816164E-02  0.1312668E+00
        -11   -1    0    0    0    0  0.00000000000E+00  0.00000000000E+00  0.45593999997E+02  0.45594000000E+02  0.51100000000E-03 0.  1.
         11   -1    0    0    0    0 -0.00000000000E+00 -0.00000000000E+00 -0.45593999997E+02  0.45594000000E+02  0.51100000000E-03 0. -1.
    9900012    2    1    2    0    0 -0.18701476393E+02 -0.24579460344E+01 -0.39087554178E+02  0.47787267176E+02  0.19999982364E+02 0.  0.
        -12    1    1    2    0    0  0.18701476393E+02  0.24579460344E+01  0.39087554178E+02  0.43400732824E+02  0.00000000000E+00 0.  1.
         11    1    3    3    0    0 -0.13936148367E+02  0.14036771513E+01 -0.31909473952E+02  0.34848257761E+02  0.51100000000E-03 0. -1.
        -11    1    3    3    0    0  0.25877402783E+01 -0.17115415919E+01 -0.21783365395E+01  0.37909002505E+01  0.51100000000E-03 0.  1.
        -12    1    3    3    0    0 -0.73530683050E+01 -0.21500815939E+01 -0.49997436865E+01  0.91481091647E+01  0.00000000000E+00 0.  1.
</event>
<event>
 7    1  0.2642243E-009  0.4778727E+02  0.7816164E-02  0.1312668E+00
        -11   -1    0    0    0    0  0.00000000000E+00  0.00000000000E+00  0.45593999997E+02  0.45594000000E+02  0.51100000000E-03 0.  1.
         11   -1    0    0    0    0 -0.00000000000E+00 -0.00000000000E+00 -0.45593999997E+02  0.45594000000E+02  0.51100000000E-03 0. -1.
    9900012    2    1    2    0    0  0.38811434259E+02 -0.36997544520E+01 -0.19068494482E+02  0.47787273116E+02  0.20000009445E+02 0.  0.
        -12    1    1    2    0    0 -0.38811434259E+02  0.36997544520E+01  0.19068494482E+02  0.43400726884E+02  0.00000000000E+00 0.  1.
         11    1    3    3    0    0  0.32606989225E+02 -0.12702936570E+01 -0.13559461427E+02  0.35336785178E+02  0.51100000000E-03 0. -1.
        -11    1    3    3    0    0 -0.15920180589E+01 -0.12632206271E+00  0.11284441784E+01  0.19554706053E+01  0.51100000000E-03 0.  1.
        -12    1    3    3    0    0  0.77964630929E+01 -0.23031387323E+01 -0.66374772336E+01  0.10495017332E+02  0.00000000000E+00 0.  1.
</event>
<event>
 7    1  0.2642243E-009  0.4778726E+02  0.7816164E-02  0.1312668E+00
        -11   -1    0    0    0    0  0.00000000000E+00  0.00000000000E+00  0.45593999997E+02  0.45594000000E+02  0.51100000000E-03 0.  1.
         11   -1    0    0    0    0 -0.00000000000E+00 -0.00000000000E+00 -0.45593999997E+02  0.45594000000E+02  0.51100000000E-03 0. -1.
    9900012    2    1    2    0    0  0.44068917790E+01 -0.43169128676E+02 -0.79345438079E+00  0.47787263420E+02  0.19999965238E+02 0.  0.
        -12    1    1    2    0    0 -0.44068917790E+01  0.43169128676E+02  0.79345438079E+00  0.43400736580E+02  0.00000000000E+00 0.  1.
         11    1    3    3    0    0 -0.58499351368E+01 -0.23580959305E+02  0.19027276827E+00  0.24296493304E+02  0.51100000000E-03 0. -1.
        -11    1    3    3    0    0  0.40560473639E+01 -0.15169276524E+01  0.31020157517E+00  0.43415221984E+01  0.51100000000E-03 0.  1.
         12    1    3    3    0    0  0.62007795519E+01 -0.18071241718E+02 -0.12939287242E+01  0.19149247918E+02  0.00000000000E+00 0. -1.
</event>
<event>
 7    1  0.2642243E-009  0.4778724E+02  0.7816164E-02  0.1312668E+00
        -11   -1    0    0    0    0  0.00000000000E+00  0.00000000000E+00  0.45593999997E+02  0.45594000000E+02  0.51100000000E-03 0. -1.
         11   -1    0    0    0    0 -0.00000000000E+00 -0.00000000000E+00 -0.45593999997E+02  0.45594000000E+02  0.51100000000E-03 0.  1.
    9900012    2    1    2    0    0  0.30066794663E+02 -0.11818706330E+02  0.28981575300E+02  0.47787243469E+02  0.19999874272E+02 0.  0.
        -12    1    1    2    0    0 -0.30066794663E+02  0.11818706330E+02 -0.28981575300E+02  0.43400756531E+02  0.00000000000E+00 0.  1.
         11    1    3    3    0    0  0.17491162638E+02 -0.10234723215E+02  0.25693369767E+02  0.32723685305E+02  0.51100000000E-03 0. -1.
        -11    1    3    3    0    0  0.64142047974E+01 -0.40776696574E+01 -0.10344492859E+00  0.76013231830E+01  0.51100000000E-03 0.  1.
        -12    1    3    3    0    0  0.61614272270E+01  0.24936865428E+01  0.33916504618E+01  0.74622349804E+01  0.00000000000E+00 0.  1.
</event>
<event>
 7    1  0.2642243E-009  0.4778729E+02  0.7816164E-02  0.1312668E+00
        -11   -1    0    0    0    0  0.00000000000E+00  0.00000000000E+00  0.45593999997E+02  0.45594000000E+02  0.51100000000E-03 0.  1.
         11   -1    0    0    0    0 -0.00000000000E+00 -0.00000000000E+00 -0.45593999997E+02  0.45594000000E+02  0.51100000000E-03 0. -1.
    9900012    2    1    2    0    0  0.34364701553E+02  0.56318135374E+00 -0.26502302559E+02  0.47787286561E+02  0.20000070748E+02 0.  0.
        -12    1    1    2    0    0 -0.34364701553E+02 -0.56318135374E+00  0.26502302559E+02  0.43400713439E+02  0.00000000000E+00 0.  1.
         11    1    3    3    0    0 -0.22636192492E+01 -0.12640715462E+01 -0.19823174290E+01  0.32636531111E+01  0.51100000000E-03 0. -1.
        -11    1    3    3    0    0  0.60696577845E+01 -0.69451951661E-01 -0.15992263415E+01  0.62771884110E+01  0.51100000000E-03 0.  1.
         12    1    3    3    0    0  0.30558663018E+02  0.18967048516E+01 -0.22920758788E+02  0.38246445039E+02  0.00000000000E+00 0. -1.
</event>
<event>
 7    1  0.2642243E-009  0.4778727E+02  0.7816164E-02  0.1312668E+00
        -11   -1    0    0    0    0  0.00000000000E+00  0.00000000000E+00  0.45593999997E+02  0.45594000000E+02  0.51100000000E-03 0. -1.
         11   -1    0    0    0    0 -0.00000000000E+00 -0.00000000000E+00 -0.45593999997E+02  0.45594000000E+02  0.51100000000E-03 0.  1.
    9900012    2    1    2    0    0 -0.42373490619E+02  0.90013371206E+01  0.26620610952E+01  0.47787270208E+02  0.19999996188E+02 0.  0.
        -12    1    1    2    0    0  0.42373490619E+02 -0.90013371206E+01 -0.26620610952E+01  0.43400729792E+02  0.00000000000E+00 0.  1.
         11    1    3    3    0    0 -0.12137249057E+02  0.19553430091E+01  0.22582473907E+01  0.12499434487E+02  0.51100000000E-03 0. -1.
        -11    1    3    3    0    0 -0.26363043533E+02  0.42521719579E+01  0.65587621960E+01  0.27497425198E+02  0.51100000000E-03 0.  1.
        -12    1    3    3    0    0 -0.38731980287E+01  0.27938221537E+01 -0.61549484915E+01  0.77904105238E+01  0.00000000000E+00 0.  1.
</event>
<event>
 7    1  0.2642243E-009  0.4778727E+02  0.7816164E-02  0.1312668E+00
        -11   -1    0    0    0    0  0.00000000000E+00  0.00000000000E+00  0.45593999997E+02  0.45594000000E+02  0.51100000000E-03 0.  1.
         11   -1    0    0    0    0 -0.00000000000E+00 -0.00000000000E+00 -0.45593999997E+02  0.45594000000E+02  0.51100000000E-03 0. -1.
    9900012    2    1    2    0    0  0.16867075364E+02 -0.38798061249E+02 -0.96868673773E+01  0.47787272039E+02  0.20000004533E+02 0.  0.
        -12    1    1    2    0    0 -0.16867075364E+02  0.38798061249E+02  0.96868673773E+01  0.43400727961E+02  0.00000000000E+00 0.  1.
         11    1    3    3    0    0  0.92574832340E+01 -0.24543290338E+02 -0.10205997649E+02  0.28146695805E+02  0.51100000000E-03 0. -1.
        -11    1    3    3    0    0  0.39035600871E+01 -0.79105985424E+01  0.58309093130E+01  0.10574254316E+02  0.51100000000E-03 0.  1.
        -12    1    3    3    0    0  0.37060320433E+01 -0.63441723680E+01 -0.53117790413E+01  0.90663219182E+01  0.00000000000E+00 0.  1.
</event>
<event>
 7    1  0.2642243E-009  0.4778729E+02  0.7816164E-02  0.1312668E+00
        -11   -1    0    0    0    0  0.00000000000E+00  0.00000000000E+00  0.45593999997E+02  0.45594000000E+02  0.51100000000E-03 0.  1.
         11   -1    0    0    0    0 -0.00000000000E+00 -0.00000000000E+00 -0.45593999997E+02  0.45594000000E+02  0.51100000000E-03 0. -1.
    9900012    2    1    2    0    0 -0.65259836730E+01 -0.37397945385E+02 -0.21033950584E+02  0.47787287343E+02  0.20000074312E+02 0.  0.
        -12    1    1    2    0    0  0.65259836730E+01  0.37397945385E+02  0.21033950584E+02  0.43400712657E+02  0.00000000000E+00 0.  1.
         11    1    3    3    0    0  0.17865891198E+01 -0.13781406058E+02 -0.31591709073E+01  0.14251295194E+02  0.51100000000E-03 0. -1.
        -11    1    3    3    0    0 -0.11104405121E+02 -0.14439092055E+02 -0.84204921542E+01  0.20067383507E+02  0.51100000000E-03 0.  1.
        -12    1    3    3    0    0  0.27918323278E+01 -0.91774472728E+01 -0.94542875226E+01  0.13468608642E+02  0.00000000000E+00 0.  1.
</event>
<event>
 7    1  0.2642243E-009  0.4778727E+02  0.7816164E-02  0.1312668E+00
        -11   -1    0    0    0    0  0.00000000000E+00  0.00000000000E+00  0.45593999997E+02  0.45594000000E+02  0.51100000000E-03 0.  1.
         11   -1    0    0    0    0 -0.00000000000E+00 -0.00000000000E+00 -0.45593999997E+02  0.45594000000E+02  0.51100000000E-03 0. -1.
    9900012    2    1    2    0    0 -0.32406295987E+02  0.28684750451E+02 -0.32619327212E+01  0.47787272666E+02  0.20000007393E+02 0.  0.
        -12    1    1    2    0    0  0.32406295987E+02 -0.28684750451E+02  0.32619327212E+01  0.43400727334E+02  0.00000000000E+00 0.  1.
         11    1    3    3    0    0 -0.42553057191E+01  0.14317395653E+01 -0.43808807051E+01  0.62729276227E+01  0.51100000000E-03 0. -1.
        -11    1    3    3    0    0 -0.14922600682E+02  0.21853088050E+02 -0.30327516814E+01  0.26635297097E+02  0.51100000000E-03 0.  1.
        -12    1    3    3    0    0 -0.13228389586E+02  0.53999228358E+01  0.41516996653E+01  0.14879047946E+02  0.00000000000E+00 0.  1.
</event>
<event>
 7    1  0.2642243E-009  0.4778726E+02  0.7816164E-02  0.1312668E+00
        -11   -1    0    0    0    0  0.00000000000E+00  0.00000000000E+00  0.45593999997E+02  0.45594000000E+02  0.51100000000E-03 0. -1.
         11   -1    0    0    0    0 -0.00000000000E+00 -0.00000000000E+00 -0.45593999997E+02  0.45594000000E+02  0.51100000000E-03 0.  1.
    9900012    2    1    2    0    0  0.23364162019E+02  0.30790927709E+02  0.19739791085E+02  0.47787255213E+02  0.19999927816E+02 0.  0.
        -12    1    1    2    0    0 -0.23364162019E+02 -0.30790927709E+02 -0.19739791085E+02  0.43400744787E+02  0.00000000000E+00 0.  1.
         11    1    3    3    0    0  0.13131339739E+02  0.66665596571E+01  0.16337142184E+01  0.14817021409E+02  0.51100000000E-03 0.  1.
        -11    1    3    3    0    0  0.82186970973E+01  0.21125371474E+02  0.11446494173E+02  0.25393907360E+02  0.51100000000E-03 0. -1.
         12    1    3    3    0    0  0.20141251823E+01  0.29989965772E+01  0.66595826944E+01  0.75763264438E+01  0.00000000000E+00 0. -1.
</event>
<event>
 7    1  0.2642243E-009  0.4778727E+02  0.7816164E-02  0.1312668E+00
        -11   -1    0    0    0    0  0.00000000000E+00  0.00000000000E+00  0.45593999997E+02  0.45594000000E+02  0.51100000000E-03 0.  1.
         11   -1    0    0    0    0 -0.00000000000E+00 -0.00000000000E+00 -0.45593999997E+02  0.45594000000E+02  0.51100000000E-03 0. -1.
    9900012    2    1    2    0    0  0.40759727215E+02  0.12346207788E+02 -0.83569757449E+01  0.47787271286E+02  0.20000001099E+02 0.  0.
        -12    1    1    2    0    0 -0.40759727215E+02 -0.12346207788E+02  0.83569757449E+01  0.43400728714E+02  0.00000000000E+00 0.  1.
         11    1    3    3    0    0  0.11235498815E+02  0.18732101246E+01 -0.27379406024E+01  0.11715018941E+02  0.51100000000E-03 0. -1.
        -11    1    3    3    0    0  0.52734240503E+00  0.13128666889E+01  0.39477057435E+01  0.41935772144E+01  0.51100000000E-03 0.  1.
        -12    1    3    3    0    0  0.28996885995E+02  0.91601309741E+01 -0.95667408861E+01  0.31878675130E+02  0.00000000000E+00 0.  1.
</event>
<event>
 7    1  0.2642243E-009  0.4778728E+02  0.7816164E-02  0.1312668E+00
        -11   -1    0    0    0    0  0.00000000000E+00  0.00000000000E+00  0.45593999997E+02  0.45594000000E+02  0.51100000000E-03 0.  1.
         11   -1    0    0    0    0 -0.00000000000E+00 -0.00000000000E+00 -0.45593999997E+02  0.45594000000E+02  0.51100000000E-03 0. -1.
    9900012    2    1    2    0    0 -0.35915642849E+02 -0.45001232477E+01 -0.23946569146E+02  0.47787277836E+02  0.20000030966E+02 0.  0.
        -12    1    1    2    0    0  0.35915642849E+02  0.45001232477E+01  0.23946569146E+02  0.43400722164E+02  0.00000000000E+00 0.  1.
         11    1    3    3    0    0 -0.11021962909E+02 -0.62228815328E+01 -0.15202189681E+02  0.19781670614E+02  0.51100000000E-03 0. -1.
        -11    1    3    3    0    0 -0.14823825484E+02 -0.12681192686E+01 -0.91847674742E+00  0.14906291566E+02  0.51100000000E-03 0.  1.
         12    1    3    3    0    0 -0.10069854456E+02  0.29908775538E+01 -0.78259027173E+01  0.13099315656E+02  0.00000000000E+00 0. -1.
</event>
<event>
 7    1  0.2642243E-009  0.4778727E+02  0.7816164E-02  0.1312668E+00
        -11   -1    0    0    0    0  0.00000000000E+00  0.00000000000E+00  0.45593999997E+02  0.45594000000E+02  0.51100000000E-03 0. -1.
         11   -1    0    0    0    0 -0.00000000000E+00 -0.00000000000E+00 -0.45593999997E+02  0.45594000000E+02  0.51100000000E-03 0.  1.
    9900012    2    1    2    0    0  0.31630871558E+02 -0.19704918047E+02  0.22244715687E+02  0.47787271817E+02  0.20000003524E+02 0.  0.
        -12    1    1    2    0    0 -0.31630871558E+02  0.19704918047E+02 -0.22244715687E+02  0.43400728183E+02  0.00000000000E+00 0.  1.
         11    1    3    3    0    0  0.25736022783E+02 -0.19017353645E+02  0.13381182562E+02  0.34685135942E+02  0.51100000000E-03 0. -1.
        -11    1    3    3    0    0 -0.15640409971E+01  0.89318033075E+00  0.29364037772E+01  0.34447732506E+01  0.51100000000E-03 0.  1.
         12    1    3    3    0    0  0.74588897727E+01 -0.15807447329E+01  0.59271293482E+01  0.96573626245E+01  0.00000000000E+00 0. -1.
</event>
<event>
 7    1  0.2642243E-009  0.4778727E+02  0.7816164E-02  0.1312668E+00
        -11   -1    0    0    0    0  0.00000000000E+00  0.00000000000E+00  0.45593999997E+02  0.45594000000E+02  0.51100000000E-03 0.  1.
         11   -1    0    0    0    0 -0.00000000000E+00 -0.00000000000E+00 -0.45593999997E+02  0.45594000000E+02  0.51100000000E-03 0. -1.
    9900012    2    1    2    0    0 -0.66125581045E+01 -0.14911881055E+02 -0.40218568164E+02  0.47787270208E+02  0.19999996187E+02 0.  0.
        -12    1    1    2    0    0  0.66125581045E+01  0.14911881055E+02  0.40218568164E+02  0.43400729792E+02  0.00000000000E+00 0.  1.
         11    1    3    3    0    0 -0.11462967077E+02 -0.96660919567E+01 -0.21439480628E+02  0.26162650435E+02  0.51100000000E-03 0. -1.
        -11    1    3    3    0    0  0.49611932334E+01 -0.12049460068E+01 -0.45710641717E+01  0.68527338414E+01  0.51100000000E-03 0.  1.
        -12    1    3    3    0    0 -0.11078426049E+00 -0.40408430915E+01 -0.14208023365E+02  0.14771885932E+02  0.00000000000E+00 0.  1.
</event>
<event>
 7    1  0.2642243E-009  0.4778727E+02  0.7816164E-02  0.1312668E+00
        -11   -1    0    0    0    0  0.00000000000E+00  0.00000000000E+00  0.45593999997E+02  0.45594000000E+02  0.51100000000E-03 0.  1.
         11   -1    0    0    0    0 -0.00000000000E+00 -0.00000000000E+00 -0.45593999997E+02  0.45594000000E+02  0.51100000000E-03 0. -1.
    9900012    2    1    2    0    0 -0.86432088872E+00 -0.36282413337E+02 -0.23800479447E+02  0.47787269706E+02  0.19999993896E+02 0.  0.
        -12    1    1    2    0    0  0.86432088872E+00  0.36282413337E+02  0.23800479447E+02  0.43400730294E+02  0.00000000000E+00 0.  1.
         11    1    3    3    0    0  0.44912986556E+01 -0.12835475504E+02 -0.10940968955E+02  0.17453538236E+02  0.51100000000E-03 0. -1.
        -11    1    3    3    0    0 -0.83971990444E+01 -0.76044355946E+01 -0.57560333144E+01  0.12707175622E+02  0.51100000000E-03 0.  1.
        -12    1    3    3    0    0  0.30415795002E+01 -0.15842502239E+02 -0.71034771782E+01  0.17626555848E+02  0.00000000000E+00 0.  1.
</event>
<event>
 7    1  0.2642243E-009  0.4778727E+02  0.7816164E-02  0.1312668E+00
        -11   -1    0    0    0    0  0.00000000000E+00  0.00000000000E+00  0.45593999997E+02  0.45594000000E+02  0.51100000000E-03 0.  1.
         11   -1    0    0    0    0 -0.00000000000E+00 -0.00000000000E+00 -0.45593999997E+02  0.45594000000E+02  0.51100000000E-03 0. -1.
    9900012    2    1    2    0    0 -0.50879431915E+01 -0.13421352588E+02 -0.40958554435E+02  0.47787273593E+02  0.20000011622E+02 0.  0.
        -12    1    1    2    0    0  0.50879431915E+01  0.13421352588E+02  0.40958554435E+02  0.43400726407E+02  0.00000000000E+00 0.  1.
         11    1    3    3    0    0 -0.22198468116E+01 -0.76857247234E+01 -0.12136153807E+02  0.14535622239E+02  0.51100000000E-03 0. -1.
        -11    1    3    3    0    0 -0.87649391310E+01 -0.38991732903E+01 -0.12206525448E+02  0.15525043449E+02  0.51100000000E-03 0.  1.
        -12    1    3    3    0    0  0.58968427511E+01 -0.18364545745E+01 -0.16615875180E+02  0.17726607906E+02  0.00000000000E+00 0.  1.
</event>
<event>
 7    1  0.2642243E-009  0.4778727E+02  0.7816164E-02  0.1312668E+00
        -11   -1    0    0    0    0  0.00000000000E+00  0.00000000000E+00  0.45593999997E+02  0.45594000000E+02  0.51100000000E-03 0.  1.
         11   -1    0    0    0    0 -0.00000000000E+00 -0.00000000000E+00 -0.45593999997E+02  0.45594000000E+02  0.51100000000E-03 0. -1.
    9900012    2    1    2    0    0  0.95945608860E+01 -0.19231465258E-02 -0.42326916572E+02  0.47787268799E+02  0.19999989764E+02 0.  0.
        -12    1    1    2    0    0 -0.95945608860E+01  0.19231465258E-02  0.42326916572E+02  0.43400731201E+02  0.00000000000E+00 0.  1.
         11    1    3    3    0    0 -0.34396582248E+01  0.16943521195E+01 -0.61744365270E+00  0.38837243380E+01  0.51100000000E-03 0. -1.
        -11    1    3    3    0    0  0.21020776081E+01  0.89222714547E+00 -0.46808228941E+01  0.52081573302E+01  0.51100000000E-03 0.  1.
         12    1    3    3    0    0  0.10932141503E+02 -0.25885024114E+01 -0.37028650025E+02  0.38695387131E+02  0.00000000000E+00 0. -1.
</event>
<event>
 7    1  0.2642243E-009  0.4778727E+02  0.7816164E-02  0.1312668E+00
        -11   -1    0    0    0    0  0.00000000000E+00  0.00000000000E+00  0.45593999997E+02  0.45594000000E+02  0.51100000000E-03 0. -1.
         11   -1    0    0    0    0 -0.00000000000E+00 -0.00000000000E+00 -0.45593999997E+02  0.45594000000E+02  0.51100000000E-03 0.  1.
    9900012    2    1    2    0    0 -0.23143584454E+02 -0.19229072640E+01  0.36664699047E+02  0.47787271550E+02  0.20000002307E+02 0.  0.
        -12    1    1    2    0    0  0.23143584454E+02  0.19229072640E+01 -0.36664699047E+02  0.43400728450E+02  0.00000000000E+00 0.  1.
         11    1    3    3    0    0 -0.14951146939E+02 -0.68987923994E-01  0.12992527515E+02  0.19807759227E+02  0.51100000000E-03 0.  1.
        -11    1    3    3    0    0 -0.62025466754E+01 -0.62264845270E+01  0.20268452308E+02  0.22091873032E+02  0.51100000000E-03 0. -1.
        -12    1    3    3    0    0 -0.19898908395E+01  0.43725651870E+01  0.34037192245E+01  0.58876392915E+01  0.00000000000E+00 0.  1.
</event>
<event>
 7    1  0.2642243E-009  0.4778727E+02  0.7816164E-02  0.1312668E+00
        -11   -1    0    0    0    0  0.00000000000E+00  0.00000000000E+00  0.45593999997E+02  0.45594000000E+02  0.51100000000E-03 0.  1.
         11   -1    0    0    0    0 -0.00000000000E+00 -0.00000000000E+00 -0.45593999997E+02  0.45594000000E+02  0.51100000000E-03 0. -1.
    9900012    2    1    2    0    0  0.25186891817E+02  0.39166843425E+01 -0.35126960251E+02  0.47787271065E+02  0.20000000093E+02 0.  0.
        -12    1    1    2    0    0 -0.25186891817E+02 -0.39166843425E+01  0.35126960251E+02  0.43400728935E+02  0.00000000000E+00 0.  1.
         11    1    3    3    0    0  0.20581662822E+02  0.20621398796E+01 -0.29168300914E+02  0.35758174504E+02  0.51100000000E-03 0. -1.
        -11    1    3    3    0    0  0.11827394498E+01  0.40133822783E+01 -0.67156670323E+01  0.79124139090E+01  0.51100000000E-03 0.  1.
         12    1    3    3    0    0  0.34224895452E+01 -0.21588378153E+01  0.75700769579E+00  0.41166826513E+01  0.00000000000E+00 0. -1.
</event>
<event>
 7    1  0.2642243E-009  0.4778727E+02  0.7816164E-02  0.1312668E+00
        -11   -1    0    0    0    0  0.00000000000E+00  0.00000000000E+00  0.45593999997E+02  0.45594000000E+02  0.51100000000E-03 0.  1.
         11   -1    0    0    0    0 -0.00000000000E+00 -0.00000000000E+00 -0.45593999997E+02  0.45594000000E+02  0.51100000000E-03 0. -1.
    9900012    2    1    2    0    0 -0.18935314395E+02 -0.26899520072E+02 -0.28310654936E+02  0.47787268506E+02  0.19999988425E+02 0.  0.
        -12    1    1    2    0    0  0.18935314395E+02  0.26899520072E+02  0.28310654936E+02  0.43400731494E+02  0.00000000000E+00 0.  1.
         11    1    3    3    0    0 -0.20988431456E+02 -0.20678833879E+02 -0.22047810969E+02  0.36799923837E+02  0.51100000000E-03 0. -1.
        -11    1    3    3    0    0  0.32703447379E+01 -0.23765344272E+01 -0.55910751901E+01  0.68995066948E+01  0.51100000000E-03 0.  1.
         12    1    3    3    0    0 -0.12172276764E+01 -0.38441517656E+01 -0.67176877691E+00  0.40878379741E+01  0.00000000000E+00 0. -1.
</event>
<event>
 7    1  0.2642243E-009  0.4778727E+02  0.7816164E-02  0.1312668E+00
        -11   -1    0    0    0    0  0.00000000000E+00  0.00000000000E+00  0.45593999997E+02  0.45594000000E+02  0.51100000000E-03 0.  1.
         11   -1    0    0    0    0 -0.00000000000E+00 -0.00000000000E+00 -0.45593999997E+02  0.45594000000E+02  0.51100000000E-03 0. -1.
    9900012    2    1    2    0    0 -0.35807229205E+02 -0.16705296527E+02 -0.17955459997E+02  0.47787272597E+02  0.20000007081E+02 0.  0.
        -12    1    1    2    0    0  0.35807229205E+02  0.16705296527E+02  0.17955459997E+02  0.43400727403E+02  0.00000000000E+00 0.  1.
         11    1    3    3    0    0 -0.99901940146E+01  0.31466543011E+00 -0.24855673797E+01  0.10299564857E+02  0.51100000000E-03 0. -1.
        -11    1    3    3    0    0 -0.82653928328E+01 -0.13779372942E+02 -0.95051297465E+01  0.18669100919E+02  0.51100000000E-03 0.  1.
        -12    1    3    3    0    0 -0.17551642357E+02 -0.32405890154E+01 -0.59647628704E+01  0.18818606822E+02  0.00000000000E+00 0.  1.
</event>
<event>
 7    1  0.2642243E-009  0.4778726E+02  0.7816164E-02  0.1312668E+00
        -11   -1    0    0    0    0  0.00000000000E+00  0.00000000000E+00  0.45593999997E+02  0.45594000000E+02  0.51100000000E-03 0.  1.
         11   -1    0    0    0    0 -0.00000000000E+00 -0.00000000000E+00 -0.45593999997E+02  0.45594000000E+02  0.51100000000E-03 0. -1.
    9900012    2    1    2    0    0  0.16662356843E+02  0.23592252606E+02 -0.32394373806E+02  0.47787262992E+02  0.19999963284E+02 0.  0.
        -12    1    1    2    0    0 -0.16662356843E+02 -0.23592252606E+02  0.32394373806E+02  0.43400737008E+02  0.00000000000E+00 0.  1.
         11    1    3    3    0    0  0.14779868345E+02  0.89537122669E+01 -0.11846392936E+02  0.20951145494E+02  0.51100000000E-03 0. -1.
        -11    1    3    3    0    0 -0.18516918789E+01  0.11037122713E+02 -0.96943012584E+01  0.14806293180E+02  0.51100000000E-03 0.  1.
         12    1    3    3    0    0  0.37341803773E+01  0.36014176263E+01 -0.10853679611E+02  0.12029824317E+02  0.00000000000E+00 0. -1.
</event>
<event>
 7    1  0.2642243E-009  0.4778728E+02  0.7816164E-02  0.1312668E+00
        -11   -1    0    0    0    0  0.00000000000E+00  0.00000000000E+00  0.45593999997E+02  0.45594000000E+02  0.51100000000E-03 0. -1.
         11   -1    0    0    0    0 -0.00000000000E+00 -0.00000000000E+00 -0.45593999997E+02  0.45594000000E+02  0.51100000000E-03 0.  1.
    9900012    2    1    2    0    0 -0.15649921239E+02  0.13841073095E+02  0.38041126276E+02  0.47787278491E+02  0.20000033950E+02 0.  0.
        -12    1    1    2    0    0  0.15649921239E+02 -0.13841073095E+02 -0.38041126276E+02  0.43400721509E+02  0.00000000000E+00 0.  1.
         11    1    3    3    0    0  0.40811002073E+00  0.36922494587E+01  0.19673833945E+02  0.20021463538E+02  0.51100000000E-03 0. -1.
        -11    1    3    3    0    0 -0.29036275704E+01  0.59363822734E+01  0.86141450203E+01  0.10857033769E+02  0.51100000000E-03 0.  1.
         12    1    3    3    0    0 -0.13154403689E+02  0.42124413634E+01  0.97531473105E+01  0.16908781184E+02  0.00000000000E+00 0. -1.
</event>
<event>
 7    1  0.2642243E-009  0.4778726E+02  0.7816164E-02  0.1312668E+00
        -11   -1    0    0    0    0  0.00000000000E+00  0.00000000000E+00  0.45593999997E+02  0.45594000000E+02  0.51100000000E-03 0. -1.
         11   -1    0    0    0    0 -0.00000000000E+00 -0.00000000000E+00 -0.45593999997E+02  0.45594000000E+02  0.51100000000E-03 0.  1.
    9900012    2    1    2    0    0  0.59229558904E+01  0.31151388889E+02  0.29633315782E+02  0.47787264517E+02  0.19999970239E+02 0.  0.
        -12    1    1    2    0    0 -0.59229558904E+01 -0.31151388889E+02 -0.29633315782E+02  0.43400735483E+02  0.00000000000E+00 0.  1.
         11    1    3    3    0    0 -0.39944169042E+01  0.17204386498E+01  0.50658845589E+01  0.66767104309E+01  0.51100000000E-03 0. -1.
        -11    1    3    3    0    0  0.28481083244E+01  0.23014773921E+02  0.15149641664E+02  0.27700237949E+02  0.51100000000E-03 0.  1.
        -12    1    3    3    0    0  0.70692644702E+01  0.64161763188E+01  0.94177895597E+01  0.13410316137E+02  0.00000000000E+00 0.  1.
</event>
<event>
 7    1  0.2642243E-009  0.4778727E+02  0.7816164E-02  0.1312668E+00
        -11   -1    0    0    0    0  0.00000000000E+00  0.00000000000E+00  0.45593999997E+02  0.45594000000E+02  0.51100000000E-03 0.  1.
         11   -1    0    0    0    0 -0.00000000000E+00 -0.00000000000E+00 -0.45593999997E+02  0.45594000000E+02  0.51100000000E-03 0. -1.
    9900012    2    1    2    0    0  0.39457175716E+02  0.17132923249E+02  0.57634759766E+01  0.47787269247E+02  0.19999991806E+02 0.  0.
        -12    1    1    2    0    0 -0.39457175716E+02 -0.17132923249E+02 -0.57634759766E+01  0.43400730753E+02  0.00000000000E+00 0.  1.
         11    1    3    3    0    0  0.41971618722E+01  0.89560172310E+01  0.42459115848E+00  0.98998328438E+01  0.51100000000E-03 0. -1.
        -11    1    3    3    0    0  0.26534479662E+02  0.10313871313E+02  0.49499574230E+01  0.28895616124E+02  0.51100000000E-03 0.  1.
         12    1    3    3    0    0  0.87255341815E+01 -0.21369652949E+01  0.38892739512E+00  0.89918202798E+01  0.00000000000E+00 0. -1.
</event>
<event>
 7    1  0.2642243E-009  0.4778727E+02  0.7816164E-02  0.1312668E+00
        -11   -1    0    0    0    0  0.00000000000E+00  0.00000000000E+00  0.45593999997E+02  0.45594000000E+02  0.51100000000E-03 0.  1.
         11   -1    0    0    0    0 -0.00000000000E+00 -0.00000000000E+00 -0.45593999997E+02  0.45594000000E+02  0.51100000000E-03 0. -1.
    9900012    2    1    2    0    0 -0.34952737756E+02 -0.20185837093E+02 -0.15951848886E+02  0.47787269837E+02  0.19999994496E+02 0.  0.
        -12    1    1    2    0    0  0.34952737756E+02  0.20185837093E+02  0.15951848886E+02  0.43400730163E+02  0.00000000000E+00 0.  1.
         11    1    3    3    0    0 -0.26890234105E+02 -0.83582151958E+01 -0.10481700635E+02  0.30046805154E+02  0.51100000000E-03 0. -1.
        -11    1    3    3    0    0  0.53197153265E+00 -0.69612566814E+01 -0.18634671988E+01  0.72259669635E+01  0.51100000000E-03 0.  1.
        -12    1    3    3    0    0 -0.85944751836E+01 -0.48663652162E+01 -0.36066810519E+01  0.10514497720E+02  0.00000000000E+00 0.  1.
</event>
<event>
 7    1  0.2642243E-009  0.4778727E+02  0.7816164E-02  0.1312668E+00
        -11   -1    0    0    0    0  0.00000000000E+00  0.00000000000E+00  0.45593999997E+02  0.45594000000E+02  0.51100000000E-03 0.  1.
         11   -1    0    0    0    0 -0.00000000000E+00 -0.00000000000E+00 -0.45593999997E+02  0.45594000000E+02  0.51100000000E-03 0. -1.
    9900012    2    1    2    0    0 -0.18777838459E+02 -0.22726831355E+02 -0.31851328481E+02  0.47787271819E+02  0.20000003532E+02 0.  0.
        -12    1    1    2    0    0  0.18777838459E+02  0.22726831355E+02  0.31851328481E+02  0.43400728181E+02  0.00000000000E+00 0.  1.
         11    1    3    3    0    0 -0.18872871810E+02 -0.21035368827E+02 -0.23932561542E+02  0.37032952006E+02  0.51100000000E-03 0. -1.
        -11    1    3    3    0    0 -0.33869801714E+01 -0.16981256364E+01 -0.39132322852E+01  0.54468938431E+01  0.51100000000E-03 0.  1.
         12    1    3    3    0    0  0.34820135222E+01  0.66631087500E-02 -0.40055346540E+01  0.53074259703E+01  0.00000000000E+00 0. -1.
</event>
<event>
 7    1  0.2642243E-009  0.4778727E+02  0.7816164E-02  0.1312668E+00
        -11   -1    0    0    0    0  0.00000000000E+00  0.00000000000E+00  0.45593999997E+02  0.45594000000E+02  0.51100000000E-03 0.  1.
         11   -1    0    0    0    0 -0.00000000000E+00 -0.00000000000E+00 -0.45593999997E+02  0.45594000000E+02  0.51100000000E-03 0. -1.
    9900012    2    1    2    0    0  0.20176661467E+02 -0.21370750424E+02 -0.31934570700E+02  0.47787269045E+02  0.19999990886E+02 0.  0.
        -12    1    1    2    0    0 -0.20176661467E+02  0.21370750424E+02  0.31934570700E+02  0.43400730955E+02  0.00000000000E+00 0.  1.
         11    1    3    3    0    0  0.12265795227E+02 -0.14757899408E+02 -0.19857124616E+02  0.27614321027E+02  0.51100000000E-03 0. -1.
        -11    1    3    3    0    0  0.10039034973E+02 -0.86167046703E+01 -0.96946689839E+01  0.16401720322E+02  0.51100000000E-03 0.  1.
         12    1    3    3    0    0 -0.21281687333E+01  0.20038536551E+01 -0.23827770994E+01  0.37712276958E+01  0.00000000000E+00 0. -1.
</event>
<event>
 7    1  0.2642243E-009  0.4778727E+02  0.7816164E-02  0.1312668E+00
        -11   -1    0    0    0    0  0.00000000000E+00  0.00000000000E+00  0.45593999997E+02  0.45594000000E+02  0.51100000000E-03 0. -1.
         11   -1    0    0    0    0 -0.00000000000E+00 -0.00000000000E+00 -0.45593999997E+02  0.45594000000E+02  0.51100000000E-03 0.  1.
    9900012    2    1    2    0    0 -0.35244099678E+02  0.20706340458E+02  0.14585070603E+02  0.47787269801E+02  0.19999994332E+02 0.  0.
        -12    1    1    2    0    0  0.35244099678E+02 -0.20706340458E+02 -0.14585070603E+02  0.43400730199E+02  0.00000000000E+00 0.  1.
         11    1    3    3    0    0 -0.10568596796E+02  0.21902730584E+01 -0.10422248101E+01  0.10843374342E+02  0.51100000000E-03 0. -1.
        -11    1    3    3    0    0 -0.59686742801E+01  0.48619734156E+01  0.10838282754E+02  0.13294067529E+02  0.51100000000E-03 0.  1.
        -12    1    3    3    0    0 -0.18706828602E+02  0.13654093984E+02  0.47890126590E+01  0.23649827930E+02  0.00000000000E+00 0.  1.
</event>
<event>
 7    1  0.2642243E-009  0.4778727E+02  0.7816164E-02  0.1312668E+00
        -11   -1    0    0    0    0  0.00000000000E+00  0.00000000000E+00  0.45593999997E+02  0.45594000000E+02  0.51100000000E-03 0.  1.
         11   -1    0    0    0    0 -0.00000000000E+00 -0.00000000000E+00 -0.45593999997E+02  0.45594000000E+02  0.51100000000E-03 0. -1.
    9900012    2    1    2    0    0  0.90591644076E+01  0.21085835446E+02 -0.36836698276E+02  0.47787271249E+02  0.20000000933E+02 0.  0.
        -12    1    1    2    0    0 -0.90591644076E+01 -0.21085835446E+02  0.36836698276E+02  0.43400728751E+02  0.00000000000E+00 0.  1.
         11    1    3    3    0    0 -0.13558819646E+01  0.11045958659E+01 -0.12229173017E+02  0.12353591416E+02  0.51100000000E-03 0. -1.
        -11    1    3    3    0    0  0.47614105396E+01  0.18277801374E+02 -0.21952190865E+02  0.28959415350E+02  0.51100000000E-03 0.  1.
        -12    1    3    3    0    0  0.56536358326E+01  0.17034382065E+01 -0.26553343940E+01  0.64742644829E+01  0.00000000000E+00 0.  1.
</event>
<event>
 7    1  0.2642243E-009  0.4778727E+02  0.7816164E-02  0.1312668E+00
        -11   -1    0    0    0    0  0.00000000000E+00  0.00000000000E+00  0.45593999997E+02  0.45594000000E+02  0.51100000000E-03 0. -1.
         11   -1    0    0    0    0 -0.00000000000E+00 -0.00000000000E+00 -0.45593999997E+02  0.45594000000E+02  0.51100000000E-03 0.  1.
    9900012    2    1    2    0    0 -0.36312022677E+02  0.65894404652E+01  0.22839426904E+02  0.47787272612E+02  0.20000007146E+02 0.  0.
        -12    1    1    2    0    0  0.36312022677E+02 -0.65894404652E+01 -0.22839426904E+02  0.43400727388E+02  0.00000000000E+00 0.  1.
         11    1    3    3    0    0 -0.28129004644E+02  0.12843362204E+01  0.21220856230E+02  0.35259256390E+02  0.51100000000E-03 0. -1.
        -11    1    3    3    0    0  0.77169861906E+00  0.16642927833E+01 -0.15012473808E+01  0.23704710896E+01  0.51100000000E-03 0.  1.
         12    1    3    3    0    0 -0.89547166521E+01  0.36408114615E+01  0.31198180547E+01  0.10157545132E+02  0.00000000000E+00 0. -1.
</event>
<event>
 7    1  0.2642243E-009  0.4778726E+02  0.7816164E-02  0.1312668E+00
        -11   -1    0    0    0    0  0.00000000000E+00  0.00000000000E+00  0.45593999997E+02  0.45594000000E+02  0.51100000000E-03 0. -1.
         11   -1    0    0    0    0 -0.00000000000E+00 -0.00000000000E+00 -0.45593999997E+02  0.45594000000E+02  0.51100000000E-03 0.  1.
    9900012    2    1    2    0    0 -0.23006460672E+02 -0.35485261318E+02  0.97531179457E+01  0.47787259072E+02  0.19999945413E+02 0.  0.
        -12    1    1    2    0    0  0.23006460672E+02  0.35485261318E+02 -0.97531179457E+01  0.43400740928E+02  0.00000000000E+00 0.  1.
         11    1    3    3    0    0 -0.20189628289E+02 -0.32142813827E+02  0.59682164397E+01  0.38423966204E+02  0.51100000000E-03 0. -1.
        -11    1    3    3    0    0 -0.74323046883E+00  0.19516616650E+01 -0.61152506729E+00  0.21760831679E+01  0.51100000000E-03 0.  1.
         12    1    3    3    0    0 -0.20736019143E+01 -0.52941091559E+01  0.43964265733E+01  0.71872096998E+01  0.00000000000E+00 0. -1.
</event>
<event>
 7    1  0.2642243E-009  0.4778727E+02  0.7816164E-02  0.1312668E+00
        -11   -1    0    0    0    0  0.00000000000E+00  0.00000000000E+00  0.45593999997E+02  0.45594000000E+02  0.51100000000E-03 0.  1.
         11   -1    0    0    0    0 -0.00000000000E+00 -0.00000000000E+00 -0.45593999997E+02  0.45594000000E+02  0.51100000000E-03 0. -1.
    9900012    2    1    2    0    0  0.20194942999E+02 -0.30640417315E+02 -0.23172233361E+02  0.47787270802E+02  0.19999998895E+02 0.  0.
        -12    1    1    2    0    0 -0.20194942999E+02  0.30640417315E+02  0.23172233361E+02  0.43400729198E+02  0.00000000000E+00 0.  1.
         11    1    3    3    0    0  0.33945789542E+01 -0.11076846941E+02 -0.11359183692E+02  0.16225004125E+02  0.51100000000E-03 0. -1.
        -11    1    3    3    0    0  0.35485959597E+01 -0.73802104747E+01  0.25023620598E+01  0.85628182321E+01  0.51100000000E-03 0.  1.
        -12    1    3    3    0    0  0.13251768085E+02 -0.12183359899E+02 -0.14315411729E+02  0.22999448445E+02  0.00000000000E+00 0.  1.
</event>
<event>
 7    1  0.2642243E-009  0.4778727E+02  0.7816164E-02  0.1312668E+00
        -11   -1    0    0    0    0  0.00000000000E+00  0.00000000000E+00  0.45593999997E+02  0.45594000000E+02  0.51100000000E-03 0. -1.
         11   -1    0    0    0    0 -0.00000000000E+00 -0.00000000000E+00 -0.45593999997E+02  0.45594000000E+02  0.51100000000E-03 0.  1.
    9900012    2    1    2    0    0  0.92607276766E+01  0.36440611827E+02  0.21678187312E+02  0.47787273364E+02  0.20000010577E+02 0.  0.
        -12    1    1    2    0    0 -0.92607276766E+01 -0.36440611827E+02 -0.21678187312E+02  0.43400726636E+02  0.00000000000E+00 0.  1.
         11    1    3    3    0    0  0.39358528816E+01  0.11315287202E+02  0.10937368585E+02  0.16221981821E+02  0.51100000000E-03 0. -1.
        -11    1    3    3    0    0 -0.38387244493E+00  0.16524522937E+02  0.12962983028E+02  0.21005859792E+02  0.51100000000E-03 0.  1.
        -12    1    3    3    0    0  0.57087472399E+01  0.86008016873E+01 -0.22221643023E+01  0.10559431751E+02  0.00000000000E+00 0.  1.
</event>
<event>
 7    1  0.2642243E-009  0.4778727E+02  0.7816164E-02  0.1312668E+00
        -11   -1    0    0    0    0  0.00000000000E+00  0.00000000000E+00  0.45593999997E+02  0.45594000000E+02  0.51100000000E-03 0.  1.
         11   -1    0    0    0    0 -0.00000000000E+00 -0.00000000000E+00 -0.45593999997E+02  0.45594000000E+02  0.51100000000E-03 0. -1.
    9900012    2    1    2    0    0  0.23162623716E+02  0.23430205400E+02 -0.28251400005E+02  0.47787271150E+02  0.20000000480E+02 0.  0.
        -12    1    1    2    0    0 -0.23162623716E+02 -0.23430205400E+02  0.28251400005E+02  0.43400728850E+02  0.00000000000E+00 0.  1.
         11    1    3    3    0    0  0.14645419542E+02  0.53445252008E+01 -0.68759183748E+01  0.17039087914E+02  0.51100000000E-03 0. -1.
        -11    1    3    3    0    0 -0.15056972692E+01  0.67528216977E+01 -0.77347000342E+01  0.10377538727E+02  0.51100000000E-03 0.  1.
         12    1    3    3    0    0  0.10022901442E+02  0.11332858502E+02 -0.13640781596E+02  0.20370644509E+02  0.00000000000E+00 0. -1.
</event>
<event>
 7    1  0.2642243E-009  0.4778727E+02  0.7816164E-02  0.1312668E+00
        -11   -1    0    0    0    0  0.00000000000E+00  0.00000000000E+00  0.45593999997E+02  0.45594000000E+02  0.51100000000E-03 0. -1.
         11   -1    0    0    0    0 -0.00000000000E+00 -0.00000000000E+00 -0.45593999997E+02  0.45594000000E+02  0.51100000000E-03 0.  1.
    9900012    2    1    2    0    0  0.15521495415E+02 -0.36021923456E+02 -0.18577605152E+02  0.47787271866E+02  0.20000003748E+02 0.  0.
        -12    1    1    2    0    0 -0.15521495415E+02  0.36021923456E+02  0.18577605152E+02  0.43400728134E+02  0.00000000000E+00 0.  1.
         11    1    3    3    0    0  0.10709659399E+02 -0.20696584089E+02 -0.20000427397E+02  0.30709322586E+02  0.51100000000E-03 0. -1.
        -11    1    3    3    0    0  0.16193960135E-01 -0.56850419731E+01  0.25907373325E+01  0.62475502933E+01  0.51100000000E-03 0.  1.
         12    1    3    3    0    0  0.47956420563E+01 -0.96402973937E+01 -0.11679150877E+01  0.10830398987E+02  0.00000000000E+00 0. -1.
</event>
<event>
 7    1  0.2642243E-009  0.4778727E+02  0.7816164E-02  0.1312668E+00
        -11   -1    0    0    0    0  0.00000000000E+00  0.00000000000E+00  0.45593999997E+02  0.45594000000E+02  0.51100000000E-03 0. -1.
         11   -1    0    0    0    0 -0.00000000000E+00 -0.00000000000E+00 -0.45593999997E+02  0.45594000000E+02  0.51100000000E-03 0.  1.
    9900012    2    1    2    0    0 -0.41396372737E+02 -0.60968347103E+01  0.11523554436E+02  0.47787269866E+02  0.19999994628E+02 0.  0.
        -12    1    1    2    0    0  0.41396372737E+02  0.60968347103E+01 -0.11523554436E+02  0.43400730134E+02  0.00000000000E+00 0.  1.
         11    1    3    3    0    0 -0.28645233733E+02 -0.10288887707E+02  0.71848881630E+01  0.31273523051E+02  0.51100000000E-03 0. -1.
        -11    1    3    3    0    0 -0.95892400007E+01  0.67934542829E+01  0.24491130235E+01  0.12004278393E+02  0.51100000000E-03 0.  1.
         12    1    3    3    0    0 -0.31618990040E+01 -0.26014012864E+01  0.18895532499E+01  0.45094684220E+01  0.00000000000E+00 0. -1.
</event>
<event>
 7    1  0.2642243E-009  0.4778727E+02  0.7816164E-02  0.1312668E+00
        -11   -1    0    0    0    0  0.00000000000E+00  0.00000000000E+00  0.45593999997E+02  0.45594000000E+02  0.51100000000E-03 0.  1.
         11   -1    0    0    0    0 -0.00000000000E+00 -0.00000000000E+00 -0.45593999997E+02  0.45594000000E+02  0.51100000000E-03 0. -1.
    9900012    2    1    2    0    0 -0.21607231774E+02 -0.29305556212E+02 -0.23620651549E+02  0.47787271095E+02  0.20000000230E+02 0.  0.
        -12    1    1    2    0    0  0.21607231774E+02  0.29305556212E+02  0.23620651549E+02  0.43400728905E+02  0.00000000000E+00 0.  1.
         11    1    3    3    0    0 -0.64944314852E+01 -0.85690020881E+01 -0.14169524861E+02  0.17787098475E+02  0.51100000000E-03 0. -1.
        -11    1    3    3    0    0 -0.11535396056E+02 -0.58803272347E+01 -0.23888745692E+01  0.13166257347E+02  0.51100000000E-03 0.  1.
        -12    1    3    3    0    0 -0.35774042336E+01 -0.14856226890E+02 -0.70622521194E+01  0.16833915274E+02  0.00000000000E+00 0.  1.
</event>
<event>
 7    1  0.2642243E-009  0.4778727E+02  0.7816164E-02  0.1312668E+00
        -11   -1    0    0    0    0  0.00000000000E+00  0.00000000000E+00  0.45593999997E+02  0.45594000000E+02  0.51100000000E-03 0. -1.
         11   -1    0    0    0    0 -0.00000000000E+00 -0.00000000000E+00 -0.45593999997E+02  0.45594000000E+02  0.51100000000E-03 0.  1.
    9900012    2    1    2    0    0 -0.14856662883E+02 -0.28166118696E+02 -0.29488518582E+02  0.47787269562E+02  0.19999993239E+02 0.  0.
        -12    1    1    2    0    0  0.14856662883E+02  0.28166118696E+02  0.29488518582E+02  0.43400730438E+02  0.00000000000E+00 0.  1.
         11    1    3    3    0    0 -0.18963124261E+02 -0.16668868026E+02 -0.20715065944E+02  0.32658309820E+02  0.51100000000E-03 0. -1.
        -11    1    3    3    0    0  0.21150369615E+01 -0.82429856700E+01 -0.60460656560E+01  0.10439114152E+02  0.51100000000E-03 0.  1.
         12    1    3    3    0    0  0.19914244162E+01 -0.32542650000E+01 -0.27273869825E+01  0.46898455889E+01  0.00000000000E+00 0. -1.
</event>
<event>
 7    1  0.2642243E-009  0.4778727E+02  0.7816164E-02  0.1312668E+00
        -11   -1    0    0    0    0  0.00000000000E+00  0.00000000000E+00  0.45593999997E+02  0.45594000000E+02  0.51100000000E-03 0. -1.
         11   -1    0    0    0    0 -0.00000000000E+00 -0.00000000000E+00 -0.45593999997E+02  0.45594000000E+02  0.51100000000E-03 0.  1.
    9900012    2    1    2    0    0 -0.70332111580E+01 -0.15780725607E+02  0.39813637620E+02  0.47787273043E+02  0.20000009114E+02 0.  0.
        -12    1    1    2    0    0  0.70332111580E+01  0.15780725607E+02 -0.39813637620E+02  0.43400726957E+02  0.00000000000E+00 0.  1.
         11    1    3    3    0    0 -0.55147279314E+00 -0.14668966399E+02  0.15112706878E+02  0.21068379314E+02  0.51100000000E-03 0. -1.
        -11    1    3    3    0    0 -0.39955857713E+01  0.31297670694E+01  0.99414938001E+01  0.11162143468E+02  0.51100000000E-03 0.  1.
         12    1    3    3    0    0 -0.24861525936E+01 -0.42415262769E+01  0.14759436941E+02  0.15556750261E+02  0.00000000000E+00 0. -1.
</event>
<event>
 7    1  0.2642243E-009  0.4778727E+02  0.7816164E-02  0.1312668E+00
        -11   -1    0    0    0    0  0.00000000000E+00  0.00000000000E+00  0.45593999997E+02  0.45594000000E+02  0.51100000000E-03 0.  1.
         11   -1    0    0    0    0 -0.00000000000E+00 -0.00000000000E+00 -0.45593999997E+02  0.45594000000E+02  0.51100000000E-03 0. -1.
    9900012    2    1    2    0    0 -0.81864122772E+01  0.33439231537E+02 -0.26427706768E+02  0.47787271472E+02  0.20000001948E+02 0.  0.
        -12    1    1    2    0    0  0.81864122772E+01 -0.33439231537E+02  0.26427706768E+02  0.43400728528E+02  0.00000000000E+00 0.  1.
         11    1    3    3    0    0  0.44696367479E+01  0.85621203217E+01 -0.13443519520E+01  0.97516582946E+01  0.51100000000E-03 0. -1.
        -11    1    3    3    0    0 -0.33766932420E+01  0.25592209694E+01 -0.54054863634E+01  0.68681112620E+01  0.51100000000E-03 0.  1.
         12    1    3    3    0    0 -0.92793557831E+01  0.22317890246E+02 -0.19677868453E+02  0.31167501915E+02  0.00000000000E+00 0. -1.
</event>
<event>
 7    1  0.2642243E-009  0.4778727E+02  0.7816164E-02  0.1312668E+00
        -11   -1    0    0    0    0  0.00000000000E+00  0.00000000000E+00  0.45593999997E+02  0.45594000000E+02  0.51100000000E-03 0.  1.
         11   -1    0    0    0    0 -0.00000000000E+00 -0.00000000000E+00 -0.45593999997E+02  0.45594000000E+02  0.51100000000E-03 0. -1.
    9900012    2    1    2    0    0  0.18435823800E+02 -0.92460715083E+01 -0.38187088734E+02  0.47787272085E+02  0.20000004745E+02 0.  0.
        -12    1    1    2    0    0 -0.18435823800E+02  0.92460715083E+01  0.38187088734E+02  0.43400727915E+02  0.00000000000E+00 0.  1.
         11    1    3    3    0    0  0.18846455129E+02 -0.31684121153E+01 -0.20463279803E+02  0.27999527260E+02  0.51100000000E-03 0. -1.
        -11    1    3    3    0    0 -0.28530382198E+01 -0.52646096426E+01 -0.14308842635E+02  0.15511251387E+02  0.51100000000E-03 0.  1.
        -12    1    3    3    0    0  0.24424068910E+01 -0.81304975037E+00 -0.34149662968E+01  0.42764934381E+01  0.00000000000E+00 0.  1.
</event>
<event>
 7    1  0.2642243E-009  0.4778727E+02  0.7816164E-02  0.1312668E+00
        -11   -1    0    0    0    0  0.00000000000E+00  0.00000000000E+00  0.45593999997E+02  0.45594000000E+02  0.51100000000E-03 0.  1.
         11   -1    0    0    0    0 -0.00000000000E+00 -0.00000000000E+00 -0.45593999997E+02  0.45594000000E+02  0.51100000000E-03 0. -1.
    9900012    2    1    2    0    0 -0.22094641226E+02 -0.26211415222E+02 -0.26616009721E+02  0.47787269219E+02  0.19999991676E+02 0.  0.
        -12    1    1    2    0    0  0.22094641226E+02  0.26211415222E+02  0.26616009721E+02  0.43400730781E+02  0.00000000000E+00 0.  1.
         11    1    3    3    0    0 -0.24726937805E+01 -0.11840498818E+02 -0.12475848494E+02  0.17376950903E+02  0.51100000000E-03 0. -1.
        -11    1    3    3    0    0 -0.13229048637E+02 -0.64202596448E+01 -0.24719754961E+01  0.14911006836E+02  0.51100000000E-03 0.  1.
        -12    1    3    3    0    0 -0.63928988087E+01 -0.79506567594E+01 -0.11668185731E+02  0.15499311479E+02  0.00000000000E+00 0.  1.
</event>
<event>
 7    1  0.2642243E-009  0.4778727E+02  0.7816164E-02  0.1312668E+00
        -11   -1    0    0    0    0  0.00000000000E+00  0.00000000000E+00  0.45593999997E+02  0.45594000000E+02  0.51100000000E-03 0. -1.
         11   -1    0    0    0    0 -0.00000000000E+00 -0.00000000000E+00 -0.45593999997E+02  0.45594000000E+02  0.51100000000E-03 0.  1.
    9900012    2    1    2    0    0 -0.13834078562E+02  0.40932860631E+02  0.40917199994E+01  0.47787274411E+02  0.20000015351E+02 0.  0.
        -12    1    1    2    0    0  0.13834078562E+02 -0.40932860631E+02 -0.40917199994E+01  0.43400725589E+02  0.00000000000E+00 0.  1.
         11    1    3    3    0    0 -0.63651053440E+01  0.23633563743E+02  0.86647303309E+01  0.25964157086E+02  0.51100000000E-03 0. -1.
        -11    1    3    3    0    0 -0.96579390695E+01  0.11389515588E+02 -0.41879474332E+01  0.15509215208E+02  0.51100000000E-03 0.  1.
         12    1    3    3    0    0  0.21889658517E+01  0.59097812998E+01 -0.38506289835E+00  0.63139021173E+01  0.00000000000E+00 0. -1.
</event>
<event>
 7    1  0.2642243E-009  0.4778726E+02  0.7816164E-02  0.1312668E+00
        -11   -1    0    0    0    0  0.00000000000E+00  0.00000000000E+00  0.45593999997E+02  0.45594000000E+02  0.51100000000E-03 0. -1.
         11   -1    0    0    0    0 -0.00000000000E+00 -0.00000000000E+00 -0.45593999997E+02  0.45594000000E+02  0.51100000000E-03 0.  1.
    9900012    2    1    2    0    0  0.37490901672E+02  0.33516039261E+00  0.21861925685E+02  0.47787264577E+02  0.19999970511E+02 0.  0.
        -12    1    1    2    0    0 -0.37490901672E+02 -0.33516039261E+00 -0.21861925685E+02  0.43400735423E+02  0.00000000000E+00 0.  1.
         11    1    3    3    0    0  0.13931470765E+02 -0.72321906539E+01  0.87578639977E+01  0.17974722290E+02  0.51100000000E-03 0. -1.
        -11    1    3    3    0    0  0.24177449664E+02  0.84967893701E+01  0.12234631378E+02  0.28397723625E+02  0.51100000000E-03 0.  1.
        -12    1    3    3    0    0 -0.61801875800E+00 -0.92943832363E+00  0.86943030933E+00  0.14148186617E+01  0.00000000000E+00 0.  1.
</event>
<event>
 7    1  0.2642243E-009  0.4778727E+02  0.7816164E-02  0.1312668E+00
        -11   -1    0    0    0    0  0.00000000000E+00  0.00000000000E+00  0.45593999997E+02  0.45594000000E+02  0.51100000000E-03 0.  1.
         11   -1    0    0    0    0 -0.00000000000E+00 -0.00000000000E+00 -0.45593999997E+02  0.45594000000E+02  0.51100000000E-03 0. -1.
    9900012    2    1    2    0    0  0.10522844973E+02  0.38611952579E+02 -0.16793155483E+02  0.47787271672E+02  0.20000002862E+02 0.  0.
        -12    1    1    2    0    0 -0.10522844973E+02 -0.38611952579E+02  0.16793155483E+02  0.43400728328E+02  0.00000000000E+00 0.  1.
         11    1    3    3    0    0  0.51070770923E+01  0.17958959485E+02 -0.11085911189E+02  0.21714140309E+02  0.51100000000E-03 0. -1.
        -11    1    3    3    0    0  0.29109576267E+01 -0.14103044799E+01 -0.64153154588E+00  0.32976045876E+01  0.51100000000E-03 0.  1.
        -12    1    3    3    0    0  0.25048102544E+01  0.22063297574E+02 -0.50657127485E+01  0.22775526776E+02  0.00000000000E+00 0.  1.
</event>
<event>
 7    1  0.2642243E-009  0.4778726E+02  0.7816164E-02  0.1312668E+00
        -11   -1    0    0    0    0  0.00000000000E+00  0.00000000000E+00  0.45593999997E+02  0.45594000000E+02  0.51100000000E-03 0.  1.
         11   -1    0    0    0    0 -0.00000000000E+00 -0.00000000000E+00 -0.45593999997E+02  0.45594000000E+02  0.51100000000E-03 0. -1.
    9900012    2    1    2    0    0  0.30435233493E+02  0.62821313706E+01 -0.30296128136E+02  0.47787262767E+02  0.19999962259E+02 0.  0.
        -12    1    1    2    0    0 -0.30435233493E+02 -0.62821313706E+01  0.30296128136E+02  0.43400737233E+02  0.00000000000E+00 0.  1.
         11    1    3    3    0    0  0.14136266344E+02 -0.30249524443E+01 -0.22965286093E+02  0.27136483358E+02  0.51100000000E-03 0. -1.
        -11    1    3    3    0    0  0.34044755972E+01  0.33575286561E+01 -0.26438642809E+00  0.47888780746E+01  0.51100000000E-03 0.  1.
         12    1    3    3    0    0  0.12894491552E+02  0.59495551588E+01 -0.70664556149E+01  0.15861901334E+02  0.00000000000E+00 0. -1.
</event>
<event>
 7    1  0.2642243E-009  0.4778727E+02  0.7816164E-02  0.1312668E+00
        -11   -1    0    0    0    0  0.00000000000E+00  0.00000000000E+00  0.45593999997E+02  0.45594000000E+02  0.51100000000E-03 0.  1.
         11   -1    0    0    0    0 -0.00000000000E+00 -0.00000000000E+00 -0.45593999997E+02  0.45594000000E+02  0.51100000000E-03 0. -1.
    9900012    2    1    2    0    0  0.41177270120E+02 -0.11963715855E+02 -0.67026359392E+01  0.47787269590E+02  0.19999993369E+02 0.  0.
        -12    1    1    2    0    0 -0.41177270120E+02  0.11963715855E+02  0.67026359392E+01  0.43400730410E+02  0.00000000000E+00 0.  1.
         11    1    3    3    0    0  0.30540603717E+02 -0.64386228300E+01 -0.96613414218E+01  0.32673014212E+02  0.51100000000E-03 0. -1.
        -11    1    3    3    0    0  0.80395406054E+01  0.24404768019E+00  0.34846779309E+01  0.87656575885E+01  0.51100000000E-03 0.  1.
         12    1    3    3    0    0  0.25971257975E+01 -0.57691407051E+01 -0.52597244823E+00  0.63485977900E+01  0.00000000000E+00 0. -1.
</event>
<event>
 7    1  0.2642243E-009  0.4778727E+02  0.7816164E-02  0.1312668E+00
        -11   -1    0    0    0    0  0.00000000000E+00  0.00000000000E+00  0.45593999997E+02  0.45594000000E+02  0.51100000000E-03 0.  1.
         11   -1    0    0    0    0 -0.00000000000E+00 -0.00000000000E+00 -0.45593999997E+02  0.45594000000E+02  0.51100000000E-03 0. -1.
    9900012    2    1    2    0    0  0.57606298270E+01  0.36461913826E+02 -0.22824707328E+02  0.47787270968E+02  0.19999999651E+02 0.  0.
        -12    1    1    2    0    0 -0.57606298270E+01 -0.36461913826E+02  0.22824707328E+02  0.43400729032E+02  0.00000000000E+00 0.  1.
         11    1    3    3    0    0 -0.81987179193E+00  0.20299720169E+02 -0.99999076599E+01  0.22643961273E+02  0.51100000000E-03 0. -1.
        -11    1    3    3    0    0  0.59931423873E+01  0.51303976670E+01  0.41471094027E+00  0.79000456531E+01  0.51100000000E-03 0.  1.
        -12    1    3    3    0    0  0.58735923167E+00  0.11031795991E+02 -0.13239510609E+02  0.17243264042E+02  0.00000000000E+00 0.  1.
</event>
<event>
 7    1  0.2642243E-009  0.4778727E+02  0.7816164E-02  0.1312668E+00
        -11   -1    0    0    0    0  0.00000000000E+00  0.00000000000E+00  0.45593999997E+02  0.45594000000E+02  0.51100000000E-03 0. -1.
         11   -1    0    0    0    0 -0.00000000000E+00 -0.00000000000E+00 -0.45593999997E+02  0.45594000000E+02  0.51100000000E-03 0.  1.
    9900012    2    1    2    0    0  0.31661328226E+02  0.26307235587E+02  0.13751831683E+02  0.47787271620E+02  0.20000002624E+02 0.  0.
        -12    1    1    2    0    0 -0.31661328226E+02 -0.26307235587E+02 -0.13751831683E+02  0.43400728380E+02  0.00000000000E+00 0.  1.
         11    1    3    3    0    0  0.25626955900E+02  0.23832300841E+02  0.32175255587E+01  0.35143589787E+02  0.51100000000E-03 0. -1.
        -11    1    3    3    0    0  0.35773399101E+01  0.27585716147E+01  0.66836201413E+01  0.80670847671E+01  0.51100000000E-03 0.  1.
         12    1    3    3    0    0  0.24570324155E+01 -0.28363686887E+00  0.38506859835E+01  0.45765970664E+01  0.00000000000E+00 0. -1.
</event>
<event>
 7    1  0.2642243E-009  0.4778727E+02  0.7816164E-02  0.1312668E+00
        -11   -1    0    0    0    0  0.00000000000E+00  0.00000000000E+00  0.45593999997E+02  0.45594000000E+02  0.51100000000E-03 0.  1.
         11   -1    0    0    0    0 -0.00000000000E+00 -0.00000000000E+00 -0.45593999997E+02  0.45594000000E+02  0.51100000000E-03 0. -1.
    9900012    2    1    2    0    0  0.13671289919E+02  0.30611908216E+02 -0.27561394284E+02  0.47787267891E+02  0.19999985622E+02 0.  0.
        -12    1    1    2    0    0 -0.13671289919E+02 -0.30611908216E+02  0.27561394284E+02  0.43400732109E+02  0.00000000000E+00 0.  1.
         11    1    3    3    0    0  0.14772489266E+02  0.15704185754E+02 -0.15992750269E+02  0.26844290841E+02  0.51100000000E-03 0. -1.
        -11    1    3    3    0    0 -0.38871978074E+01  0.11165643252E+02 -0.48855454552E+01  0.12792593587E+02  0.51100000000E-03 0.  1.
         12    1    3    3    0    0  0.27859984603E+01  0.37420792108E+01 -0.66830985598E+01  0.81503834634E+01  0.00000000000E+00 0. -1.
</event>
<event>
 7    1  0.2642243E-009  0.4778727E+02  0.7816164E-02  0.1312668E+00
        -11   -1    0    0    0    0  0.00000000000E+00  0.00000000000E+00  0.45593999997E+02  0.45594000000E+02  0.51100000000E-03 0.  1.
         11   -1    0    0    0    0 -0.00000000000E+00 -0.00000000000E+00 -0.45593999997E+02  0.45594000000E+02  0.51100000000E-03 0. -1.
    9900012    2    1    2    0    0 -0.20189012878E+02 -0.14277171131E+02 -0.35667766010E+02  0.47787269722E+02  0.19999993970E+02 0.  0.
        -12    1    1    2    0    0  0.20189012878E+02  0.14277171131E+02  0.35667766010E+02  0.43400730278E+02  0.00000000000E+00 0.  1.
         11    1    3    3    0    0  0.61949523436E-01 -0.88914739708E+01 -0.59223944101E+01  0.10683487395E+02  0.51100000000E-03 0. -1.
        -11    1    3    3    0    0  0.43340302743E+00  0.16307428270E+00 -0.20098569949E+01  0.20625122562E+01  0.51100000000E-03 0.  1.
         12    1    3    3    0    0 -0.20684365429E+02 -0.55487714433E+01 -0.27735514605E+02  0.35041270070E+02  0.00000000000E+00 0. -1.
</event>
<event>
 7    1  0.2642243E-009  0.4778729E+02  0.7816164E-02  0.1312668E+00
        -11   -1    0    0    0    0  0.00000000000E+00  0.00000000000E+00  0.45593999997E+02  0.45594000000E+02  0.51100000000E-03 0.  1.
         11   -1    0    0    0    0 -0.00000000000E+00 -0.00000000000E+00 -0.45593999997E+02  0.45594000000E+02  0.51100000000E-03 0. -1.
    9900012    2    1    2    0    0  0.36881118824E+02  0.21099123213E+02 -0.88448882856E+01  0.47787286009E+02  0.20000068231E+02 0.  0.
        -12    1    1    2    0    0 -0.36881118824E+02 -0.21099123213E+02  0.88448882856E+01  0.43400713991E+02  0.00000000000E+00 0.  1.
         11    1    3    3    0    0  0.79882337824E+01  0.22341546313E+01  0.25401931592E+01  0.86750162781E+01  0.51100000000E-03 0. -1.
        -11    1    3    3    0    0  0.28752680494E+02  0.16247843515E+02 -0.13565105130E+02  0.35703236995E+02  0.51100000000E-03 0.  1.
        -12    1    3    3    0    0  0.14020454843E+00  0.26171250672E+01  0.21800236851E+01  0.34090327367E+01  0.00000000000E+00 0.  1.
</event>
<event>
 7    1  0.2642243E-009  0.4778729E+02  0.7816164E-02  0.1312668E+00
        -11   -1    0    0    0    0  0.00000000000E+00  0.00000000000E+00  0.45593999997E+02  0.45594000000E+02  0.51100000000E-03 0.  1.
         11   -1    0    0    0    0 -0.00000000000E+00 -0.00000000000E+00 -0.45593999997E+02  0.45594000000E+02  0.51100000000E-03 0. -1.
    9900012    2    1    2    0    0  0.27893859093E+02  0.24081037735E+02 -0.22927223119E+02  0.47787293629E+02  0.20000102972E+02 0.  0.
        -12    1    1    2    0    0 -0.27893859093E+02 -0.24081037735E+02  0.22927223119E+02  0.43400706371E+02  0.00000000000E+00 0.  1.
         11    1    3    3    0    0  0.23149736580E+01 -0.14146155994E+01  0.15812305188E+01  0.31401481726E+01  0.51100000000E-03 0. -1.
        -11    1    3    3    0    0 -0.16385571559E+00  0.80067835539E+00  0.60879112305E+00  0.10190983353E+01  0.51100000000E-03 0.  1.
         12    1    3    3    0    0  0.25742741151E+02  0.24694974979E+02 -0.25117244761E+02  0.43628047121E+02  0.00000000000E+00 0. -1.
</event>
<event>
 7    1  0.2642243E-009  0.4778729E+02  0.7816164E-02  0.1312668E+00
        -11   -1    0    0    0    0  0.00000000000E+00  0.00000000000E+00  0.45593999997E+02  0.45594000000E+02  0.51100000000E-03 0. -1.
         11   -1    0    0    0    0 -0.00000000000E+00 -0.00000000000E+00 -0.45593999997E+02  0.45594000000E+02  0.51100000000E-03 0.  1.
    9900012    2    1    2    0    0 -0.33657833170E+02 -0.23414310157E+02  0.14231734417E+02  0.47787286661E+02  0.20000071203E+02 0.  0.
        -12    1    1    2    0    0  0.33657833170E+02  0.23414310157E+02 -0.14231734417E+02  0.43400713339E+02  0.00000000000E+00 0.  1.
         11    1    3    3    0    0 -0.14232670501E+02 -0.34072811218E+01  0.13129676669E+02  0.19661304228E+02  0.51100000000E-03 0. -1.
        -11    1    3    3    0    0 -0.14551192113E+02 -0.15185475021E+02 -0.67830118806E+00  0.21042716941E+02  0.51100000000E-03 0.  1.
         12    1    3    3    0    0 -0.48739705554E+01 -0.48215540146E+01  0.17803589362E+01  0.70832654921E+01  0.00000000000E+00 0. -1.
</event>
<event>
 7    1  0.2642243E-009  0.4778727E+02  0.7816164E-02  0.1312668E+00
        -11   -1    0    0    0    0  0.00000000000E+00  0.00000000000E+00  0.45593999997E+02  0.45594000000E+02  0.51100000000E-03 0. -1.
         11   -1    0    0    0    0 -0.00000000000E+00 -0.00000000000E+00 -0.45593999997E+02  0.45594000000E+02  0.51100000000E-03 0.  1.
    9900012    2    1    2    0    0  0.12942165295E+02  0.39853434718E+02  0.11306071501E+02  0.47787272424E+02  0.20000006290E+02 0.  0.
        -12    1    1    2    0    0 -0.12942165295E+02 -0.39853434718E+02 -0.11306071501E+02  0.43400727576E+02  0.00000000000E+00 0.  1.
         11    1    3    3    0    0  0.63906464908E+01  0.17881918692E+02  0.14879229907E+02  0.24124569666E+02  0.51100000000E-03 0. -1.
        -11    1    3    3    0    0  0.40049133058E+01  0.73368933157E+01 -0.26938879383E+01  0.87821618408E+01  0.51100000000E-03 0.  1.
         12    1    3    3    0    0  0.25466054989E+01  0.14634622710E+02 -0.87927046761E+00  0.14880540917E+02  0.00000000000E+00 0. -1.
</event>
<event>
 7    1  0.2642243E-009  0.4778727E+02  0.7816164E-02  0.1312668E+00
        -11   -1    0    0    0    0  0.00000000000E+00  0.00000000000E+00  0.45593999997E+02  0.45594000000E+02  0.51100000000E-03 0. -1.
         11   -1    0    0    0    0 -0.00000000000E+00 -0.00000000000E+00 -0.45593999997E+02  0.45594000000E+02  0.51100000000E-03 0.  1.
    9900012    2    1    2    0    0  0.36746437823E+02 -0.84826346657E+00  0.23078199222E+02  0.47787268175E+02  0.19999986918E+02 0.  0.
        -12    1    1    2    0    0 -0.36746437823E+02  0.84826346657E+00 -0.23078199222E+02  0.43400731825E+02  0.00000000000E+00 0.  1.
         11    1    3    3    0    0  0.11913387651E+02  0.52463085911E+01  0.62645958856E+01  0.14446373975E+02  0.51100000000E-03 0. -1.
        -11    1    3    3    0    0  0.69272321218E+01 -0.82192198171E+01  0.67157482668E+01  0.12674517518E+02  0.51100000000E-03 0.  1.
        -12    1    3    3    0    0  0.17905818051E+02  0.21246477595E+01  0.10097855069E+02  0.20666376682E+02  0.00000000000E+00 0.  1.
</event>
<event>
 7    1  0.2642243E-009  0.4778727E+02  0.7816164E-02  0.1312668E+00
        -11   -1    0    0    0    0  0.00000000000E+00  0.00000000000E+00  0.45593999997E+02  0.45594000000E+02  0.51100000000E-03 0.  1.
         11   -1    0    0    0    0 -0.00000000000E+00 -0.00000000000E+00 -0.45593999997E+02  0.45594000000E+02  0.51100000000E-03 0. -1.
    9900012    2    1    2    0    0 -0.10091215664E+02  0.58495106520E+01 -0.41803994929E+02  0.47787269586E+02  0.19999993351E+02 0.  0.
        -12    1    1    2    0    0  0.10091215664E+02 -0.58495106520E+01  0.41803994929E+02  0.43400730414E+02  0.00000000000E+00 0.  1.
         11    1    3    3    0    0 -0.12858866097E+02 -0.11638751522E+01 -0.19020467725E+02  0.22988763242E+02  0.51100000000E-03 0. -1.
        -11    1    3    3    0    0  0.47801538219E+01  0.44680161210E+01 -0.14908942939E+02  0.16281572972E+02  0.51100000000E-03 0.  1.
        -12    1    3    3    0    0 -0.20125033883E+01  0.25453696833E+01 -0.78745842647E+01  0.85169333715E+01  0.00000000000E+00 0.  1.
</event>
<event>
 7    1  0.2642243E-009  0.4778727E+02  0.7816164E-02  0.1312668E+00
        -11   -1    0    0    0    0  0.00000000000E+00  0.00000000000E+00  0.45593999997E+02  0.45594000000E+02  0.51100000000E-03 0.  1.
         11   -1    0    0    0    0 -0.00000000000E+00 -0.00000000000E+00 -0.45593999997E+02  0.45594000000E+02  0.51100000000E-03 0. -1.
    9900012    2    1    2    0    0 -0.24415953573E+02  0.37249302779E+01 -0.35687669523E+02  0.47787266707E+02  0.19999980222E+02 0.  0.
        -12    1    1    2    0    0  0.24415953573E+02 -0.37249302779E+01  0.35687669523E+02  0.43400733293E+02  0.00000000000E+00 0.  1.
         11    1    3    3    0    0 -0.26043385177E+01 -0.15993496151E+00 -0.97360260122E+01  0.10079601236E+02  0.51100000000E-03 0. -1.
        -11    1    3    3    0    0 -0.15656294982E+02 -0.49920276197E+01 -0.13898036580E+02  0.21521973268E+02  0.51100000000E-03 0.  1.
        -12    1    3    3    0    0 -0.61553200740E+01  0.88768928591E+01 -0.12053606930E+02  0.16185692202E+02  0.00000000000E+00 0.  1.
</event>
<event>
 7    1  0.2642243E-009  0.4778727E+02  0.7816164E-02  0.1312668E+00
        -11   -1    0    0    0    0  0.00000000000E+00  0.00000000000E+00  0.45593999997E+02  0.45594000000E+02  0.51100000000E-03 0.  1.
         11   -1    0    0    0    0 -0.00000000000E+00 -0.00000000000E+00 -0.45593999997E+02  0.45594000000E+02  0.51100000000E-03 0. -1.
    9900012    2    1    2    0    0 -0.59343129164E+01  0.12830034317E+02 -0.41034099538E+02  0.47787272180E+02  0.20000005178E+02 0.  0.
        -12    1    1    2    0    0  0.59343129164E+01 -0.12830034317E+02  0.41034099538E+02  0.43400727820E+02  0.00000000000E+00 0.  1.
         11    1    3    3    0    0 -0.35202910371E+01 -0.22121900051E+01 -0.19405192259E+02  0.19845597004E+02  0.51100000000E-03 0. -1.
        -11    1    3    3    0    0  0.21401366642E+01  0.85921820226E+01 -0.68842659106E+01  0.11216010621E+02  0.51100000000E-03 0.  1.
        -12    1    3    3    0    0 -0.45541585435E+01  0.64500422998E+01 -0.14744641369E+02  0.16725664555E+02  0.00000000000E+00 0.  1.
</event>
<event>
 7    1  0.2642243E-009  0.4778728E+02  0.7816164E-02  0.1312668E+00
        -11   -1    0    0    0    0  0.00000000000E+00  0.00000000000E+00  0.45593999997E+02  0.45594000000E+02  0.51100000000E-03 0. -1.
         11   -1    0    0    0    0 -0.00000000000E+00 -0.00000000000E+00 -0.45593999997E+02  0.45594000000E+02  0.51100000000E-03 0.  1.
    9900012    2    1    2    0    0  0.28214353788E+02 -0.14361567616E+02  0.29687007944E+02  0.47787276219E+02  0.20000023594E+02 0.  0.
        -12    1    1    2    0    0 -0.28214353788E+02  0.14361567616E+02 -0.29687007944E+02  0.43400723781E+02  0.00000000000E+00 0.  1.
         11    1    3    3    0    0  0.24415893368E+02 -0.10745182126E+02  0.19778498388E+02  0.33208188548E+02  0.51100000000E-03 0. -1.
        -11    1    3    3    0    0 -0.10298306528E+01  0.74689620122E+00  0.75511206100E+01  0.76575340572E+01  0.51100000000E-03 0.  1.
        -12    1    3    3    0    0  0.48282910731E+01 -0.43632816903E+01  0.23573889455E+01  0.69215536143E+01  0.00000000000E+00 0.  1.
</event>
<event>
 7    1  0.2642243E-009  0.4778727E+02  0.7816164E-02  0.1312668E+00
        -11   -1    0    0    0    0  0.00000000000E+00  0.00000000000E+00  0.45593999997E+02  0.45594000000E+02  0.51100000000E-03 0.  1.
         11   -1    0    0    0    0 -0.00000000000E+00 -0.00000000000E+00 -0.45593999997E+02  0.45594000000E+02  0.51100000000E-03 0. -1.
    9900012    2    1    2    0    0  0.22712671200E+02  0.18462130690E+02 -0.32045396063E+02  0.47787272915E+02  0.20000008530E+02 0.  0.
        -12    1    1    2    0    0 -0.22712671200E+02 -0.18462130690E+02  0.32045396063E+02  0.43400727085E+02  0.00000000000E+00 0.  1.
         11    1    3    3    0    0  0.38113109695E+01 -0.48535523309E+00  0.83272795439E+00  0.39312971289E+01  0.51100000000E-03 0. -1.
        -11    1    3    3    0    0  0.33091021810E+01  0.73485560244E+01 -0.38706501647E+01  0.89405461716E+01  0.51100000000E-03 0.  1.
         12    1    3    3    0    0  0.15592258049E+02  0.11598929898E+02 -0.29007473853E+02  0.34915429615E+02  0.00000000000E+00 0. -1.
</event>
<event>
 7    1  0.2642243E-009  0.4778728E+02  0.7816164E-02  0.1312668E+00
        -11   -1    0    0    0    0  0.00000000000E+00  0.00000000000E+00  0.45593999997E+02  0.45594000000E+02  0.51100000000E-03 0.  1.
         11   -1    0    0    0    0 -0.00000000000E+00 -0.00000000000E+00 -0.45593999997E+02  0.45594000000E+02  0.51100000000E-03 0. -1.
    9900012    2    1    2    0    0  0.16399441729E+02  0.15437346834E+02 -0.37099451793E+02  0.47787277775E+02  0.20000030687E+02 0.  0.
        -12    1    1    2    0    0 -0.16399441729E+02 -0.15437346834E+02  0.37099451793E+02  0.43400722225E+02  0.00000000000E+00 0.  1.
         11    1    3    3    0    0  0.72932962919E+01  0.11186689606E+02 -0.28526195158E+02  0.31497269812E+02  0.51100000000E-03 0. -1.
        -11    1    3    3    0    0  0.45206912728E+00  0.13870674629E+01  0.19064093945E+01  0.24005665338E+01  0.51100000000E-03 0.  1.
        -12    1    3    3    0    0  0.86540763101E+01  0.28635897646E+01 -0.10479666029E+02  0.13889441429E+02  0.00000000000E+00 0.  1.
</event>
<event>
 7    1  0.2642243E-009  0.4778727E+02  0.7816164E-02  0.1312668E+00
        -11   -1    0    0    0    0  0.00000000000E+00  0.00000000000E+00  0.45593999997E+02  0.45594000000E+02  0.51100000000E-03 0.  1.
         11   -1    0    0    0    0 -0.00000000000E+00 -0.00000000000E+00 -0.45593999997E+02  0.45594000000E+02  0.51100000000E-03 0. -1.
    9900012    2    1    2    0    0  0.22513447208E+02 -0.34182702278E+02 -0.14432991152E+02  0.47787266438E+02  0.19999978996E+02 0.  0.
        -12    1    1    2    0    0 -0.22513447208E+02  0.34182702278E+02  0.14432991152E+02  0.43400733562E+02  0.00000000000E+00 0.  1.
         11    1    3    3    0    0  0.14587267116E+02 -0.12387385298E+02 -0.67990087074E+01  0.20309165322E+02  0.51100000000E-03 0. -1.
        -11    1    3    3    0    0 -0.26770591567E+01 -0.60977909219E+01 -0.50538650278E+01  0.83600987934E+01  0.51100000000E-03 0.  1.
        -12    1    3    3    0    0  0.10603239248E+02 -0.15697526058E+02 -0.25801174163E+01  0.19118002322E+02  0.00000000000E+00 0.  1.
</event>
<event>
 7    1  0.2642243E-009  0.4778726E+02  0.7816164E-02  0.1312668E+00
        -11   -1    0    0    0    0  0.00000000000E+00  0.00000000000E+00  0.45593999997E+02  0.45594000000E+02  0.51100000000E-03 0.  1.
         11   -1    0    0    0    0 -0.00000000000E+00 -0.00000000000E+00 -0.45593999997E+02  0.45594000000E+02  0.51100000000E-03 0. -1.
    9900012    2    1    2    0    0 -0.13701763213E+02  0.22054333147E+02 -0.34777751283E+02  0.47787263715E+02  0.19999966584E+02 0.  0.
        -12    1    1    2    0    0  0.13701763213E+02 -0.22054333147E+02  0.34777751283E+02  0.43400736285E+02  0.00000000000E+00 0.  1.
         11    1    3    3    0    0 -0.13034975810E+01  0.53564295110E+01 -0.33369018559E+01  0.64440171715E+01  0.51100000000E-03 0. -1.
        -11    1    3    3    0    0 -0.38078997797E+01  0.24542189718E+01  0.12191778552E+01  0.46914482196E+01  0.51100000000E-03 0.  1.
        -12    1    3    3    0    0 -0.85903658524E+01  0.14243684664E+02 -0.32660027283E+02  0.36651798324E+02  0.00000000000E+00 0.  1.
</event>
<event>
 7    1  0.2642243E-009  0.4778727E+02  0.7816164E-02  0.1312668E+00
        -11   -1    0    0    0    0  0.00000000000E+00  0.00000000000E+00  0.45593999997E+02  0.45594000000E+02  0.51100000000E-03 0.  1.
         11   -1    0    0    0    0 -0.00000000000E+00 -0.00000000000E+00 -0.45593999997E+02  0.45594000000E+02  0.51100000000E-03 0. -1.
    9900012    2    1    2    0    0  0.33524518323E+02 -0.26554601307E+02 -0.73880444561E+01  0.47787269819E+02  0.19999994412E+02 0.  0.
        -12    1    1    2    0    0 -0.33524518323E+02  0.26554601307E+02  0.73880444561E+01  0.43400730181E+02  0.00000000000E+00 0.  1.
         11    1    3    3    0    0  0.21432827851E+02 -0.19928057689E+02 -0.14189772447E+01  0.29300291630E+02  0.51100000000E-03 0. -1.
        -11    1    3    3    0    0  0.88830922298E+00 -0.38680832021E+01 -0.57003524684E+01  0.69458749959E+01  0.51100000000E-03 0.  1.
        -12    1    3    3    0    0  0.11203381250E+02 -0.27584604160E+01 -0.26871474302E+00  0.11541103193E+02  0.00000000000E+00 0.  1.
</event>
<event>
 7    1  0.2642243E-009  0.4778727E+02  0.7816164E-02  0.1312668E+00
        -11   -1    0    0    0    0  0.00000000000E+00  0.00000000000E+00  0.45593999997E+02  0.45594000000E+02  0.51100000000E-03 0.  1.
         11   -1    0    0    0    0 -0.00000000000E+00 -0.00000000000E+00 -0.45593999997E+02  0.45594000000E+02  0.51100000000E-03 0. -1.
    9900012    2    1    2    0    0 -0.41429680565E+02  0.10193661136E+02 -0.79557882839E+01  0.47787265833E+02  0.19999976238E+02 0.  0.
        -12    1    1    2    0    0  0.41429680565E+02 -0.10193661136E+02  0.79557882839E+01  0.43400734167E+02  0.00000000000E+00 0.  1.
         11    1    3    3    0    0 -0.14128141570E+02 -0.39240632875E+01 -0.77878868636E+01  0.16602826234E+02  0.51100000000E-03 0. -1.
        -11    1    3    3    0    0 -0.22010865765E+02  0.12216924699E+02  0.17747002994E+01  0.25236501783E+02  0.51100000000E-03 0.  1.
        -12    1    3    3    0    0 -0.52906732297E+01  0.19007997251E+01 -0.19426017197E+01  0.59479378157E+01  0.00000000000E+00 0.  1.
</event>
<event>
 7    1  0.2642243E-009  0.4778727E+02  0.7816164E-02  0.1312668E+00
        -11   -1    0    0    0    0  0.00000000000E+00  0.00000000000E+00  0.45593999997E+02  0.45594000000E+02  0.51100000000E-03 0.  1.
         11   -1    0    0    0    0 -0.00000000000E+00 -0.00000000000E+00 -0.45593999997E+02  0.45594000000E+02  0.51100000000E-03 0. -1.
    9900012    2    1    2    0    0  0.18280518343E+02  0.36903075086E+02 -0.13697036341E+02  0.47787272976E+02  0.20000008808E+02 0.  0.
        -12    1    1    2    0    0 -0.18280518343E+02 -0.36903075086E+02  0.13697036341E+02  0.43400727024E+02  0.00000000000E+00 0.  1.
         11    1    3    3    0    0  0.14498761095E+02  0.24645203814E+02 -0.17526410805E+02  0.33537668677E+02  0.51100000000E-03 0. -1.
        -11    1    3    3    0    0 -0.10614009482E+01  0.18557134686E+01  0.12924511984E+01  0.24981342661E+01  0.51100000000E-03 0.  1.
         12    1    3    3    0    0  0.48431581953E+01  0.10402157804E+02  0.25369232658E+01  0.11751470033E+02  0.00000000000E+00 0. -1.
</event>
<event>
 7    1  0.2642243E-009  0.4778728E+02  0.7816164E-02  0.1312668E+00
        -11   -1    0    0    0    0  0.00000000000E+00  0.00000000000E+00  0.45593999997E+02  0.45594000000E+02  0.51100000000E-03 0. -1.
         11   -1    0    0    0    0 -0.00000000000E+00 -0.00000000000E+00 -0.45593999997E+02  0.45594000000E+02  0.51100000000E-03 0.  1.
    9900012    2    1    2    0    0  0.37665026014E+02 -0.21123749799E+02 -0.43307795859E+01  0.47787278324E+02  0.20000033190E+02 0.  0.
        -12    1    1    2    0    0 -0.37665026014E+02  0.21123749799E+02  0.43307795859E+01  0.43400721676E+02  0.00000000000E+00 0.  1.
         11    1    3    3    0    0  0.10409901516E+02 -0.16057026994E+02 -0.46311247169E+01  0.19688613000E+02  0.51100000000E-03 0. -1.
        -11    1    3    3    0    0  0.15788590475E+02 -0.69698631740E+00 -0.38430484729E+00  0.15808639081E+02  0.51100000000E-03 0.  1.
         12    1    3    3    0    0  0.11466534023E+02 -0.43697364875E+01  0.68464997829E+00  0.12290026243E+02  0.00000000000E+00 0. -1.
</event>
<event>
 7    1  0.2642243E-009  0.4778727E+02  0.7816164E-02  0.1312668E+00
        -11   -1    0    0    0    0  0.00000000000E+00  0.00000000000E+00  0.45593999997E+02  0.45594000000E+02  0.51100000000E-03 0. -1.
         11   -1    0    0    0    0 -0.00000000000E+00 -0.00000000000E+00 -0.45593999997E+02  0.45594000000E+02  0.51100000000E-03 0.  1.
    9900012    2    1    2    0    0  0.14468432463E+02 -0.36079407041E+02 -0.19301911352E+02  0.47787274981E+02  0.20000017949E+02 0.  0.
        -12    1    1    2    0    0 -0.14468432463E+02  0.36079407041E+02  0.19301911352E+02  0.43400725019E+02  0.00000000000E+00 0.  1.
         11    1    3    3    0    0  0.86771663182E+01 -0.20832339555E+02 -0.11625421862E+02  0.25385626255E+02  0.51100000000E-03 0. -1.
        -11    1    3    3    0    0 -0.24612125060E+01 -0.30781646660E+01 -0.65641041439E+01  0.76563782681E+01  0.51100000000E-03 0.  1.
        -12    1    3    3    0    0  0.82524786510E+01 -0.12168902820E+02 -0.11123853460E+01  0.14745270458E+02  0.00000000000E+00 0.  1.
</event>
<event>
 7    1  0.2642243E-009  0.4778728E+02  0.7816164E-02  0.1312668E+00
        -11   -1    0    0    0    0  0.00000000000E+00  0.00000000000E+00  0.45593999997E+02  0.45594000000E+02  0.51100000000E-03 0.  1.
         11   -1    0    0    0    0 -0.00000000000E+00 -0.00000000000E+00 -0.45593999997E+02  0.45594000000E+02  0.51100000000E-03 0. -1.
    9900012    2    1    2    0    0  0.24699142866E+02  0.20984859465E+02 -0.28865392262E+02  0.47787275864E+02  0.20000021975E+02 0.  0.
        -12    1    1    2    0    0 -0.24699142866E+02 -0.20984859465E+02  0.28865392262E+02  0.43400724136E+02  0.00000000000E+00 0.  1.
         11    1    3    3    0    0  0.67341325185E+01  0.64173814667E+01 -0.19485267988E+02  0.21591827030E+02  0.51100000000E-03 0. -1.
        -11    1    3    3    0    0  0.16223908520E+02  0.89499072383E+01 -0.64053180143E+01  0.19604697049E+02  0.51100000000E-03 0.  1.
        -12    1    3    3    0    0  0.17411018272E+01  0.56175707598E+01 -0.29748062602E+01  0.65907517856E+01  0.00000000000E+00 0.  1.
</event>
<event>
 7    1  0.2642243E-009  0.4778727E+02  0.7816164E-02  0.1312668E+00
        -11   -1    0    0    0    0  0.00000000000E+00  0.00000000000E+00  0.45593999997E+02  0.45594000000E+02  0.51100000000E-03 0. -1.
         11   -1    0    0    0    0 -0.00000000000E+00 -0.00000000000E+00 -0.45593999997E+02  0.45594000000E+02  0.51100000000E-03 0.  1.
    9900012    2    1    2    0    0 -0.14522726507E+02  0.24315019787E+02  0.32886064963E+02  0.47787273725E+02  0.20000012224E+02 0.  0.
        -12    1    1    2    0    0  0.14522726507E+02 -0.24315019787E+02 -0.32886064963E+02  0.43400726275E+02  0.00000000000E+00 0.  1.
         11    1    3    3    0    0 -0.12800321134E+01  0.32466802956E+01  0.15959490640E+02  0.16336607877E+02  0.51100000000E-03 0. -1.
        -11    1    3    3    0    0 -0.77863740994E+01  0.13536293427E+02  0.51478196788E+01  0.16442594353E+02  0.51100000000E-03 0.  1.
        -12    1    3    3    0    0 -0.54563202941E+01  0.75320460641E+01  0.11778754644E+02  0.15008071496E+02  0.00000000000E+00 0.  1.
</event>
<event>
 7    1  0.2642243E-009  0.4778727E+02  0.7816164E-02  0.1312668E+00
        -11   -1    0    0    0    0  0.00000000000E+00  0.00000000000E+00  0.45593999997E+02  0.45594000000E+02  0.51100000000E-03 0. -1.
         11   -1    0    0    0    0 -0.00000000000E+00 -0.00000000000E+00 -0.45593999997E+02  0.45594000000E+02  0.51100000000E-03 0.  1.
    9900012    2    1    2    0    0 -0.29150990855E+02 -0.16402383585E+02  0.27655103983E+02  0.47787271533E+02  0.20000002230E+02 0.  0.
        -12    1    1    2    0    0  0.29150990855E+02  0.16402383585E+02 -0.27655103983E+02  0.43400728467E+02  0.00000000000E+00 0.  1.
         11    1    3    3    0    0 -0.99809720936E+01 -0.80516865321E+01  0.16994241508E+02  0.21289755862E+02  0.51100000000E-03 0. -1.
        -11    1    3    3    0    0 -0.16564864912E+02 -0.49969913902E+01  0.27506324357E+01  0.17519436394E+02  0.51100000000E-03 0.  1.
        -12    1    3    3    0    0 -0.26051538501E+01 -0.33537056631E+01  0.79102300388E+01  0.89780792781E+01  0.00000000000E+00 0.  1.
</event>
<event>
 7    1  0.2642243E-009  0.4778732E+02  0.7816164E-02  0.1312668E+00
        -11   -1    0    0    0    0  0.00000000000E+00  0.00000000000E+00  0.45593999997E+02  0.45594000000E+02  0.51100000000E-03 0.  1.
         11   -1    0    0    0    0 -0.00000000000E+00 -0.00000000000E+00 -0.45593999997E+02  0.45594000000E+02  0.51100000000E-03 0. -1.
    9900012    2    1    2    0    0  0.18143703232E+02 -0.39073157851E+02 -0.52643798845E+01  0.47787316515E+02  0.20000207317E+02 0.  0.
        -12    1    1    2    0    0 -0.18143703232E+02  0.39073157851E+02  0.52643798845E+01  0.43400683485E+02  0.00000000000E+00 0.  1.
         11    1    3    3    0    0  0.45573261097E+01 -0.60372434315E+01 -0.22949544025E+01  0.79047040104E+01  0.51100000000E-03 0. -1.
        -11    1    3    3    0    0  0.30765525027E+01 -0.37436373686E+00 -0.45844836106E+01  0.55337883720E+01  0.51100000000E-03 0.  1.
        -12    1    3    3    0    0  0.10509824620E+02 -0.32661550683E+02  0.16150581286E+01  0.34348824132E+02  0.00000000000E+00 0.  1.
</event>
<event>
 7    1  0.2642243E-009  0.4778728E+02  0.7816164E-02  0.1312668E+00
        -11   -1    0    0    0    0  0.00000000000E+00  0.00000000000E+00  0.45593999997E+02  0.45594000000E+02  0.51100000000E-03 0.  1.
         11   -1    0    0    0    0 -0.00000000000E+00 -0.00000000000E+00 -0.45593999997E+02  0.45594000000E+02  0.51100000000E-03 0. -1.
    9900012    2    1    2    0    0  0.40038078348E+02  0.28185070598E+01 -0.16511547660E+02  0.47787275283E+02  0.20000019323E+02 0.  0.
        -12    1    1    2    0    0 -0.40038078348E+02 -0.28185070598E+01  0.16511547660E+02  0.43400724717E+02  0.00000000000E+00 0.  1.
         11    1    3    3    0    0 -0.33135392089E+00  0.23811500346E+01 -0.13945016827E+01  0.27792635918E+01  0.51100000000E-03 0. -1.
        -11    1    3    3    0    0  0.31142024965E+02 -0.49878962237E+01 -0.12908843513E+02  0.34078483956E+02  0.51100000000E-03 0.  1.
        -12    1    3    3    0    0  0.92274073044E+01  0.54252532490E+01 -0.22082024638E+01  0.10929527734E+02  0.00000000000E+00 0.  1.
</event>
<event>
 7    1  0.2642243E-009  0.4778727E+02  0.7816164E-02  0.1312668E+00
        -11   -1    0    0    0    0  0.00000000000E+00  0.00000000000E+00  0.45593999997E+02  0.45594000000E+02  0.51100000000E-03 0.  1.
         11   -1    0    0    0    0 -0.00000000000E+00 -0.00000000000E+00 -0.45593999997E+02  0.45594000000E+02  0.51100000000E-03 0. -1.
    9900012    2    1    2    0    0  0.58870538594E+01  0.13149560872E+02 -0.40939649009E+02  0.47787271720E+02  0.20000003080E+02 0.  0.
        -12    1    1    2    0    0 -0.58870538594E+01 -0.13149560872E+02  0.40939649009E+02  0.43400728280E+02  0.00000000000E+00 0.  1.
         11    1    3    3    0    0  0.17478627758E+01 -0.36107857076E+01 -0.91536383685E+01  0.99940929229E+01  0.51100000000E-03 0. -1.
        -11    1    3    3    0    0  0.26132788602E+01  0.11946148788E+02 -0.30066573945E+02  0.32458258831E+02  0.51100000000E-03 0.  1.
        -12    1    3    3    0    0  0.15259122234E+01  0.48141977922E+01 -0.17194366949E+01  0.53349199660E+01  0.00000000000E+00 0.  1.
</event>
<event>
 7    1  0.2642243E-009  0.4778727E+02  0.7816164E-02  0.1312668E+00
        -11   -1    0    0    0    0  0.00000000000E+00  0.00000000000E+00  0.45593999997E+02  0.45594000000E+02  0.51100000000E-03 0.  1.
         11   -1    0    0    0    0 -0.00000000000E+00 -0.00000000000E+00 -0.45593999997E+02  0.45594000000E+02  0.51100000000E-03 0. -1.
    9900012    2    1    2    0    0  0.29612990984E+02  0.22175698921E+02 -0.22692128485E+02  0.47787267830E+02  0.19999985345E+02 0.  0.
        -12    1    1    2    0    0 -0.29612990984E+02 -0.22175698921E+02  0.22692128485E+02  0.43400732170E+02  0.00000000000E+00 0.  1.
         11    1    3    3    0    0  0.20868883068E+02  0.95923398144E+01 -0.16962891396E+02  0.28552809816E+02  0.51100000000E-03 0. -1.
        -11    1    3    3    0    0  0.27806506285E+01  0.48507156755E+01  0.28143025303E+01  0.62595334871E+01  0.51100000000E-03 0.  1.
        -12    1    3    3    0    0  0.59634572881E+01  0.77326434316E+01 -0.85435396189E+01  0.12974924527E+02  0.00000000000E+00 0.  1.
</event>
<event>
 7    1  0.2642243E-009  0.4778727E+02  0.7816164E-02  0.1312668E+00
        -11   -1    0    0    0    0  0.00000000000E+00  0.00000000000E+00  0.45593999997E+02  0.45594000000E+02  0.51100000000E-03 0.  1.
         11   -1    0    0    0    0 -0.00000000000E+00 -0.00000000000E+00 -0.45593999997E+02  0.45594000000E+02  0.51100000000E-03 0. -1.
    9900012    2    1    2    0    0  0.14806858716E+02 -0.25228108505E+02 -0.32061236983E+02  0.47787269123E+02  0.19999991241E+02 0.  0.
        -12    1    1    2    0    0 -0.14806858716E+02  0.25228108505E+02  0.32061236983E+02  0.43400730877E+02  0.00000000000E+00 0.  1.
         11    1    3    3    0    0  0.23090587957E+01  0.23913052481E+01  0.35809248144E+00  0.33434000356E+01  0.51100000000E-03 0.  1.
        -11    1    3    3    0    0  0.10167355480E+02 -0.23104782124E+02 -0.25743252228E+02  0.36054418730E+02  0.51100000000E-03 0. -1.
        -12    1    3    3    0    0  0.23304444403E+01 -0.45146316296E+01 -0.66760772365E+01  0.83894503579E+01  0.00000000000E+00 0.  1.
</event>
<event>
 7    1  0.2642243E-009  0.4778727E+02  0.7816164E-02  0.1312668E+00
        -11   -1    0    0    0    0  0.00000000000E+00  0.00000000000E+00  0.45593999997E+02  0.45594000000E+02  0.51100000000E-03 0.  1.
         11   -1    0    0    0    0 -0.00000000000E+00 -0.00000000000E+00 -0.45593999997E+02  0.45594000000E+02  0.51100000000E-03 0. -1.
    9900012    2    1    2    0    0 -0.27499372284E+02 -0.14127633545E+02 -0.30460098616E+02  0.47787272895E+02  0.20000008437E+02 0.  0.
        -12    1    1    2    0    0  0.27499372284E+02  0.14127633545E+02  0.30460098616E+02  0.43400727105E+02  0.00000000000E+00 0.  1.
         11    1    3    3    0    0 -0.73460561873E+01 -0.12337826100E+02 -0.95298791573E+01  0.17233835656E+02  0.51100000000E-03 0. -1.
        -11    1    3    3    0    0  0.79214554364E+00  0.69343020135E+00 -0.42068221592E+00  0.11337168052E+01  0.51100000000E-03 0.  1.
         12    1    3    3    0    0 -0.20945461640E+02 -0.24832376463E+01 -0.20509537242E+02  0.29419720434E+02  0.00000000000E+00 0. -1.
</event>
<event>
 7    1  0.2642243E-009  0.4778723E+02  0.7816164E-02  0.1312668E+00
        -11   -1    0    0    0    0  0.00000000000E+00  0.00000000000E+00  0.45593999997E+02  0.45594000000E+02  0.51100000000E-03 0. -1.
         11   -1    0    0    0    0 -0.00000000000E+00 -0.00000000000E+00 -0.45593999997E+02  0.45594000000E+02  0.51100000000E-03 0.  1.
    9900012    2    1    2    0    0 -0.94504978672E+00 -0.41842575987E+02  0.11486207519E+02  0.47787225266E+02  0.19999791279E+02 0.  0.
        -12    1    1    2    0    0  0.94504978672E+00  0.41842575987E+02 -0.11486207519E+02  0.43400774734E+02  0.00000000000E+00 0.  1.
         11    1    3    3    0    0  0.31236937042E+01 -0.13229238567E+02  0.10421729604E+02  0.17128416845E+02  0.51100000000E-03 0. -1.
        -11    1    3    3    0    0 -0.47721694880E+01 -0.28055232430E+02 -0.92800798211E+00  0.28473336078E+02  0.51100000000E-03 0.  1.
        -12    1    3    3    0    0  0.70342599712E+00 -0.55810498957E+00  0.19924858973E+01  0.21854723434E+01  0.00000000000E+00 0.  1.
</event>
<event>
 7    1  0.2642243E-009  0.4778727E+02  0.7816164E-02  0.1312668E+00
        -11   -1    0    0    0    0  0.00000000000E+00  0.00000000000E+00  0.45593999997E+02  0.45594000000E+02  0.51100000000E-03 0.  1.
         11   -1    0    0    0    0 -0.00000000000E+00 -0.00000000000E+00 -0.45593999997E+02  0.45594000000E+02  0.51100000000E-03 0. -1.
    9900012    2    1    2    0    0  0.25468291053E+02 -0.28612452428E+02 -0.20403855193E+02  0.47787267405E+02  0.19999983405E+02 0.  0.
        -12    1    1    2    0    0 -0.25468291053E+02  0.28612452428E+02  0.20403855193E+02  0.43400732595E+02  0.00000000000E+00 0.  1.
         11    1    3    3    0    0  0.59586758361E+01 -0.38361446792E+01 -0.12561662201E+02  0.14422800742E+02  0.51100000000E-03 0. -1.
        -11    1    3    3    0    0  0.26548256637E+01 -0.62793951771E+01  0.85690241050E+00  0.68711851305E+01  0.51100000000E-03 0.  1.
         12    1    3    3    0    0  0.16854789553E+02 -0.18496912571E+02 -0.86990954024E+01  0.26493281533E+02  0.00000000000E+00 0. -1.
</event>
<event>
 7    1  0.2642243E-009  0.4778727E+02  0.7816164E-02  0.1312668E+00
        -11   -1    0    0    0    0  0.00000000000E+00  0.00000000000E+00  0.45593999997E+02  0.45594000000E+02  0.51100000000E-03 0.  1.
         11   -1    0    0    0    0 -0.00000000000E+00 -0.00000000000E+00 -0.45593999997E+02  0.45594000000E+02  0.51100000000E-03 0. -1.
    9900012    2    1    2    0    0  0.39007248831E+02  0.16191911871E+02 -0.99939849623E+01  0.47787271817E+02  0.20000003520E+02 0.  0.
        -12    1    1    2    0    0 -0.39007248831E+02 -0.16191911871E+02  0.99939849623E+01  0.43400728183E+02  0.00000000000E+00 0.  1.
         11    1    3    3    0    0  0.21918970511E+02  0.22226687683E+01 -0.39395054305E+01  0.22380822774E+02  0.51100000000E-03 0. -1.
        -11    1    3    3    0    0  0.96704679678E+01  0.13552908663E+02 -0.15575425707E+01  0.16721998178E+02  0.51100000000E-03 0.  1.
        -12    1    3    3    0    0  0.74178103524E+01  0.41633443919E+00 -0.44969369611E+01  0.86844508647E+01  0.00000000000E+00 0.  1.
</event>
<event>
 7    1  0.2642243E-009  0.4778727E+02  0.7816164E-02  0.1312668E+00
        -11   -1    0    0    0    0  0.00000000000E+00  0.00000000000E+00  0.45593999997E+02  0.45594000000E+02  0.51100000000E-03 0. -1.
         11   -1    0    0    0    0 -0.00000000000E+00 -0.00000000000E+00 -0.45593999997E+02  0.45594000000E+02  0.51100000000E-03 0.  1.
    9900012    2    1    2    0    0  0.50596961576E+01 -0.27382144661E+02  0.33290251770E+02  0.47787271500E+02  0.20000002076E+02 0.  0.
        -12    1    1    2    0    0 -0.50596961576E+01  0.27382144661E+02 -0.33290251770E+02  0.43400728500E+02  0.00000000000E+00 0.  1.
         11    1    3    3    0    0  0.45738307226E+00 -0.44332186294E+01  0.15165056328E+02  0.15806377206E+02  0.51100000000E-03 0. -1.
        -11    1    3    3    0    0  0.59108761540E+01 -0.23741410682E+02  0.18129372356E+02  0.30451062056E+02  0.51100000000E-03 0.  1.
        -12    1    3    3    0    0 -0.13085630686E+01  0.79248465094E+00 -0.41769138997E-02  0.15298322369E+01  0.00000000000E+00 0.  1.
</event>
<event>
 7    1  0.2642243E-009  0.4778727E+02  0.7816164E-02  0.1312668E+00
        -11   -1    0    0    0    0  0.00000000000E+00  0.00000000000E+00  0.45593999997E+02  0.45594000000E+02  0.51100000000E-03 0.  1.
         11   -1    0    0    0    0 -0.00000000000E+00 -0.00000000000E+00 -0.45593999997E+02  0.45594000000E+02  0.51100000000E-03 0. -1.
    9900012    2    1    2    0    0  0.15074231643E+02  0.40610956085E+02 -0.26722798372E+01  0.47787270820E+02  0.19999998979E+02 0.  0.
        -12    1    1    2    0    0 -0.15074231643E+02 -0.40610956085E+02  0.26722798372E+01  0.43400729180E+02  0.00000000000E+00 0.  1.
         11    1    3    3    0    0  0.11816466495E+02  0.31384417414E+02 -0.12955317202E+01  0.33560228538E+02  0.51100000000E-03 0. -1.
        -11    1    3    3    0    0  0.59012132143E+00  0.10189369588E+02  0.13468785577E+01  0.10294929718E+02  0.51100000000E-03 0.  1.
         12    1    3    3    0    0  0.26676438262E+01 -0.96283091682E+00 -0.27236266746E+01  0.39321125646E+01  0.00000000000E+00 0. -1.
</event>
<event>
 7    1  0.2642243E-009  0.4778727E+02  0.7816164E-02  0.1312668E+00
        -11   -1    0    0    0    0  0.00000000000E+00  0.00000000000E+00  0.45593999997E+02  0.45594000000E+02  0.51100000000E-03 0. -1.
         11   -1    0    0    0    0 -0.00000000000E+00 -0.00000000000E+00 -0.45593999997E+02  0.45594000000E+02  0.51100000000E-03 0.  1.
    9900012    2    1    2    0    0  0.28905625291E+02 -0.25563953381E+02  0.19863844171E+02  0.47787271997E+02  0.20000004344E+02 0.  0.
        -12    1    1    2    0    0 -0.28905625291E+02  0.25563953381E+02 -0.19863844171E+02  0.43400728003E+02  0.00000000000E+00 0.  1.
         11    1    3    3    0    0  0.11629034350E+02 -0.13872167458E+02  0.19197750911E+02  0.26386077961E+02  0.51100000000E-03 0. -1.
        -11    1    3    3    0    0  0.13484861209E+02 -0.95912767152E+01  0.24222775623E+01  0.16724278750E+02  0.51100000000E-03 0.  1.
         12    1    3    3    0    0  0.37917297320E+01 -0.21005092083E+01 -0.17561843020E+01  0.46769152865E+01  0.00000000000E+00 0. -1.
</event>
<event>
 7    1  0.2642243E-009  0.4778726E+02  0.7816164E-02  0.1312668E+00
        -11   -1    0    0    0    0  0.00000000000E+00  0.00000000000E+00  0.45593999997E+02  0.45594000000E+02  0.51100000000E-03 0.  1.
         11   -1    0    0    0    0 -0.00000000000E+00 -0.00000000000E+00 -0.45593999997E+02  0.45594000000E+02  0.51100000000E-03 0. -1.
    9900012    2    1    2    0    0 -0.20906832517E+02  0.37513218997E+02 -0.62679400734E+01  0.47787259013E+02  0.19999945145E+02 0.  0.
        -12    1    1    2    0    0  0.20906832517E+02 -0.37513218997E+02  0.62679400734E+01  0.43400740987E+02  0.00000000000E+00 0.  1.
         11    1    3    3    0    0 -0.10275500737E+02  0.22272331816E+02  0.14398848426E+01  0.24570631830E+02  0.51100000000E-03 0. -1.
        -11    1    3    3    0    0  0.73158269298E+00  0.59978253881E+01 -0.59223271933E+01  0.84606785939E+01  0.51100000000E-03 0.  1.
         12    1    3    3    0    0 -0.11362914474E+02  0.92430617930E+01 -0.17854977227E+01  0.14755948589E+02  0.00000000000E+00 0. -1.
</event>
<event>
 7    1  0.2642243E-009  0.4778727E+02  0.7816164E-02  0.1312668E+00
        -11   -1    0    0    0    0  0.00000000000E+00  0.00000000000E+00  0.45593999997E+02  0.45594000000E+02  0.51100000000E-03 0.  1.
         11   -1    0    0    0    0 -0.00000000000E+00 -0.00000000000E+00 -0.45593999997E+02  0.45594000000E+02  0.51100000000E-03 0. -1.
    9900012    2    1    2    0    0  0.37296642925E+02  0.21230573984E+02 -0.64688906336E+01  0.47787269693E+02  0.19999993839E+02 0.  0.
        -12    1    1    2    0    0 -0.37296642925E+02 -0.21230573984E+02  0.64688906336E+01  0.43400730307E+02  0.00000000000E+00 0.  1.
         11    1    3    3    0    0  0.16390811990E+02  0.56285538673E+01  0.38572944035E+01  0.17754381338E+02  0.51100000000E-03 0. -1.
        -11    1    3    3    0    0  0.16209700716E+02  0.16748863561E+02 -0.92739745619E+01  0.25085562228E+02  0.51100000000E-03 0.  1.
        -12    1    3    3    0    0  0.46961302187E+01 -0.11468434442E+01 -0.10522104752E+01  0.49473261263E+01  0.00000000000E+00 0.  1.
</event>
<event>
 7    1  0.2642243E-009  0.4778727E+02  0.7816164E-02  0.1312668E+00
        -11   -1    0    0    0    0  0.00000000000E+00  0.00000000000E+00  0.45593999997E+02  0.45594000000E+02  0.51100000000E-03 0.  1.
         11   -1    0    0    0    0 -0.00000000000E+00 -0.00000000000E+00 -0.45593999997E+02  0.45594000000E+02  0.51100000000E-03 0. -1.
    9900012    2    1    2    0    0 -0.25247598305E+02  0.33334135250E+02 -0.11619688865E+02  0.47787274633E+02  0.20000016364E+02 0.  0.
        -12    1    1    2    0    0  0.25247598305E+02 -0.33334135250E+02  0.11619688865E+02  0.43400725367E+02  0.00000000000E+00 0.  1.
         11    1    3    3    0    0 -0.19398216343E+02  0.13571773962E+02 -0.40119693767E+01  0.24012074969E+02  0.51100000000E-03 0. -1.
        -11    1    3    3    0    0 -0.49279883573E+01  0.17806875060E+02 -0.30438205870E+01  0.18725242660E+02  0.51100000000E-03 0.  1.
        -12    1    3    3    0    0 -0.92139360387E+00  0.19554862279E+01 -0.45638989015E+01  0.50499570042E+01  0.00000000000E+00 0.  1.
</event>
<event>
 7    1  0.2642243E-009  0.4778726E+02  0.7816164E-02  0.1312668E+00
        -11   -1    0    0    0    0  0.00000000000E+00  0.00000000000E+00  0.45593999997E+02  0.45594000000E+02  0.51100000000E-03 0.  1.
         11   -1    0    0    0    0 -0.00000000000E+00 -0.00000000000E+00 -0.45593999997E+02  0.45594000000E+02  0.51100000000E-03 0. -1.
    9900012    2    1    2    0    0 -0.24625455028E+02 -0.20012382784E+02 -0.29609387358E+02  0.47787258996E+02  0.19999945064E+02 0.  0.
        -12    1    1    2    0    0  0.24625455028E+02  0.20012382784E+02  0.29609387358E+02  0.43400741004E+02  0.00000000000E+00 0.  1.
         11    1    3    3    0    0  0.15443689911E+01 -0.77705040642E+00 -0.15620458326E+00  0.17358810581E+01  0.51100000000E-03 0.  1.
        -11    1    3    3    0    0 -0.18880180292E+02 -0.16172077069E+02 -0.28905781791E+02  0.38125339419E+02  0.51100000000E-03 0. -1.
         12    1    3    3    0    0 -0.72896437275E+01 -0.30632553091E+01 -0.54740098290E+00  0.79260385186E+01  0.00000000000E+00 0. -1.
</event>
<event>
 7    1  0.2642243E-009  0.4778727E+02  0.7816164E-02  0.1312668E+00
        -11   -1    0    0    0    0  0.00000000000E+00  0.00000000000E+00  0.45593999997E+02  0.45594000000E+02  0.51100000000E-03 0.  1.
         11   -1    0    0    0    0 -0.00000000000E+00 -0.00000000000E+00 -0.45593999997E+02  0.45594000000E+02  0.51100000000E-03 0. -1.
    9900012    2    1    2    0    0  0.16532488061E+02 -0.33558745264E+02  0.22002517216E+02  0.47787270639E+02  0.19999998153E+02 0.  0.
        -12    1    1    2    0    0 -0.16532488061E+02  0.33558745264E+02 -0.22002517216E+02  0.43400729361E+02  0.00000000000E+00 0.  1.
         11    1    3    3    0    0 -0.15580511582E+01 -0.17902550063E+02  0.69660445605E+01  0.19273157480E+02  0.51100000000E-03 0. -1.
        -11    1    3    3    0    0  0.12865393627E+02 -0.13027465461E+02  0.12294289434E+02  0.22054087205E+02  0.51100000000E-03 0.  1.
         12    1    3    3    0    0  0.52251455923E+01 -0.26287297406E+01  0.27421832219E+01  0.64600259545E+01  0.00000000000E+00 0. -1.
</event>
<event>
 7    1  0.2642243E-009  0.4778727E+02  0.7816164E-02  0.1312668E+00
        -11   -1    0    0    0    0  0.00000000000E+00  0.00000000000E+00  0.45593999997E+02  0.45594000000E+02  0.51100000000E-03 0. -1.
         11   -1    0    0    0    0 -0.00000000000E+00 -0.00000000000E+00 -0.45593999997E+02  0.45594000000E+02  0.51100000000E-03 0.  1.
    9900012    2    1    2    0    0 -0.22263310273E+02 -0.36009521746E+02  0.95541773274E+01  0.47787274832E+02  0.20000017269E+02 0.  0.
        -12    1    1    2    0    0  0.22263310273E+02  0.36009521746E+02 -0.95541773274E+01  0.43400725168E+02  0.00000000000E+00 0.  1.
         11    1    3    3    0    0  0.40345276618E+00 -0.39453900965E+01  0.19239731522E+01  0.44080097663E+01  0.51100000000E-03 0. -1.
        -11    1    3    3    0    0 -0.13532975380E+02 -0.27939751276E+02  0.44500109793E+00  0.31047852586E+02  0.51100000000E-03 0.  1.
        -12    1    3    3    0    0 -0.91337876594E+01 -0.41243803740E+01  0.71852030773E+01  0.12331412479E+02  0.00000000000E+00 0.  1.
</event>
<event>
 7    1  0.2642243E-009  0.4778727E+02  0.7816164E-02  0.1312668E+00
        -11   -1    0    0    0    0  0.00000000000E+00  0.00000000000E+00  0.45593999997E+02  0.45594000000E+02  0.51100000000E-03 0.  1.
         11   -1    0    0    0    0 -0.00000000000E+00 -0.00000000000E+00 -0.45593999997E+02  0.45594000000E+02  0.51100000000E-03 0. -1.
    9900012    2    1    2    0    0 -0.18090967251E+02  0.17925017171E+02 -0.35143047362E+02  0.47787272880E+02  0.20000008369E+02 0.  0.
        -12    1    1    2    0    0  0.18090967251E+02 -0.17925017171E+02  0.35143047362E+02  0.43400727120E+02  0.00000000000E+00 0.  1.
         11    1    3    3    0    0 -0.13668224241E+02  0.24053079914E+01 -0.17651068008E+02  0.22453642522E+02  0.51100000000E-03 0. -1.
        -11    1    3    3    0    0 -0.63353596635E+01  0.13982466722E+02 -0.12595897651E+02  0.19857059088E+02  0.51100000000E-03 0.  1.
         12    1    3    3    0    0  0.19126166536E+01  0.15372424568E+01 -0.48960817030E+01  0.54765712701E+01  0.00000000000E+00 0. -1.
</event>
<event>
 7    1 -0.2642243E-009  0.4778727E+02  0.7816164E-02  0.1312668E+00
        -11   -1    0    0    0    0  0.00000000000E+00  0.00000000000E+00  0.45593999997E+02  0.45594000000E+02  0.51100000000E-03 0.  1.
         11   -1    0    0    0    0 -0.00000000000E+00 -0.00000000000E+00 -0.45593999997E+02  0.45594000000E+02  0.51100000000E-03 0. -1.
    9900012    2    1    2    0    0  0.36045152534E+02 -0.19189515787E+02 -0.14701462280E+02  0.47787268088E+02  0.19999986520E+02 0.  0.
        -12    1    1    2    0    0 -0.36045152534E+02  0.19189515787E+02  0.14701462280E+02  0.43400731912E+02  0.00000000000E+00 0.  1.
         11    1    3    3    0    0  0.15933980322E+02 -0.96299948890E+01 -0.15038748845E+02  0.23933083745E+02  0.51100000000E-03 0. -1.
        -11    1    3    3    0    0  0.12849119233E+02 -0.30313991870E+01 -0.29931817849E+01  0.13536926666E+02  0.51100000000E-03 0.  1.
         12    1    3    3    0    0  0.72620529788E+01 -0.65281217110E+01  0.33304683498E+01  0.10317257677E+02  0.00000000000E+00 0. -1.
</event>
<event>
 7    1  0.2642243E-009  0.4778727E+02  0.7816164E-02  0.1312668E+00
        -11   -1    0    0    0    0  0.00000000000E+00  0.00000000000E+00  0.45593999997E+02  0.45594000000E+02  0.51100000000E-03 0.  1.
         11   -1    0    0    0    0 -0.00000000000E+00 -0.00000000000E+00 -0.45593999997E+02  0.45594000000E+02  0.51100000000E-03 0. -1.
    9900012    2    1    2    0    0  0.26263263196E+02 -0.19057366638E+02 -0.28821539677E+02  0.47787269981E+02  0.19999995150E+02 0.  0.
        -12    1    1    2    0    0 -0.26263263196E+02  0.19057366638E+02  0.28821539677E+02  0.43400730019E+02  0.00000000000E+00 0.  1.
         11    1    3    3    0    0  0.20525185033E+02 -0.17733519363E+02 -0.16778796436E+02  0.31894967311E+02  0.51100000000E-03 0. -1.
        -11    1    3    3    0    0  0.22196969732E+01  0.31366863439E+01 -0.19467342240E+01  0.43076246671E+01  0.51100000000E-03 0.  1.
         12    1    3    3    0    0  0.35183811893E+01 -0.44605336193E+01 -0.10096009017E+02  0.11584678003E+02  0.00000000000E+00 0. -1.
</event>
<event>
 7    1  0.2642243E-009  0.4778727E+02  0.7816164E-02  0.1312668E+00
        -11   -1    0    0    0    0  0.00000000000E+00  0.00000000000E+00  0.45593999997E+02  0.45594000000E+02  0.51100000000E-03 0. -1.
         11   -1    0    0    0    0 -0.00000000000E+00 -0.00000000000E+00 -0.45593999997E+02  0.45594000000E+02  0.51100000000E-03 0.  1.
    9900012    2    1    2    0    0 -0.18008640395E+02  0.39109373589E+02 -0.54561178140E+01  0.47787268981E+02  0.19999990590E+02 0.  0.
        -12    1    1    2    0    0  0.18008640395E+02 -0.39109373589E+02  0.54561178140E+01  0.43400731019E+02  0.00000000000E+00 0.  1.
         11    1    3    3    0    0 -0.16707803658E+01  0.13217044799E+02 -0.12095152298E+01  0.13377021627E+02  0.51100000000E-03 0. -1.
        -11    1    3    3    0    0  0.27047961710E+01  0.21851001738E+01 -0.17691513516E+01  0.39013435970E+01  0.51100000000E-03 0.  1.
        -12    1    3    3    0    0 -0.19042656200E+02  0.23707228616E+02 -0.24774512326E+01  0.30508903757E+02  0.00000000000E+00 0.  1.
</event>
<event>
 7    1  0.2642243E-009  0.4778727E+02  0.7816164E-02  0.1312668E+00
        -11   -1    0    0    0    0  0.00000000000E+00  0.00000000000E+00  0.45593999997E+02  0.45594000000E+02  0.51100000000E-03 0.  1.
         11   -1    0    0    0    0 -0.00000000000E+00 -0.00000000000E+00 -0.45593999997E+02  0.45594000000E+02  0.51100000000E-03 0. -1.
    9900012    2    1    2    0    0  0.44052449840E+01  0.21399678334E+02 -0.37500283780E+02  0.47787266138E+02  0.19999977630E+02 0.  0.
        -12    1    1    2    0    0 -0.44052449840E+01 -0.21399678334E+02  0.37500283780E+02  0.43400733862E+02  0.00000000000E+00 0.  1.
         11    1    3    3    0    0 -0.29980377535E+01  0.10020684050E+02 -0.25513391621E+02  0.27574181610E+02  0.51100000000E-03 0. -1.
        -11    1    3    3    0    0  0.60379952416E+01  0.12892835559E+02 -0.10492650646E+02  0.17685539661E+02  0.51100000000E-03 0.  1.
        -12    1    3    3    0    0  0.13652874959E+01 -0.15138412748E+01 -0.14942415133E+01  0.25275448664E+01  0.00000000000E+00 0.  1.
</event>
<event>
 7    1  0.2642243E-009  0.4778730E+02  0.7816164E-02  0.1312668E+00
        -11   -1    0    0    0    0  0.00000000000E+00  0.00000000000E+00  0.45593999997E+02  0.45594000000E+02  0.51100000000E-03 0.  1.
         11   -1    0    0    0    0 -0.00000000000E+00 -0.00000000000E+00 -0.45593999997E+02  0.45594000000E+02  0.51100000000E-03 0. -1.
    9900012    2    1    2    0    0  0.50660322997E+00 -0.74920820475E+01 -0.42746139792E+02  0.47787304068E+02  0.20000150567E+02 0.  0.
        -12    1    1    2    0    0 -0.50660322997E+00  0.74920820475E+01  0.42746139792E+02  0.43400695932E+02  0.00000000000E+00 0.  1.
         11    1    3    3    0    0  0.64141022488E+01  0.56066219242E+00 -0.15278924751E+02  0.16580126404E+02  0.51100000000E-03 0. -1.
        -11    1    3    3    0    0 -0.35425520654E+00  0.18396132850E+01 -0.48212711301E+00  0.19344561520E+01  0.51100000000E-03 0.  1.
         12    1    3    3    0    0 -0.55532438123E+01 -0.98923575249E+01 -0.26985087928E+02  0.29272721512E+02  0.00000000000E+00 0. -1.
</event>
<event>
 7    1  0.2642243E-009  0.4778728E+02  0.7816164E-02  0.1312668E+00
        -11   -1    0    0    0    0  0.00000000000E+00  0.00000000000E+00  0.45593999997E+02  0.45594000000E+02  0.51100000000E-03 0.  1.
         11   -1    0    0    0    0 -0.00000000000E+00 -0.00000000000E+00 -0.45593999997E+02  0.45594000000E+02  0.51100000000E-03 0. -1.
    9900012    2    1    2    0    0 -0.17629171458E+02  0.17204762101E+02 -0.35732771677E+02  0.47787279994E+02  0.20000040806E+02 0.  0.
        -12    1    1    2    0    0  0.17629171458E+02 -0.17204762101E+02  0.35732771677E+02  0.43400720006E+02  0.00000000000E+00 0.  1.
         11    1    3    3    0    0 -0.63069694552E+00 -0.32154646453E+01 -0.48840380821E+01  0.58813960733E+01  0.51100000000E-03 0. -1.
        -11    1    3    3    0    0 -0.67151718656E+01  0.15643786143E+02 -0.18621731699E+02  0.25230744535E+02  0.51100000000E-03 0.  1.
         12    1    3    3    0    0 -0.10283302646E+02  0.47764406034E+01 -0.12227001896E+02  0.16675139386E+02  0.00000000000E+00 0. -1.
</event>
<event>
 7    1  0.2642243E-009  0.4778727E+02  0.7816164E-02  0.1312668E+00
        -11   -1    0    0    0    0  0.00000000000E+00  0.00000000000E+00  0.45593999997E+02  0.45594000000E+02  0.51100000000E-03 0. -1.
         11   -1    0    0    0    0 -0.00000000000E+00 -0.00000000000E+00 -0.45593999997E+02  0.45594000000E+02  0.51100000000E-03 0.  1.
    9900012    2    1    2    0    0 -0.32944428528E+02 -0.19710048001E+02 -0.20243566359E+02  0.47787270257E+02  0.19999996412E+02 0.  0.
        -12    1    1    2    0    0  0.32944428528E+02  0.19710048001E+02  0.20243566359E+02  0.43400729743E+02  0.00000000000E+00 0.  1.
         11    1    3    3    0    0 -0.83097495079E+01 -0.37594231756E+01 -0.26771026341E+01  0.95053710223E+01  0.51100000000E-03 0. -1.
        -11    1    3    3    0    0 -0.21948614452E+02 -0.11443221656E+02 -0.58357680105E+01  0.25431185320E+02  0.51100000000E-03 0.  1.
        -12    1    3    3    0    0 -0.26860645683E+01 -0.45074031699E+01 -0.11730695714E+02  0.12850713915E+02  0.00000000000E+00 0.  1.
</event>
<event>
 7    1  0.2642243E-009  0.4778727E+02  0.7816164E-02  0.1312668E+00
        -11   -1    0    0    0    0  0.00000000000E+00  0.00000000000E+00  0.45593999997E+02  0.45594000000E+02  0.51100000000E-03 0.  1.
         11   -1    0    0    0    0 -0.00000000000E+00 -0.00000000000E+00 -0.45593999997E+02  0.45594000000E+02  0.51100000000E-03 0. -1.
    9900012    2    1    2    0    0  0.37954307597E+01 -0.43233086160E+02  0.34424961352E+00  0.47787267963E+02  0.19999985949E+02 0.  0.
        -12    1    1    2    0    0 -0.37954307597E+01  0.43233086160E+02 -0.34424961352E+00  0.43400732037E+02  0.00000000000E+00 0.  1.
         11    1    3    3    0    0  0.70055376506E+01 -0.23222116244E+02  0.77836372267E+01  0.25474089765E+02  0.51100000000E-03 0. -1.
        -11    1    3    3    0    0 -0.23971362041E+01 -0.44047914463E+01 -0.37347057674E+01  0.62527175768E+01  0.51100000000E-03 0.  1.
        -12    1    3    3    0    0 -0.81297068681E+00 -0.15606178470E+02 -0.37046818459E+01  0.16060460621E+02  0.00000000000E+00 0.  1.
</event>
<event>
 7    1  0.2642243E-009  0.4778727E+02  0.7816164E-02  0.1312668E+00
        -11   -1    0    0    0    0  0.00000000000E+00  0.00000000000E+00  0.45593999997E+02  0.45594000000E+02  0.51100000000E-03 0.  1.
         11   -1    0    0    0    0 -0.00000000000E+00 -0.00000000000E+00 -0.45593999997E+02  0.45594000000E+02  0.51100000000E-03 0. -1.
    9900012    2    1    2    0    0  0.39738845761E+02 -0.17402383520E+02  0.12667479214E+01  0.47787268844E+02  0.19999989968E+02 0.  0.
        -12    1    1    2    0    0 -0.39738845761E+02  0.17402383520E+02 -0.12667479214E+01  0.43400731156E+02  0.00000000000E+00 0.  1.
         11    1    3    3    0    0  0.12237695422E+02  0.19594333707E+01 -0.39108032584E+00  0.12399738402E+02  0.51100000000E-03 0. -1.
        -11    1    3    3    0    0  0.26813195237E+02 -0.14686735325E+02  0.20838024217E+01  0.30642941538E+02  0.51100000000E-03 0.  1.
        -12    1    3    3    0    0  0.68795510228E+00 -0.46750815657E+01 -0.42597417439E+00  0.47445889038E+01  0.00000000000E+00 0.  1.
</event>
<event>
 7    1  0.2642243E-009  0.4778727E+02  0.7816164E-02  0.1312668E+00
        -11   -1    0    0    0    0  0.00000000000E+00  0.00000000000E+00  0.45593999997E+02  0.45594000000E+02  0.51100000000E-03 0. -1.
         11   -1    0    0    0    0 -0.00000000000E+00 -0.00000000000E+00 -0.45593999997E+02  0.45594000000E+02  0.51100000000E-03 0.  1.
    9900012    2    1    2    0    0  0.39927120750E+02 -0.85774455824E+01  0.14692727843E+02  0.47787265034E+02  0.19999972596E+02 0.  0.
        -12    1    1    2    0    0 -0.39927120750E+02  0.85774455824E+01 -0.14692727843E+02  0.43400734966E+02  0.00000000000E+00 0.  1.
         11    1    3    3    0    0  0.93393458128E+01 -0.59386221082E+00  0.68603282520E+01  0.11603454508E+02  0.51100000000E-03 0. -1.
        -11    1    3    3    0    0  0.14362964863E+02  0.25620852226E-01  0.10638138443E+02  0.17873595214E+02  0.51100000000E-03 0.  1.
        -12    1    3    3    0    0  0.16224810074E+02 -0.80092042238E+01 -0.28057388526E+01  0.18310215311E+02  0.00000000000E+00 0.  1.
</event>
<event>
 7    1  0.2642243E-009  0.4778731E+02  0.7816164E-02  0.1312668E+00
        -11   -1    0    0    0    0  0.00000000000E+00  0.00000000000E+00  0.45593999997E+02  0.45594000000E+02  0.51100000000E-03 0.  1.
         11   -1    0    0    0    0 -0.00000000000E+00 -0.00000000000E+00 -0.45593999997E+02  0.45594000000E+02  0.51100000000E-03 0. -1.
    9900012    2    1    2    0    0  0.15778578187E+02 -0.36787344048E+02  0.16773431986E+02  0.47787306085E+02  0.20000159763E+02 0.  0.
        -12    1    1    2    0    0 -0.15778578187E+02  0.36787344048E+02 -0.16773431986E+02  0.43400693915E+02  0.00000000000E+00 0.  1.
         11    1    3    3    0    0  0.23175331969E+01 -0.37312692902E+01  0.26822785331E+00  0.44005996270E+01  0.51100000000E-03 0. -1.
        -11    1    3    3    0    0  0.23691722566E+01  0.38088099913E+00 -0.24102095458E+01  0.34010524595E+01  0.51100000000E-03 0.  1.
        -12    1    3    3    0    0  0.11091872734E+02 -0.33436955757E+02  0.18915413678E+02  0.39985653998E+02  0.00000000000E+00 0.  1.
</event>
<event>
 7    1  0.2642243E-009  0.4778727E+02  0.7816164E-02  0.1312668E+00
        -11   -1    0    0    0    0  0.00000000000E+00  0.00000000000E+00  0.45593999997E+02  0.45594000000E+02  0.51100000000E-03 0.  1.
         11   -1    0    0    0    0 -0.00000000000E+00 -0.00000000000E+00 -0.45593999997E+02  0.45594000000E+02  0.51100000000E-03 0. -1.
    9900012    2    1    2    0    0  0.18442922015E+02 -0.97268700498E+01 -0.38064024034E+02  0.47787270754E+02  0.19999998678E+02 0.  0.
        -12    1    1    2    0    0 -0.18442922015E+02  0.97268700498E+01  0.38064024034E+02  0.43400729246E+02  0.00000000000E+00 0.  1.
         11    1    3    3    0    0  0.14597081357E+02  0.73584479036E-01 -0.16059131839E+02  0.21701979507E+02  0.51100000000E-03 0. -1.
        -11    1    3    3    0    0  0.23701941448E+01 -0.81470108296E+01 -0.72367125798E+01  0.11151753896E+02  0.51100000000E-03 0.  1.
         12    1    3    3    0    0  0.14756465131E+01 -0.16534436992E+01 -0.14768179615E+02  0.14933537351E+02  0.00000000000E+00 0. -1.
</event>
<event>
 7    1  0.2642243E-009  0.4778727E+02  0.7816164E-02  0.1312668E+00
        -11   -1    0    0    0    0  0.00000000000E+00  0.00000000000E+00  0.45593999997E+02  0.45594000000E+02  0.51100000000E-03 0.  1.
         11   -1    0    0    0    0 -0.00000000000E+00 -0.00000000000E+00 -0.45593999997E+02  0.45594000000E+02  0.51100000000E-03 0. -1.
    9900012    2    1    2    0    0  0.11952230299E+02  0.38934050324E+02  0.14996899619E+02  0.47787273256E+02  0.20000010082E+02 0.  0.
        -12    1    1    2    0    0 -0.11952230299E+02 -0.38934050324E+02 -0.14996899619E+02  0.43400726744E+02  0.00000000000E+00 0.  1.
         11    1    3    3    0    0  0.43960302405E+01  0.60458130393E+01  0.73523355576E+00  0.75111587538E+01  0.51100000000E-03 0. -1.
        -11    1    3    3    0    0  0.14153089921E+01  0.44731893177E+01 -0.38116958223E+01  0.60449605059E+01  0.51100000000E-03 0.  1.
        -12    1    3    3    0    0  0.61408910660E+01  0.28415047967E+02  0.18073361885E+02  0.34231153996E+02  0.00000000000E+00 0.  1.
</event>
<event>
 7    1  0.2642243E-009  0.4778727E+02  0.7816164E-02  0.1312668E+00
        -11   -1    0    0    0    0  0.00000000000E+00  0.00000000000E+00  0.45593999997E+02  0.45594000000E+02  0.51100000000E-03 0. -1.
         11   -1    0    0    0    0 -0.00000000000E+00 -0.00000000000E+00 -0.45593999997E+02  0.45594000000E+02  0.51100000000E-03 0.  1.
    9900012    2    1    2    0    0 -0.35429877651E+02 -0.20967381957E+02  0.13737401147E+02  0.47787268131E+02  0.19999986715E+02 0.  0.
        -12    1    1    2    0    0  0.35429877651E+02  0.20967381957E+02 -0.13737401147E+02  0.43400731869E+02  0.00000000000E+00 0.  1.
         11    1    3    3    0    0 -0.10467319189E+02 -0.13873839444E+01  0.14272474187E+01  0.10654888111E+02  0.51100000000E-03 0. -1.
        -11    1    3    3    0    0 -0.56995702216E+00 -0.15819870983E+01  0.59175948038E+01  0.61518666037E+01  0.51100000000E-03 0.  1.
        -12    1    3    3    0    0 -0.24392601440E+02 -0.17998010914E+02  0.63925589245E+01  0.30980513416E+02  0.00000000000E+00 0.  1.
</event>
<event>
 7    1  0.2642243E-009  0.4778728E+02  0.7816164E-02  0.1312668E+00
        -11   -1    0    0    0    0  0.00000000000E+00  0.00000000000E+00  0.45593999997E+02  0.45594000000E+02  0.51100000000E-03 0.  1.
         11   -1    0    0    0    0 -0.00000000000E+00 -0.00000000000E+00 -0.45593999997E+02  0.45594000000E+02  0.51100000000E-03 0. -1.
    9900012    2    1    2    0    0 -0.29021159933E+02 -0.29963639329E+02 -0.11982293448E+02  0.47787276942E+02  0.20000026888E+02 0.  0.
        -12    1    1    2    0    0  0.29021159933E+02  0.29963639329E+02  0.11982293448E+02  0.43400723058E+02  0.00000000000E+00 0.  1.
         11    1    3    3    0    0 -0.54436516122E+01  0.67025338376E+00 -0.30040223099E+00  0.54929795407E+01  0.51100000000E-03 0. -1.
        -11    1    3    3    0    0  0.63353689113E+00 -0.46423155029E+00  0.12762004203E+01  0.14985218378E+01  0.51100000000E-03 0.  1.
         12    1    3    3    0    0 -0.24211045212E+02 -0.30169661162E+02 -0.12958091638E+02  0.40795775563E+02  0.00000000000E+00 0. -1.
</event>
<event>
 7    1  0.2642243E-009  0.4778728E+02  0.7816164E-02  0.1312668E+00
        -11   -1    0    0    0    0  0.00000000000E+00  0.00000000000E+00  0.45593999997E+02  0.45594000000E+02  0.51100000000E-03 0.  1.
         11   -1    0    0    0    0 -0.00000000000E+00 -0.00000000000E+00 -0.45593999997E+02  0.45594000000E+02  0.51100000000E-03 0. -1.
    9900012    2    1    2    0    0 -0.10262584391E+02  0.41821266078E+02 -0.54114509763E+01  0.47787277236E+02  0.20000028231E+02 0.  0.
        -12    1    1    2    0    0  0.10262584391E+02 -0.41821266078E+02  0.54114509763E+01  0.43400722764E+02  0.00000000000E+00 0.  1.
         11    1    3    3    0    0  0.64899156800E+00  0.13253654918E+02 -0.68971094833E+01  0.14954954972E+02  0.51100000000E-03 0. -1.
        -11    1    3    3    0    0 -0.92689282607E+01  0.28052718046E+02  0.39699654792E+01  0.29809874992E+02  0.51100000000E-03 0.  1.
        -12    1    3    3    0    0 -0.16426476988E+01  0.51489311419E+00 -0.24843069722E+01  0.30224472722E+01  0.00000000000E+00 0.  1.
</event>
<event>
 7    1  0.2642243E-009  0.4778727E+02  0.7816164E-02  0.1312668E+00
        -11   -1    0    0    0    0  0.00000000000E+00  0.00000000000E+00  0.45593999997E+02  0.45594000000E+02  0.51100000000E-03 0.  1.
         11   -1    0    0    0    0 -0.00000000000E+00 -0.00000000000E+00 -0.45593999997E+02  0.45594000000E+02  0.51100000000E-03 0. -1.
    9900012    2    1    2    0    0 -0.17647121475E+02  0.27570566595E+02 -0.28496776971E+02  0.47787270324E+02  0.19999996713E+02 0.  0.
        -12    1    1    2    0    0  0.17647121475E+02 -0.27570566595E+02  0.28496776971E+02  0.43400729676E+02  0.00000000000E+00 0.  1.
         11    1    3    3    0    0 -0.52670948141E+01  0.15774665028E+02 -0.58636000479E+01  0.17634175634E+02  0.51100000000E-03 0.  1.
        -11    1    3    3    0    0 -0.40000359422E+01  0.29800833930E+01 -0.14965199061E+02  0.15774611493E+02  0.51100000000E-03 0. -1.
         12    1    3    3    0    0 -0.83799907185E+01  0.88158181739E+01 -0.76679778624E+01  0.14378483196E+02  0.00000000000E+00 0. -1.
</event>
<event>
 7    1  0.2642243E-009  0.4778727E+02  0.7816164E-02  0.1312668E+00
        -11   -1    0    0    0    0  0.00000000000E+00  0.00000000000E+00  0.45593999997E+02  0.45594000000E+02  0.51100000000E-03 0. -1.
         11   -1    0    0    0    0 -0.00000000000E+00 -0.00000000000E+00 -0.45593999997E+02  0.45594000000E+02  0.51100000000E-03 0.  1.
    9900012    2    1    2    0    0  0.27345363577E+02 -0.15001371165E+02  0.30179685738E+02  0.47787268701E+02  0.19999989316E+02 0.  0.
        -12    1    1    2    0    0 -0.27345363577E+02  0.15001371165E+02 -0.30179685738E+02  0.43400731299E+02  0.00000000000E+00 0.  1.
         11    1    3    3    0    0  0.14441022655E+02 -0.97430462255E+01  0.19594530719E+02  0.26218613987E+02  0.51100000000E-03 0. -1.
        -11    1    3    3    0    0  0.10409265807E+02 -0.45426312893E-01  0.11077214790E+01  0.10468138580E+02  0.51100000000E-03 0.  1.
        -12    1    3    3    0    0  0.24950751156E+01 -0.52128986270E+01  0.94774335406E+01  0.11100516134E+02  0.00000000000E+00 0.  1.
</event>
<event>
 7    1  0.2642243E-009  0.4778728E+02  0.7816164E-02  0.1312668E+00
        -11   -1    0    0    0    0  0.00000000000E+00  0.00000000000E+00  0.45593999997E+02  0.45594000000E+02  0.51100000000E-03 0.  1.
         11   -1    0    0    0    0 -0.00000000000E+00 -0.00000000000E+00 -0.45593999997E+02  0.45594000000E+02  0.51100000000E-03 0. -1.
    9900012    2    1    2    0    0  0.33127368566E+02 -0.18977071529E+02 -0.20641486707E+02  0.47787276902E+02  0.20000026707E+02 0.  0.
        -12    1    1    2    0    0 -0.33127368566E+02  0.18977071529E+02  0.20641486707E+02  0.43400723098E+02  0.00000000000E+00 0.  1.
         11    1    3    3    0    0  0.24580888895E+02 -0.13780007835E+02 -0.12937261655E+02  0.31007764418E+02  0.51100000000E-03 0. -1.
        -11    1    3    3    0    0  0.10672959225E+02 -0.56643330037E+01 -0.44751756056E+01  0.12885027123E+02  0.51100000000E-03 0.  1.
         12    1    3    3    0    0 -0.21264795539E+01  0.46726930995E+00 -0.32290494461E+01  0.38944853609E+01  0.00000000000E+00 0. -1.
</event>
<event>
 7    1  0.2642243E-009  0.4778728E+02  0.7816164E-02  0.1312668E+00
        -11   -1    0    0    0    0  0.00000000000E+00  0.00000000000E+00  0.45593999997E+02  0.45594000000E+02  0.51100000000E-03 0.  1.
         11   -1    0    0    0    0 -0.00000000000E+00 -0.00000000000E+00 -0.45593999997E+02  0.45594000000E+02  0.51100000000E-03 0. -1.
    9900012    2    1    2    0    0 -0.34715420544E+02 -0.10847952340E+02 -0.23680884563E+02  0.47787276651E+02  0.20000025563E+02 0.  0.
        -12    1    1    2    0    0  0.34715420544E+02  0.10847952340E+02  0.23680884563E+02  0.43400723349E+02  0.00000000000E+00 0.  1.
         11    1    3    3    0    0 -0.25973451105E+02 -0.99350462505E+01 -0.13986663128E+02  0.31127994668E+02  0.51100000000E-03 0. -1.
        -11    1    3    3    0    0 -0.11200721374E+01 -0.29031802124E+01 -0.80246101574E+01  0.86068220255E+01  0.51100000000E-03 0.  1.
         12    1    3    3    0    0 -0.76218973016E+01  0.19902741226E+01 -0.16696112775E+01  0.80524599581E+01  0.00000000000E+00 0. -1.
</event>
<event>
 7    1  0.2642243E-009  0.4778728E+02  0.7816164E-02  0.1312668E+00
        -11   -1    0    0    0    0  0.00000000000E+00  0.00000000000E+00  0.45593999997E+02  0.45594000000E+02  0.51100000000E-03 0. -1.
         11   -1    0    0    0    0 -0.00000000000E+00 -0.00000000000E+00 -0.45593999997E+02  0.45594000000E+02  0.51100000000E-03 0.  1.
    9900012    2    1    2    0    0  0.33187111896E+02 -0.27647847687E+02  0.42231410929E+01  0.47787276521E+02  0.20000024972E+02 0.  0.
        -12    1    1    2    0    0 -0.33187111896E+02  0.27647847687E+02 -0.42231410929E+01  0.43400723479E+02  0.00000000000E+00 0.  1.
         11    1    3    3    0    0  0.24000627919E+01 -0.42709501283E+01  0.14500889964E+01  0.51092146913E+01  0.51100000000E-03 0. -1.
        -11    1    3    3    0    0  0.25655720921E+02 -0.26195788704E+02  0.32122548563E+01  0.36806982264E+02  0.51100000000E-03 0.  1.
        -12    1    3    3    0    0  0.51313281832E+01  0.28188911452E+01 -0.43920275981E+00  0.58710795665E+01  0.00000000000E+00 0.  1.
</event>
<event>
 7    1  0.2642243E-009  0.4778729E+02  0.7816164E-02  0.1312668E+00
        -11   -1    0    0    0    0  0.00000000000E+00  0.00000000000E+00  0.45593999997E+02  0.45594000000E+02  0.51100000000E-03 0.  1.
         11   -1    0    0    0    0 -0.00000000000E+00 -0.00000000000E+00 -0.45593999997E+02  0.45594000000E+02  0.51100000000E-03 0. -1.
    9900012    2    1    2    0    0  0.32196949011E+02  0.15599728727E+02 -0.24568804230E+02  0.47787294899E+02  0.20000108763E+02 0.  0.
        -12    1    1    2    0    0 -0.32196949011E+02 -0.15599728727E+02  0.24568804230E+02  0.43400705101E+02  0.00000000000E+00 0.  1.
         11    1    3    3    0    0  0.17341756593E+02  0.13593600657E+02 -0.15880894869E+02  0.27161099438E+02  0.51100000000E-03 0. -1.
        -11    1    3    3    0    0  0.56499833729E+01 -0.24181098322E+01  0.13649731188E+01  0.62954522595E+01  0.51100000000E-03 0.  1.
        -12    1    3    3    0    0  0.92052090449E+01  0.44242379018E+01 -0.10052882480E+02  0.14330743202E+02  0.00000000000E+00 0.  1.
</event>
<event>
 7    1  0.2642243E-009  0.4778727E+02  0.7816164E-02  0.1312668E+00
        -11   -1    0    0    0    0  0.00000000000E+00  0.00000000000E+00  0.45593999997E+02  0.45594000000E+02  0.51100000000E-03 0. -1.
         11   -1    0    0    0    0 -0.00000000000E+00 -0.00000000000E+00 -0.45593999997E+02  0.45594000000E+02  0.51100000000E-03 0.  1.
    9900012    2    1    2    0    0 -0.20014003185E+02  0.37943162397E+02 -0.65862809835E+01  0.47787274276E+02  0.20000014734E+02 0.  0.
        -12    1    1    2    0    0  0.20014003185E+02 -0.37943162397E+02  0.65862809835E+01  0.43400725724E+02  0.00000000000E+00 0.  1.
         11    1    3    3    0    0 -0.60412744549E+01  0.15851388232E+02  0.44177655101E+01  0.17529408384E+02  0.51100000000E-03 0. -1.
        -11    1    3    3    0    0 -0.81931529357E+01  0.15033166652E+02 -0.12247597793E+02  0.21050593972E+02  0.51100000000E-03 0.  1.
        -12    1    3    3    0    0 -0.57795757943E+01  0.70586075128E+01  0.12435512990E+01  0.92072719203E+01  0.00000000000E+00 0.  1.
</event>
<event>
 7    1  0.2642243E-009  0.4778727E+02  0.7816164E-02  0.1312668E+00
        -11   -1    0    0    0    0  0.00000000000E+00  0.00000000000E+00  0.45593999997E+02  0.45594000000E+02  0.51100000000E-03 0. -1.
         11   -1    0    0    0    0 -0.00000000000E+00 -0.00000000000E+00 -0.45593999997E+02  0.45594000000E+02  0.51100000000E-03 0.  1.
    9900012    2    1    2    0    0  0.32385704538E+02 -0.71883039656E+01  0.27984237366E+02  0.47787272895E+02  0.20000008437E+02 0.  0.
        -12    1    1    2    0    0 -0.32385704538E+02  0.71883039656E+01 -0.27984237366E+02  0.43400727105E+02  0.00000000000E+00 0.  1.
         11    1    3    3    0    0  0.16325787113E+02  0.43343843783E+01  0.10804271490E+02  0.20051196859E+02  0.51100000000E-03 0. -1.
        -11    1    3    3    0    0  0.12051595938E+02 -0.12532054965E+02  0.15435114077E+02  0.23249432533E+02  0.51100000000E-03 0.  1.
        -12    1    3    3    0    0  0.40083214867E+01  0.10093666209E+01  0.17448517992E+01  0.44866435024E+01  0.00000000000E+00 0.  1.
</event>
<event>
 7    1  0.2642243E-009  0.4778729E+02  0.7816164E-02  0.1312668E+00
        -11   -1    0    0    0    0  0.00000000000E+00  0.00000000000E+00  0.45593999997E+02  0.45594000000E+02  0.51100000000E-03 0.  1.
         11   -1    0    0    0    0 -0.00000000000E+00 -0.00000000000E+00 -0.45593999997E+02  0.45594000000E+02  0.51100000000E-03 0. -1.
    9900012    2    1    2    0    0  0.48007214672E+01 -0.11882967861E+02 -0.41465288110E+02  0.47787286067E+02  0.20000068495E+02 0.  0.
        -12    1    1    2    0    0 -0.48007214672E+01  0.11882967861E+02  0.41465288110E+02  0.43400713933E+02  0.00000000000E+00 0.  1.
         11    1    3    3    0    0 -0.58180182810E+01 -0.29338429699E+01 -0.20745656406E+02  0.21744862180E+02  0.51100000000E-03 0. -1.
        -11    1    3    3    0    0  0.93803759335E+01 -0.35668615075E+01 -0.15350058627E+02  0.18339527087E+02  0.51100000000E-03 0.  1.
         12    1    3    3    0    0  0.12383638147E+01 -0.53822633837E+01 -0.53695730779E+01  0.77028967998E+01  0.00000000000E+00 0. -1.
</event>
<event>
 7    1  0.2642243E-009  0.4778727E+02  0.7816164E-02  0.1312668E+00
        -11   -1    0    0    0    0  0.00000000000E+00  0.00000000000E+00  0.45593999997E+02  0.45594000000E+02  0.51100000000E-03 0.  1.
         11   -1    0    0    0    0 -0.00000000000E+00 -0.00000000000E+00 -0.45593999997E+02  0.45594000000E+02  0.51100000000E-03 0. -1.
    9900012    2    1    2    0    0 -0.33939157124E+02 -0.11426352123E+02 -0.24519283252E+02  0.47787272353E+02  0.20000005965E+02 0.  0.
        -12    1    1    2    0    0  0.33939157124E+02  0.11426352123E+02  0.24519283252E+02  0.43400727647E+02  0.00000000000E+00 0.  1.
         11    1    3    3    0    0 -0.26875931138E+02 -0.11021502714E+02 -0.27072649061E+02  0.39707902539E+02  0.51100000000E-03 0. -1.
        -11    1    3    3    0    0 -0.14217384728E+01 -0.72922554068E+00  0.17533686521E+01  0.23722166987E+01  0.51100000000E-03 0.  1.
         12    1    3    3    0    0 -0.56414875127E+01  0.32437613159E+00  0.79999715607E+00  0.57071531152E+01  0.00000000000E+00 0. -1.
</event>
<event>
 7    1  0.2642243E-009  0.4778728E+02  0.7816164E-02  0.1312668E+00
        -11   -1    0    0    0    0  0.00000000000E+00  0.00000000000E+00  0.45593999997E+02  0.45594000000E+02  0.51100000000E-03 0.  1.
         11   -1    0    0    0    0 -0.00000000000E+00 -0.00000000000E+00 -0.45593999997E+02  0.45594000000E+02  0.51100000000E-03 0. -1.
    9900012    2    1    2    0    0 -0.35510190642E+02  0.51046365354E+00 -0.24947719005E+02  0.47787275396E+02  0.20000019841E+02 0.  0.
        -12    1    1    2    0    0  0.35510190642E+02 -0.51046365354E+00  0.24947719005E+02  0.43400724604E+02  0.00000000000E+00 0.  1.
         11    1    3    3    0    0  0.52371748599E+00 -0.26488927419E+00 -0.43315576715E+01  0.43711369751E+01  0.51100000000E-03 0. -1.
        -11    1    3    3    0    0 -0.28727448881E+02 -0.44798414196E+01 -0.17252430219E+02  0.33808011581E+02  0.51100000000E-03 0.  1.
        -12    1    3    3    0    0 -0.73064592473E+01  0.52551943474E+01 -0.33637311151E+01  0.96081268401E+01  0.00000000000E+00 0.  1.
</event>
<event>
 7    1  0.2642243E-009  0.4778727E+02  0.7816164E-02  0.1312668E+00
        -11   -1    0    0    0    0  0.00000000000E+00  0.00000000000E+00  0.45593999997E+02  0.45594000000E+02  0.51100000000E-03 0.  1.
         11   -1    0    0    0    0 -0.00000000000E+00 -0.00000000000E+00 -0.45593999997E+02  0.45594000000E+02  0.51100000000E-03 0. -1.
    9900012    2    1    2    0    0  0.32011974567E+01 -0.30468859533E+02 -0.30741248589E+02  0.47787269232E+02  0.19999991738E+02 0.  0.
        -12    1    1    2    0    0 -0.32011974567E+01  0.30468859533E+02  0.30741248589E+02  0.43400730768E+02  0.00000000000E+00 0.  1.
         11    1    3    3    0    0  0.66090564577E+01 -0.16536060689E+02 -0.89222512521E+01  0.19918019431E+02  0.51100000000E-03 0. -1.
        -11    1    3    3    0    0  0.19385973101E+01 -0.32417194069E+01 -0.11410130169E+02  0.12019067143E+02  0.51100000000E-03 0.  1.
         12    1    3    3    0    0 -0.53464563111E+01 -0.10691079436E+02 -0.10408867168E+02  0.15850182659E+02  0.00000000000E+00 0. -1.
</event>
<event>
 7    1  0.2642243E-009  0.4778727E+02  0.7816164E-02  0.1312668E+00
        -11   -1    0    0    0    0  0.00000000000E+00  0.00000000000E+00  0.45593999997E+02  0.45594000000E+02  0.51100000000E-03 0.  1.
         11   -1    0    0    0    0 -0.00000000000E+00 -0.00000000000E+00 -0.45593999997E+02  0.45594000000E+02  0.51100000000E-03 0. -1.
    9900012    2    1    2    0    0 -0.29686487035E+02 -0.71269037535E+00 -0.31651666447E+02  0.47787269258E+02  0.19999991856E+02 0.  0.
        -12    1    1    2    0    0  0.29686487035E+02  0.71269037535E+00  0.31651666447E+02  0.43400730742E+02  0.00000000000E+00 0.  1.
         11    1    3    3    0    0 -0.17612022050E+02 -0.29413639127E+01 -0.69948752133E+01  0.19177153643E+02  0.51100000000E-03 0. -1.
        -11    1    3    3    0    0 -0.12142938421E+02  0.14193829181E+00 -0.22722329844E+02  0.25763838491E+02  0.51100000000E-03 0.  1.
        -12    1    3    3    0    0  0.68473436270E-01  0.20867352456E+01 -0.19344613894E+01  0.28462771235E+01  0.00000000000E+00 0.  1.
</event>
<event>
 7    1  0.2642243E-009  0.4778727E+02  0.7816164E-02  0.1312668E+00
        -11   -1    0    0    0    0  0.00000000000E+00  0.00000000000E+00  0.45593999997E+02  0.45594000000E+02  0.51100000000E-03 0. -1.
         11   -1    0    0    0    0 -0.00000000000E+00 -0.00000000000E+00 -0.45593999997E+02  0.45594000000E+02  0.51100000000E-03 0.  1.
    9900012    2    1    2    0    0  0.24276847344E+02 -0.28223647933E+02  0.22308817028E+02  0.47787274928E+02  0.20000017706E+02 0.  0.
        -12    1    1    2    0    0 -0.24276847344E+02  0.28223647933E+02 -0.22308817028E+02  0.43400725072E+02  0.00000000000E+00 0.  1.
         11    1    3    3    0    0  0.87070517424E+01 -0.83983216979E+01  0.17566792069E+02  0.21329246148E+02  0.51100000000E-03 0. -1.
        -11    1    3    3    0    0  0.26718361608E+01 -0.71919193587E+01 -0.40943701561E+00  0.76831016825E+01  0.51100000000E-03 0.  1.
        -12    1    3    3    0    0  0.12897959440E+02 -0.12633406877E+02  0.51514619743E+01  0.18774927097E+02  0.00000000000E+00 0.  1.
</event>
<event>
 7    1  0.2642243E-009  0.4778727E+02  0.7816164E-02  0.1312668E+00
        -11   -1    0    0    0    0  0.00000000000E+00  0.00000000000E+00  0.45593999997E+02  0.45594000000E+02  0.51100000000E-03 0. -1.
         11   -1    0    0    0    0 -0.00000000000E+00 -0.00000000000E+00 -0.45593999997E+02  0.45594000000E+02  0.51100000000E-03 0.  1.
    9900012    2    1    2    0    0  0.39859408501E+02  0.11132185789E+02 -0.13073833661E+02  0.47787272666E+02  0.20000007393E+02 0.  0.
        -12    1    1    2    0    0 -0.39859408501E+02 -0.11132185789E+02  0.13073833661E+02  0.43400727334E+02  0.00000000000E+00 0.  1.
         11    1    3    3    0    0  0.23572841405E+02  0.82339649248E+01 -0.80688038017E+01  0.26240857939E+02  0.51100000000E-03 0. -1.
        -11    1    3    3    0    0  0.22145514775E+00 -0.31465716471E+01  0.10813660991E+01  0.33345627021E+01  0.51100000000E-03 0.  1.
        -12    1    3    3    0    0  0.16065111948E+02  0.60447925117E+01 -0.60863959587E+01  0.18211852025E+02  0.00000000000E+00 0.  1.
</event>
<event>
 7    1  0.2642243E-009  0.4778727E+02  0.7816164E-02  0.1312668E+00
        -11   -1    0    0    0    0  0.00000000000E+00  0.00000000000E+00  0.45593999997E+02  0.45594000000E+02  0.51100000000E-03 0.  1.
         11   -1    0    0    0    0 -0.00000000000E+00 -0.00000000000E+00 -0.45593999997E+02  0.45594000000E+02  0.51100000000E-03 0. -1.
    9900012    2    1    2    0    0  0.63255035238E+01 -0.28600980919E+02 -0.32024915825E+02  0.47787270306E+02  0.19999996634E+02 0.  0.
        -12    1    1    2    0    0 -0.63255035238E+01  0.28600980919E+02  0.32024915825E+02  0.43400729694E+02  0.00000000000E+00 0.  1.
         11    1    3    3    0    0 -0.29542784620E+01 -0.13524451412E+02 -0.16686116871E+02  0.21680983458E+02  0.51100000000E-03 0. -1.
        -11    1    3    3    0    0  0.89272572229E+01 -0.36519428771E+01 -0.79127524936E+01  0.12475746895E+02  0.51100000000E-03 0.  1.
        -12    1    3    3    0    0  0.35252476293E+00 -0.11424586630E+02 -0.74260464604E+01  0.13630539953E+02  0.00000000000E+00 0.  1.
</event>
<event>
 7    1  0.2642243E-009  0.4778727E+02  0.7816164E-02  0.1312668E+00
        -11   -1    0    0    0    0  0.00000000000E+00  0.00000000000E+00  0.45593999997E+02  0.45594000000E+02  0.51100000000E-03 0. -1.
         11   -1    0    0    0    0 -0.00000000000E+00 -0.00000000000E+00 -0.45593999997E+02  0.45594000000E+02  0.51100000000E-03 0.  1.
    9900012    2    1    2    0    0 -0.27745567441E+02  0.32148273888E+02  0.89607586519E+01  0.47787271640E+02  0.20000002714E+02 0.  0.
        -12    1    1    2    0    0  0.27745567441E+02 -0.32148273888E+02 -0.89607586519E+01  0.43400728360E+02  0.00000000000E+00 0.  1.
         11    1    3    3    0    0 -0.78540597637E+00  0.12888528543E+02  0.60502906375E+01  0.14259629996E+02  0.51100000000E-03 0.  1.
        -11    1    3    3    0    0 -0.19496410971E+02  0.11894459351E+02  0.93637105905E+00  0.22857493192E+02  0.51100000000E-03 0. -1.
        -12    1    3    3    0    0 -0.74637504935E+01  0.73652859943E+01  0.19740969554E+01  0.10670148452E+02  0.00000000000E+00 0.  1.
</event>
<event>
 7    1  0.2642243E-009  0.4778727E+02  0.7816164E-02  0.1312668E+00
        -11   -1    0    0    0    0  0.00000000000E+00  0.00000000000E+00  0.45593999997E+02  0.45594000000E+02  0.51100000000E-03 0. -1.
         11   -1    0    0    0    0 -0.00000000000E+00 -0.00000000000E+00 -0.45593999997E+02  0.45594000000E+02  0.51100000000E-03 0.  1.
    9900012    2    1    2    0    0 -0.92635857615E+01  0.42010250649E+02 -0.57400493024E+01  0.47787270205E+02  0.19999996172E+02 0.  0.
        -12    1    1    2    0    0  0.92635857615E+01 -0.42010250649E+02  0.57400493024E+01  0.43400729795E+02  0.00000000000E+00 0.  1.
         11    1    3    3    0    0 -0.89302641515E+01  0.21555747935E+02  0.47341393811E-01  0.23332426542E+02  0.51100000000E-03 0. -1.
        -11    1    3    3    0    0  0.31829668174E+01  0.14721916996E+02 -0.83929907286E+01  0.17242633541E+02  0.51100000000E-03 0.  1.
        -12    1    3    3    0    0 -0.35162884274E+01  0.57325857177E+01  0.26056000324E+01  0.72122101220E+01  0.00000000000E+00 0.  1.
</event>
<event>
 7    1  0.2642243E-009  0.4778729E+02  0.7816164E-02  0.1312668E+00
        -11   -1    0    0    0    0  0.00000000000E+00  0.00000000000E+00  0.45593999997E+02  0.45594000000E+02  0.51100000000E-03 0.  1.
         11   -1    0    0    0    0 -0.00000000000E+00 -0.00000000000E+00 -0.45593999997E+02  0.45594000000E+02  0.51100000000E-03 0. -1.
    9900012    2    1    2    0    0 -0.29532840448E+02 -0.62057365330E+01 -0.31191695569E+02  0.47787289138E+02  0.20000082497E+02 0.  0.
        -12    1    1    2    0    0  0.29532840448E+02  0.62057365330E+01  0.31191695569E+02  0.43400710862E+02  0.00000000000E+00 0.  1.
         11    1    3    3    0    0 -0.15006201401E+01  0.17457145251E+01 -0.36394048691E+01  0.43063497385E+01  0.51100000000E-03 0. -1.
        -11    1    3    3    0    0 -0.27595684891E+01 -0.60170379952E+01 -0.86619714148E+00  0.66760963317E+01  0.51100000000E-03 0.  1.
        -12    1    3    3    0    0 -0.25272651819E+02 -0.19344130629E+01 -0.26686093558E+02  0.36804843068E+02  0.00000000000E+00 0.  1.
</event>
<event>
 7    1  0.2642243E-009  0.4778728E+02  0.7816164E-02  0.1312668E+00
        -11   -1    0    0    0    0  0.00000000000E+00  0.00000000000E+00  0.45593999997E+02  0.45594000000E+02  0.51100000000E-03 0.  1.
         11   -1    0    0    0    0 -0.00000000000E+00 -0.00000000000E+00 -0.45593999997E+02  0.45594000000E+02  0.51100000000E-03 0. -1.
    9900012    2    1    2    0    0  0.22572350098E+02 -0.57510532524E+01 -0.36620167861E+02  0.47787282303E+02  0.20000051333E+02 0.  0.
        -12    1    1    2    0    0 -0.22572350098E+02  0.57510532524E+01  0.36620167861E+02  0.43400717697E+02  0.00000000000E+00 0.  1.
         11    1    3    3    0    0  0.11453780220E+02  0.63751999008E+01 -0.16060019331E+02  0.20730568643E+02  0.51100000000E-03 0. -1.
        -11    1    3    3    0    0  0.37001598294E+01 -0.34895483922E+01 -0.24028036777E+01  0.56250863567E+01  0.51100000000E-03 0.  1.
         12    1    3    3    0    0  0.74184100480E+01 -0.86367047610E+01 -0.18157344853E+02  0.21431627303E+02  0.00000000000E+00 0. -1.
</event>
<event>
 7    1  0.2642243E-009  0.4778727E+02  0.7816164E-02  0.1312668E+00
        -11   -1    0    0    0    0  0.00000000000E+00  0.00000000000E+00  0.45593999997E+02  0.45594000000E+02  0.51100000000E-03 0.  1.
         11   -1    0    0    0    0 -0.00000000000E+00 -0.00000000000E+00 -0.45593999997E+02  0.45594000000E+02  0.51100000000E-03 0. -1.
    9900012    2    1    2    0    0 -0.33279523017E+02 -0.27766176055E+02  0.22663748495E+01  0.47787266827E+02  0.19999980772E+02 0.  0.
        -12    1    1    2    0    0  0.33279523017E+02  0.27766176055E+02 -0.22663748495E+01  0.43400733173E+02  0.00000000000E+00 0.  1.
         11    1    3    3    0    0 -0.14272180450E+02 -0.12900528631E+02 -0.49697804896E+01  0.19870014900E+02  0.51100000000E-03 0. -1.
        -11    1    3    3    0    0 -0.44449923629E+01 -0.27664905438E+01  0.73011369914E+01  0.89843212690E+01  0.51100000000E-03 0.  1.
        -12    1    3    3    0    0 -0.14562350205E+02 -0.12099156881E+02 -0.64981652404E-01  0.18932930659E+02  0.00000000000E+00 0.  1.
</event>
<event>
 7    1  0.2642243E-009  0.4778727E+02  0.7816164E-02  0.1312668E+00
        -11   -1    0    0    0    0  0.00000000000E+00  0.00000000000E+00  0.45593999997E+02  0.45594000000E+02  0.51100000000E-03 0.  1.
         11   -1    0    0    0    0 -0.00000000000E+00 -0.00000000000E+00 -0.45593999997E+02  0.45594000000E+02  0.51100000000E-03 0. -1.
    9900012    2    1    2    0    0  0.55283721440E+01  0.39034318196E+02 -0.18148898780E+02  0.47787269332E+02  0.19999992193E+02 0.  0.
        -12    1    1    2    0    0 -0.55283721440E+01 -0.39034318196E+02  0.18148898780E+02  0.43400730668E+02  0.00000000000E+00 0.  1.
         11    1    3    3    0    0  0.40832605352E+01  0.34719999395E+02 -0.16596290004E+02  0.38698684949E+02  0.51100000000E-03 0. -1.
        -11    1    3    3    0    0 -0.26251797617E+01 -0.34677200278E+00 -0.11513240774E+01  0.28874499122E+01  0.51100000000E-03 0.  1.
        -12    1    3    3    0    0  0.40702913705E+01  0.46610908038E+01 -0.40128469821E+00  0.62011344713E+01  0.00000000000E+00 0.  1.
</event>
<event>
 7    1  0.2642243E-009  0.4778727E+02  0.7816164E-02  0.1312668E+00
        -11   -1    0    0    0    0  0.00000000000E+00  0.00000000000E+00  0.45593999997E+02  0.45594000000E+02  0.51100000000E-03 0.  1.
         11   -1    0    0    0    0 -0.00000000000E+00 -0.00000000000E+00 -0.45593999997E+02  0.45594000000E+02  0.51100000000E-03 0. -1.
    9900012    2    1    2    0    0  0.11001111847E+02  0.53971349787E+01 -0.41634957400E+02  0.47787271831E+02  0.20000003587E+02 0.  0.
        -12    1    1    2    0    0 -0.11001111847E+02 -0.53971349787E+01  0.41634957400E+02  0.43400728169E+02  0.00000000000E+00 0.  1.
         11    1    3    3    0    0  0.89697083797E+01  0.38109874278E+01 -0.37604421546E+02  0.38846773530E+02  0.51100000000E-03 0. -1.
        -11    1    3    3    0    0 -0.28095299698E+01  0.12115128029E+01 -0.10089707298E+01  0.32216834291E+01  0.51100000000E-03 0.  1.
         12    1    3    3    0    0  0.48409334375E+01  0.37463474800E+00 -0.30215651245E+01  0.57188148722E+01  0.00000000000E+00 0. -1.
</event>
<event>
 7    1  0.2642243E-009  0.4778728E+02  0.7816164E-02  0.1312668E+00
        -11   -1    0    0    0    0  0.00000000000E+00  0.00000000000E+00  0.45593999997E+02  0.45594000000E+02  0.51100000000E-03 0.  1.
         11   -1    0    0    0    0 -0.00000000000E+00 -0.00000000000E+00 -0.45593999997E+02  0.45594000000E+02  0.51100000000E-03 0. -1.
    9900012    2    1    2    0    0 -0.23527633080E+02 -0.33220237581E+02 -0.15049554776E+02  0.47787276478E+02  0.20000024772E+02 0.  0.
        -12    1    1    2    0    0  0.23527633080E+02  0.33220237581E+02  0.15049554776E+02  0.43400723522E+02  0.00000000000E+00 0.  1.
         11    1    3    3    0    0  0.13076157870E+01 -0.18732978595E+01  0.25820664912E+01  0.34476327448E+01  0.51100000000E-03 0.  1.
        -11    1    3    3    0    0 -0.21946786551E+02 -0.25476390450E+02 -0.17233330580E+02  0.37784859315E+02  0.51100000000E-03 0. -1.
        -12    1    3    3    0    0 -0.28884623163E+01 -0.58705492714E+01 -0.39829068744E+00  0.65547844184E+01  0.00000000000E+00 0.  1.
</event>
<event>
 7    1  0.2642243E-009  0.4778727E+02  0.7816164E-02  0.1312668E+00
        -11   -1    0    0    0    0  0.00000000000E+00  0.00000000000E+00  0.45593999997E+02  0.45594000000E+02  0.51100000000E-03 0.  1.
         11   -1    0    0    0    0 -0.00000000000E+00 -0.00000000000E+00 -0.45593999997E+02  0.45594000000E+02  0.51100000000E-03 0. -1.
    9900012    2    1    2    0    0 -0.42655266195E+02  0.79178273494E+01 -0.12081410767E+01  0.47787270410E+02  0.19999997107E+02 0.  0.
        -12    1    1    2    0    0  0.42655266195E+02 -0.79178273494E+01  0.12081410767E+01  0.43400729590E+02  0.00000000000E+00 0.  1.
         11    1    3    3    0    0 -0.81351770257E+01  0.74910914561E+01  0.35850435547E+01  0.11625407261E+02  0.51100000000E-03 0. -1.
        -11    1    3    3    0    0 -0.15549236487E+01  0.13216218222E+01 -0.23231669959E+01  0.30921799667E+01  0.51100000000E-03 0.  1.
         12    1    3    3    0    0 -0.32965165521E+02 -0.89488592896E+00 -0.24700176355E+01  0.33069683182E+02  0.00000000000E+00 0. -1.
</event>
<event>
 7    1  0.2642243E-009  0.4778727E+02  0.7816164E-02  0.1312668E+00
        -11   -1    0    0    0    0  0.00000000000E+00  0.00000000000E+00  0.45593999997E+02  0.45594000000E+02  0.51100000000E-03 0. -1.
         11   -1    0    0    0    0 -0.00000000000E+00 -0.00000000000E+00 -0.45593999997E+02  0.45594000000E+02  0.51100000000E-03 0.  1.
    9900012    2    1    2    0    0 -0.27274574746E+02  0.33153951290E+02 -0.63668084020E+01  0.47787272322E+02  0.20000005827E+02 0.  0.
        -12    1    1    2    0    0  0.27274574746E+02 -0.33153951290E+02  0.63668084020E+01  0.43400727678E+02  0.00000000000E+00 0.  1.
         11    1    3    3    0    0 -0.26911258188E+01  0.11836371423E+02 -0.58713483837E+01  0.13483863643E+02  0.51100000000E-03 0. -1.
        -11    1    3    3    0    0 -0.89599039468E+00  0.50877300093E+01 -0.20245114015E+01  0.55485531547E+01  0.51100000000E-03 0.  1.
         12    1    3    3    0    0 -0.23687458532E+02  0.16229849858E+02  0.15290513833E+01  0.28754855525E+02  0.00000000000E+00 0. -1.
</event>
<event>
 7    1  0.2642243E-009  0.4778727E+02  0.7816164E-02  0.1312668E+00
        -11   -1    0    0    0    0  0.00000000000E+00  0.00000000000E+00  0.45593999997E+02  0.45594000000E+02  0.51100000000E-03 0.  1.
         11   -1    0    0    0    0 -0.00000000000E+00 -0.00000000000E+00 -0.45593999997E+02  0.45594000000E+02  0.51100000000E-03 0. -1.
    9900012    2    1    2    0    0 -0.84292687247E+01 -0.17198169176E+02 -0.38946034015E+02  0.47787272360E+02  0.20000005997E+02 0.  0.
        -12    1    1    2    0    0  0.84292687247E+01  0.17198169176E+02  0.38946034015E+02  0.43400727640E+02  0.00000000000E+00 0.  1.
         11    1    3    3    0    0 -0.86253751430E+01 -0.96363199814E+01 -0.31682365494E+02  0.34220287005E+02  0.51100000000E-03 0. -1.
        -11    1    3    3    0    0 -0.20807925695E+01 -0.85820652696E+01 -0.47579944756E+01  0.10030954775E+02  0.51100000000E-03 0.  1.
         12    1    3    3    0    0  0.22768989878E+01  0.10202160751E+01 -0.25056740450E+01  0.35360305797E+01  0.00000000000E+00 0. -1.
</event>
<event>
 7    1  0.2642243E-009  0.4778730E+02  0.7816164E-02  0.1312668E+00
        -11   -1    0    0    0    0  0.00000000000E+00  0.00000000000E+00  0.45593999997E+02  0.45594000000E+02  0.51100000000E-03 0.  1.
         11   -1    0    0    0    0 -0.00000000000E+00 -0.00000000000E+00 -0.45593999997E+02  0.45594000000E+02  0.51100000000E-03 0. -1.
    9900012    2    1    2    0    0 -0.41202015770E+02 -0.12601331952E+02 -0.52174218964E+01  0.47787295378E+02  0.20000110945E+02 0.  0.
        -12    1    1    2    0    0  0.41202015770E+02  0.12601331952E+02  0.52174218964E+01  0.43400704622E+02  0.00000000000E+00 0.  1.
         11    1    3    3    0    0 -0.17568893164E+02 -0.64775386451E+01 -0.51175962493E+01  0.19411705374E+02  0.51100000000E-03 0. -1.
        -11    1    3    3    0    0 -0.10528948030E+02 -0.74379199395E+01  0.55624848943E+01  0.14040036969E+02  0.51100000000E-03 0.  1.
        -12    1    3    3    0    0 -0.13104174577E+02  0.13141266323E+01 -0.56623105414E+01  0.14335553035E+02  0.00000000000E+00 0.  1.
</event>
<event>
 7    1  0.2642243E-009  0.4778727E+02  0.7816164E-02  0.1312668E+00
        -11   -1    0    0    0    0  0.00000000000E+00  0.00000000000E+00  0.45593999997E+02  0.45594000000E+02  0.51100000000E-03 0. -1.
         11   -1    0    0    0    0 -0.00000000000E+00 -0.00000000000E+00 -0.45593999997E+02  0.45594000000E+02  0.51100000000E-03 0.  1.
    9900012    2    1    2    0    0  0.36364756388E+02 -0.19550249802E+02  0.13379654695E+02  0.47787274957E+02  0.20000017841E+02 0.  0.
        -12    1    1    2    0    0 -0.36364756388E+02  0.19550249802E+02 -0.13379654695E+02  0.43400725043E+02  0.00000000000E+00 0.  1.
         11    1    3    3    0    0  0.36168531292E+01 -0.53844987563E+01  0.21413981813E+01  0.68308154599E+01  0.51100000000E-03 0. -1.
        -11    1    3    3    0    0  0.27876294050E+02 -0.15702012765E+02  0.14252480597E+02  0.35025336233E+02  0.51100000000E-03 0.  1.
        -12    1    3    3    0    0  0.48716092089E+01  0.15362617185E+01 -0.30142240837E+01  0.59311232645E+01  0.00000000000E+00 0.  1.
</event>
<event>
 7    1  0.2642243E-009  0.4778727E+02  0.7816164E-02  0.1312668E+00
        -11   -1    0    0    0    0  0.00000000000E+00  0.00000000000E+00  0.45593999997E+02  0.45594000000E+02  0.51100000000E-03 0.  1.
         11   -1    0    0    0    0 -0.00000000000E+00 -0.00000000000E+00 -0.45593999997E+02  0.45594000000E+02  0.51100000000E-03 0. -1.
    9900012    2    1    2    0    0  0.35273844589E+02 -0.21944692687E+02 -0.12562237823E+02  0.47787268804E+02  0.19999989787E+02 0.  0.
        -12    1    1    2    0    0 -0.35273844589E+02  0.21944692687E+02  0.12562237823E+02  0.43400731196E+02  0.00000000000E+00 0.  1.
         11    1    3    3    0    0 -0.19398725616E+00  0.17853868653E+01 -0.15090375788E+01  0.23457263246E+01  0.51100000000E-03 0. -1.
        -11    1    3    3    0    0  0.32012372796E+02 -0.18477739121E+02 -0.12446897709E+02  0.39001847622E+02  0.51100000000E-03 0.  1.
        -12    1    3    3    0    0  0.34554590487E+01 -0.52523404309E+01  0.13936974649E+01  0.64396948579E+01  0.00000000000E+00 0.  1.
</event>
<event>
 7    1  0.2642243E-009  0.4778727E+02  0.7816164E-02  0.1312668E+00
        -11   -1    0    0    0    0  0.00000000000E+00  0.00000000000E+00  0.45593999997E+02  0.45594000000E+02  0.51100000000E-03 0.  1.
         11   -1    0    0    0    0 -0.00000000000E+00 -0.00000000000E+00 -0.45593999997E+02  0.45594000000E+02  0.51100000000E-03 0. -1.
    9900012    2    1    2    0    0  0.37054216637E+02  0.10971736675E+02 -0.19754218300E+02  0.47787272853E+02  0.20000008245E+02 0.  0.
        -12    1    1    2    0    0 -0.37054216637E+02 -0.10971736675E+02  0.19754218300E+02  0.43400727147E+02  0.00000000000E+00 0.  1.
         11    1    3    3    0    0  0.21307505466E+02  0.35325467298E+01 -0.20079534615E+02  0.29490276130E+02  0.51100000000E-03 0. -1.
        -11    1    3    3    0    0  0.14306006222E+02  0.47579694943E+01  0.12164018036E+01  0.15125465988E+02  0.51100000000E-03 0.  1.
        -12    1    3    3    0    0  0.14407049487E+01  0.26812204509E+01 -0.89108548871E+00  0.31715307351E+01  0.00000000000E+00 0.  1.
</event>
<event>
 7    1  0.2642243E-009  0.4778727E+02  0.7816164E-02  0.1312668E+00
        -11   -1    0    0    0    0  0.00000000000E+00  0.00000000000E+00  0.45593999997E+02  0.45594000000E+02  0.51100000000E-03 0.  1.
         11   -1    0    0    0    0 -0.00000000000E+00 -0.00000000000E+00 -0.45593999997E+02  0.45594000000E+02  0.51100000000E-03 0. -1.
    9900012    2    1    2    0    0 -0.14766251388E+02 -0.33951559667E+02 -0.22646694330E+02  0.47787270191E+02  0.19999996107E+02 0.  0.
        -12    1    1    2    0    0  0.14766251388E+02  0.33951559667E+02  0.22646694330E+02  0.43400729809E+02  0.00000000000E+00 0.  1.
         11    1    3    3    0    0 -0.34752460978E+01 -0.73255743904E+01 -0.59305183343E+01  0.10045517586E+02  0.51100000000E-03 0. -1.
        -11    1    3    3    0    0  0.16831420884E+01 -0.16946683071E+02 -0.12160048834E+02  0.20925817124E+02  0.51100000000E-03 0.  1.
        -12    1    3    3    0    0 -0.12974147378E+02 -0.96793022064E+01 -0.45561271619E+01  0.16815935481E+02  0.00000000000E+00 0.  1.
</event>
<event>
 7    1  0.2642243E-009  0.4778727E+02  0.7816164E-02  0.1312668E+00
        -11   -1    0    0    0    0  0.00000000000E+00  0.00000000000E+00  0.45593999997E+02  0.45594000000E+02  0.51100000000E-03 0.  1.
         11   -1    0    0    0    0 -0.00000000000E+00 -0.00000000000E+00 -0.45593999997E+02  0.45594000000E+02  0.51100000000E-03 0. -1.
    9900012    2    1    2    0    0  0.38151048640E+02 -0.18359522195E+02  0.95419510102E+01  0.47787269630E+02  0.19999993553E+02 0.  0.
        -12    1    1    2    0    0 -0.38151048640E+02  0.18359522195E+02 -0.95419510102E+01  0.43400730370E+02  0.00000000000E+00 0.  1.
         11    1    3    3    0    0  0.52282096888E+01 -0.33109627565E+01 -0.50291715213E+00  0.62088305540E+01  0.51100000000E-03 0. -1.
        -11    1    3    3    0    0  0.25636933661E+02 -0.57712535650E+01  0.30416205043E+00  0.26280263508E+02  0.51100000000E-03 0.  1.
        -12    1    3    3    0    0  0.72859052902E+01 -0.92773058731E+01  0.97407061119E+01  0.15298175568E+02  0.00000000000E+00 0.  1.
</event>
<event>
 7    1  0.2642243E-009  0.4778727E+02  0.7816164E-02  0.1312668E+00
        -11   -1    0    0    0    0  0.00000000000E+00  0.00000000000E+00  0.45593999997E+02  0.45594000000E+02  0.51100000000E-03 0. -1.
         11   -1    0    0    0    0 -0.00000000000E+00 -0.00000000000E+00 -0.45593999997E+02  0.45594000000E+02  0.51100000000E-03 0.  1.
    9900012    2    1    2    0    0 -0.31372553061E+02 -0.27613971104E+02  0.11698500358E+02  0.47787269634E+02  0.19999993567E+02 0.  0.
        -12    1    1    2    0    0  0.31372553061E+02  0.27613971104E+02 -0.11698500358E+02  0.43400730366E+02  0.00000000000E+00 0.  1.
         11    1    3    3    0    0 -0.79618261758E+01 -0.10632613364E+02  0.13183790078E+02  0.18715113253E+02  0.51100000000E-03 0. -1.
        -11    1    3    3    0    0 -0.14940339945E+02 -0.10017418197E+02  0.12957617776E+00  0.17988307737E+02  0.51100000000E-03 0.  1.
        -12    1    3    3    0    0 -0.84703869409E+01 -0.69639395429E+01 -0.16148658975E+01  0.11083848644E+02  0.00000000000E+00 0.  1.
</event>
<event>
 7    1  0.2642243E-009  0.4778727E+02  0.7816164E-02  0.1312668E+00
        -11   -1    0    0    0    0  0.00000000000E+00  0.00000000000E+00  0.45593999997E+02  0.45594000000E+02  0.51100000000E-03 0.  1.
         11   -1    0    0    0    0 -0.00000000000E+00 -0.00000000000E+00 -0.45593999997E+02  0.45594000000E+02  0.51100000000E-03 0. -1.
    9900012    2    1    2    0    0 -0.36910267805E+02  0.13489809494E+02 -0.18419569868E+02  0.47787269779E+02  0.19999994229E+02 0.  0.
        -12    1    1    2    0    0  0.36910267805E+02 -0.13489809494E+02  0.18419569868E+02  0.43400730221E+02  0.00000000000E+00 0.  1.
         11    1    3    3    0    0 -0.83683941300E+01 -0.30476461243E+01  0.84796125705E-02  0.89060787880E+01  0.51100000000E-03 0. -1.
        -11    1    3    3    0    0 -0.13718601330E+02  0.98590621431E+01 -0.14233506453E+02  0.22090582495E+02  0.51100000000E-03 0.  1.
         12    1    3    3    0    0 -0.14823272345E+02  0.66783934750E+01 -0.41945430281E+01  0.16790608495E+02  0.00000000000E+00 0. -1.
</event>
<event>
 7    1  0.2642243E-009  0.4778727E+02  0.7816164E-02  0.1312668E+00
        -11   -1    0    0    0    0  0.00000000000E+00  0.00000000000E+00  0.45593999997E+02  0.45594000000E+02  0.51100000000E-03 0.  1.
         11   -1    0    0    0    0 -0.00000000000E+00 -0.00000000000E+00 -0.45593999997E+02  0.45594000000E+02  0.51100000000E-03 0. -1.
    9900012    2    1    2    0    0 -0.16643042612E+02 -0.23208273929E+02 -0.32680398731E+02  0.47787270658E+02  0.19999998240E+02 0.  0.
        -12    1    1    2    0    0  0.16643042612E+02  0.23208273929E+02  0.32680398731E+02  0.43400729342E+02  0.00000000000E+00 0.  1.
         11    1    3    3    0    0 -0.14983750594E+02 -0.22578206190E+02 -0.23890853091E+02  0.36125628552E+02  0.51100000000E-03 0. -1.
        -11    1    3    3    0    0  0.27272827527E+01 -0.87883073028E+00 -0.53976821170E+01  0.61110872325E+01  0.51100000000E-03 0.  1.
         12    1    3    3    0    0 -0.43865747712E+01  0.24876299083E+00 -0.33918635228E+01  0.55505548738E+01  0.00000000000E+00 0. -1.
</event>
<event>
 7    1  0.2642243E-009  0.4778728E+02  0.7816164E-02  0.1312668E+00
        -11   -1    0    0    0    0  0.00000000000E+00  0.00000000000E+00  0.45593999997E+02  0.45594000000E+02  0.51100000000E-03 0.  1.
         11   -1    0    0    0    0 -0.00000000000E+00 -0.00000000000E+00 -0.45593999997E+02  0.45594000000E+02  0.51100000000E-03 0. -1.
    9900012    2    1    2    0    0 -0.92381203156E+01  0.33627592496E+01 -0.42272586337E+02  0.47787279126E+02  0.20000036848E+02 0.  0.
        -12    1    1    2    0    0  0.92381203156E+01 -0.33627592496E+01  0.42272586337E+02  0.43400720874E+02  0.00000000000E+00 0.  1.
         11    1    3    3    0    0 -0.83733644978E+01 -0.35643488833E+00 -0.27915332002E+02  0.29146286897E+02  0.51100000000E-03 0. -1.
        -11    1    3    3    0    0  0.20956022624E+01  0.68273842753E+01 -0.11313010972E+02  0.13378674912E+02  0.51100000000E-03 0.  1.
         12    1    3    3    0    0 -0.29603580802E+01 -0.31081901374E+01 -0.30442433626E+01  0.52623173170E+01  0.00000000000E+00 0. -1.
</event>
<event>
 7    1  0.2642243E-009  0.4778727E+02  0.7816164E-02  0.1312668E+00
        -11   -1    0    0    0    0  0.00000000000E+00  0.00000000000E+00  0.45593999997E+02  0.45594000000E+02  0.51100000000E-03 0.  1.
         11   -1    0    0    0    0 -0.00000000000E+00 -0.00000000000E+00 -0.45593999997E+02  0.45594000000E+02  0.51100000000E-03 0. -1.
    9900012    2    1    2    0    0 -0.21343054213E+02  0.14715458802E+02 -0.34807363743E+02  0.47787271186E+02  0.20000000645E+02 0.  0.
        -12    1    1    2    0    0  0.21343054213E+02 -0.14715458802E+02  0.34807363743E+02  0.43400728814E+02  0.00000000000E+00 0.  1.
         11    1    3    3    0    0 -0.13148404547E+01  0.12682613824E+01 -0.65713551090E-01  0.18280073543E+01  0.51100000000E-03 0. -1.
        -11    1    3    3    0    0  0.19562809561E+01  0.68206305487E+01 -0.91008511286E+01  0.11540083526E+02  0.51100000000E-03 0.  1.
        -12    1    3    3    0    0 -0.21984494714E+02  0.66265668706E+01 -0.25640799063E+02  0.34419180306E+02  0.00000000000E+00 0.  1.
</event>
<event>
 7    1  0.2642243E-009  0.4778727E+02  0.7816164E-02  0.1312668E+00
        -11   -1    0    0    0    0  0.00000000000E+00  0.00000000000E+00  0.45593999997E+02  0.45594000000E+02  0.51100000000E-03 0. -1.
         11   -1    0    0    0    0 -0.00000000000E+00 -0.00000000000E+00 -0.45593999997E+02  0.45594000000E+02  0.51100000000E-03 0.  1.
    9900012    2    1    2    0    0  0.32276144207E+02 -0.13971068284E+02  0.25429965657E+02  0.47787269739E+02  0.19999994048E+02 0.  0.
        -12    1    1    2    0    0 -0.32276144207E+02  0.13971068284E+02 -0.25429965657E+02  0.43400730261E+02  0.00000000000E+00 0.  1.
         11    1    3    3    0    0  0.95758964323E+01 -0.52740122509E+01  0.68652255780E+01  0.12909078983E+02  0.51100000000E-03 0. -1.
        -11    1    3    3    0    0  0.13419092560E+02 -0.75799873034E+01  0.20179369391E+02  0.25391636456E+02  0.51100000000E-03 0.  1.
        -12    1    3    3    0    0  0.92811552148E+01 -0.11170687293E+01 -0.16146293111E+01  0.94865542996E+01  0.00000000000E+00 0.  1.
</event>
<event>
 7    1  0.2642243E-009  0.4778727E+02  0.7816164E-02  0.1312668E+00
        -11   -1    0    0    0    0  0.00000000000E+00  0.00000000000E+00  0.45593999997E+02  0.45594000000E+02  0.51100000000E-03 0.  1.
         11   -1    0    0    0    0 -0.00000000000E+00 -0.00000000000E+00 -0.45593999997E+02  0.45594000000E+02  0.51100000000E-03 0. -1.
    9900012    2    1    2    0    0  0.30260253668E+02  0.22385118809E+02 -0.21606636127E+02  0.47787271655E+02  0.20000002786E+02 0.  0.
        -12    1    1    2    0    0 -0.30260253668E+02 -0.22385118809E+02  0.21606636127E+02  0.43400728345E+02  0.00000000000E+00 0.  1.
         11    1    3    3    0    0  0.22946733988E+02  0.20923543190E+02 -0.14513461384E+02  0.34278095367E+02  0.51100000000E-03 0. -1.
        -11    1    3    3    0    0  0.47971880871E+01 -0.25133061935E+01 -0.54045261516E+00  0.54425922919E+01  0.51100000000E-03 0.  1.
         12    1    3    3    0    0  0.25163315931E+01  0.39748818118E+01 -0.65527221271E+01  0.80665839969E+01  0.00000000000E+00 0. -1.
</event>
<event>
 7    1  0.2642243E-009  0.4778727E+02  0.7816164E-02  0.1312668E+00
        -11   -1    0    0    0    0  0.00000000000E+00  0.00000000000E+00  0.45593999997E+02  0.45594000000E+02  0.51100000000E-03 0. -1.
         11   -1    0    0    0    0 -0.00000000000E+00 -0.00000000000E+00 -0.45593999997E+02  0.45594000000E+02  0.51100000000E-03 0.  1.
    9900012    2    1    2    0    0  0.39317186775E+02  0.54771143867E+01 -0.17543761726E+02  0.47787268055E+02  0.19999986368E+02 0.  0.
        -12    1    1    2    0    0 -0.39317186775E+02 -0.54771143867E+01  0.17543761726E+02  0.43400731945E+02  0.00000000000E+00 0.  1.
         11    1    3    3    0    0  0.63826550718E+01 -0.50104654272E+01 -0.21524326006E+01  0.83949994594E+01  0.51100000000E-03 0. -1.
        -11    1    3    3    0    0 -0.67812451478E+00 -0.55973948148E+00 -0.35740199750E+00  0.94915625353E+00  0.51100000000E-03 0.  1.
         12    1    3    3    0    0  0.33612656218E+02  0.11047319295E+02 -0.15033927128E+02  0.38443112342E+02  0.00000000000E+00 0. -1.
</event>
<event>
 7    1  0.2642243E-009  0.4778727E+02  0.7816164E-02  0.1312668E+00
        -11   -1    0    0    0    0  0.00000000000E+00  0.00000000000E+00  0.45593999997E+02  0.45594000000E+02  0.51100000000E-03 0.  1.
         11   -1    0    0    0    0 -0.00000000000E+00 -0.00000000000E+00 -0.45593999997E+02  0.45594000000E+02  0.51100000000E-03 0. -1.
    9900012    2    1    2    0    0 -0.13592063783E+01  0.38221763268E+02 -0.20515176851E+02  0.47787272927E+02  0.20000008581E+02 0.  0.
        -12    1    1    2    0    0  0.13592063783E+01 -0.38221763268E+02  0.20515176851E+02  0.43400727073E+02  0.00000000000E+00 0.  1.
         11    1    3    3    0    0 -0.21798346470E+01  0.45992726459E+00  0.11333859137E+01  0.24995551739E+01  0.51100000000E-03 0.  1.
        -11    1    3    3    0    0  0.53883206656E+01  0.22337442558E+02 -0.16871507806E+02  0.28506895929E+02  0.51100000000E-03 0. -1.
        -12    1    3    3    0    0 -0.45676923969E+01  0.15424393445E+02 -0.47770549595E+01  0.16780821823E+02  0.00000000000E+00 0.  1.
</event>
<event>
 7    1  0.2642243E-009  0.4778727E+02  0.7816164E-02  0.1312668E+00
        -11   -1    0    0    0    0  0.00000000000E+00  0.00000000000E+00  0.45593999997E+02  0.45594000000E+02  0.51100000000E-03 0.  1.
         11   -1    0    0    0    0 -0.00000000000E+00 -0.00000000000E+00 -0.45593999997E+02  0.45594000000E+02  0.51100000000E-03 0. -1.
    9900012    2    1    2    0    0 -0.38890603979E+02  0.56557760249E+01 -0.18416189976E+02  0.47787274965E+02  0.20000017878E+02 0.  0.
        -12    1    1    2    0    0  0.38890603979E+02 -0.56557760249E+01  0.18416189976E+02  0.43400725035E+02  0.00000000000E+00 0.  1.
         11    1    3    3    0    0 -0.21776549581E+02  0.81537647036E+01 -0.51827101497E+01  0.23823569742E+02  0.51100000000E-03 0.  1.
        -11    1    3    3    0    0 -0.11915477122E+02 -0.12330160917E+01 -0.14145468344E+02  0.18536267117E+02  0.51100000000E-03 0. -1.
         12    1    3    3    0    0 -0.51985772762E+01 -0.12649725869E+01  0.91198851700E+00  0.54274381063E+01  0.00000000000E+00 0. -1.
</event>
<event>
 7    1  0.2642243E-009  0.4778727E+02  0.7816164E-02  0.1312668E+00
        -11   -1    0    0    0    0  0.00000000000E+00  0.00000000000E+00  0.45593999997E+02  0.45594000000E+02  0.51100000000E-03 0. -1.
         11   -1    0    0    0    0 -0.00000000000E+00 -0.00000000000E+00 -0.45593999997E+02  0.45594000000E+02  0.51100000000E-03 0.  1.
    9900012    2    1    2    0    0  0.21810512318E+02  0.23801393219E+02  0.29007216357E+02  0.47787269966E+02  0.19999995082E+02 0.  0.
        -12    1    1    2    0    0 -0.21810512318E+02 -0.23801393219E+02 -0.29007216357E+02  0.43400730034E+02  0.00000000000E+00 0.  1.
         11    1    3    3    0    0  0.96262546427E+01  0.14440202508E+02  0.66821066960E+01  0.18596633488E+02  0.51100000000E-03 0. -1.
        -11    1    3    3    0    0  0.13479367552E+02  0.10274145797E+02  0.21579296835E+02  0.27439341713E+02  0.51100000000E-03 0.  1.
        -12    1    3    3    0    0 -0.12951098773E+01 -0.91295508606E+00  0.74581282565E+00  0.17512947651E+01  0.00000000000E+00 0.  1.
</event>
<event>
 7    1  0.2642243E-009  0.4778727E+02  0.7816164E-02  0.1312668E+00
        -11   -1    0    0    0    0  0.00000000000E+00  0.00000000000E+00  0.45593999997E+02  0.45594000000E+02  0.51100000000E-03 0.  1.
         11   -1    0    0    0    0 -0.00000000000E+00 -0.00000000000E+00 -0.45593999997E+02  0.45594000000E+02  0.51100000000E-03 0. -1.
    9900012    2    1    2    0    0  0.13899390339E+02  0.15354504220E+02 -0.38140132488E+02  0.47787267773E+02  0.19999985083E+02 0.  0.
        -12    1    1    2    0    0 -0.13899390339E+02 -0.15354504220E+02  0.38140132488E+02  0.43400732227E+02  0.00000000000E+00 0.  1.
         11    1    3    3    0    0  0.97505425980E+01  0.88563636882E+01 -0.33222695368E+02  0.35738714953E+02  0.51100000000E-03 0. -1.
        -11    1    3    3    0    0  0.13001675520E+01 -0.16496170136E+01  0.28372991296E-01  0.21005897368E+01  0.51100000000E-03 0.  1.
         12    1    3    3    0    0  0.28486801892E+01  0.81477575453E+01 -0.49458101116E+01  0.99479630828E+01  0.00000000000E+00 0. -1.
</event>
<event>
 7    1  0.2642243E-009  0.4778727E+02  0.7816164E-02  0.1312668E+00
        -11   -1    0    0    0    0  0.00000000000E+00  0.00000000000E+00  0.45593999997E+02  0.45594000000E+02  0.51100000000E-03 0. -1.
         11   -1    0    0    0    0 -0.00000000000E+00 -0.00000000000E+00 -0.45593999997E+02  0.45594000000E+02  0.51100000000E-03 0.  1.
    9900012    2    1    2    0    0  0.32000162188E+02 -0.18778688110E+02  0.22516085013E+02  0.47787267385E+02  0.19999983314E+02 0.  0.
        -12    1    1    2    0    0 -0.32000162188E+02  0.18778688110E+02 -0.22516085013E+02  0.43400732615E+02  0.00000000000E+00 0.  1.
         11    1    3    3    0    0  0.11121666944E+02  0.21321343400E+01  0.82828462633E+01  0.14030075372E+02  0.51100000000E-03 0. -1.
        -11    1    3    3    0    0  0.15178290277E+02 -0.13431946092E+02  0.56883511426E+01  0.21051247244E+02  0.51100000000E-03 0.  1.
         12    1    3    3    0    0  0.57002049673E+01 -0.74788763576E+01  0.85448876075E+01  0.12705944769E+02  0.00000000000E+00 0. -1.
</event>
<event>
 7    1  0.2642243E-009  0.4778727E+02  0.7816164E-02  0.1312668E+00
        -11   -1    0    0    0    0  0.00000000000E+00  0.00000000000E+00  0.45593999997E+02  0.45594000000E+02  0.51100000000E-03 0.  1.
         11   -1    0    0    0    0 -0.00000000000E+00 -0.00000000000E+00 -0.45593999997E+02  0.45594000000E+02  0.51100000000E-03 0. -1.
    9900012    2    1    2    0    0 -0.19809724148E+02  0.28947047371E+02 -0.25559080415E+02  0.47787270582E+02  0.19999997893E+02 0.  0.
        -12    1    1    2    0    0  0.19809724148E+02 -0.28947047371E+02  0.25559080415E+02  0.43400729418E+02  0.00000000000E+00 0.  1.
         11    1    3    3    0    0 -0.92345345554E+01  0.43056859848E+01 -0.15424018495E+02  0.18485559419E+02  0.51100000000E-03 0. -1.
        -11    1    3    3    0    0 -0.49236582174E+01  0.13547270725E+02 -0.23151531905E+01  0.14599003010E+02  0.51100000000E-03 0.  1.
         12    1    3    3    0    0 -0.56515313752E+01  0.11094090661E+02 -0.78199087299E+01  0.14702708153E+02  0.00000000000E+00 0. -1.
</event>
<event>
 7    1  0.2642243E-009  0.4778733E+02  0.7816164E-02  0.1312667E+00
        -11   -1    0    0    0    0  0.00000000000E+00  0.00000000000E+00  0.45593999997E+02  0.45594000000E+02  0.51100000000E-03 0.  1.
         11   -1    0    0    0    0 -0.00000000000E+00 -0.00000000000E+00 -0.45593999997E+02  0.45594000000E+02  0.51100000000E-03 0. -1.
    9900012    2    1    2    0    0 -0.56216713339E+01 -0.46632649383E+01 -0.42781640153E+02  0.47787332233E+02  0.20000278981E+02 0.  0.
        -12    1    1    2    0    0  0.56216713339E+01  0.46632649383E+01  0.42781640153E+02  0.43400667767E+02  0.00000000000E+00 0.  1.
         11    1    3    3    0    0 -0.70314688672E+00  0.57907999614E+01 -0.23029792408E+02  0.23757085646E+02  0.51100000000E-03 0. -1.
        -11    1    3    3    0    0  0.16710825566E+00 -0.80608138133E+01 -0.11894368810E+02  0.14369434719E+02  0.51100000000E-03 0.  1.
         12    1    3    3    0    0 -0.50856327028E+01 -0.23932510864E+01 -0.78574789344E+01  0.96608118684E+01  0.00000000000E+00 0. -1.
</event>
<event>
 7    1  0.2642243E-009  0.4778727E+02  0.7816164E-02  0.1312668E+00
        -11   -1    0    0    0    0  0.00000000000E+00  0.00000000000E+00  0.45593999997E+02  0.45594000000E+02  0.51100000000E-03 0.  1.
         11   -1    0    0    0    0 -0.00000000000E+00 -0.00000000000E+00 -0.45593999997E+02  0.45594000000E+02  0.51100000000E-03 0. -1.
    9900012    2    1    2    0    0 -0.22706141649E+02  0.36005695105E+02  0.84643009942E+01  0.47787270284E+02  0.19999996535E+02 0.  0.
        -12    1    1    2    0    0  0.22706141649E+02 -0.36005695105E+02 -0.84643009942E+01  0.43400729716E+02  0.00000000000E+00 0.  1.
         11    1    3    3    0    0 -0.12845842231E+02  0.57108576416E+01  0.10912684224E+01  0.14100369664E+02  0.51100000000E-03 0. -1.
        -11    1    3    3    0    0  0.21610299899E+00  0.89595109633E+01 -0.15083897634E-01  0.89621294899E+01  0.51100000000E-03 0.  1.
         12    1    3    3    0    0 -0.10076402417E+02  0.21335326500E+02  0.73881164694E+01  0.24724771131E+02  0.00000000000E+00 0. -1.
</event>
<event>
 7    1  0.2642243E-009  0.4778727E+02  0.7816164E-02  0.1312668E+00
        -11   -1    0    0    0    0  0.00000000000E+00  0.00000000000E+00  0.45593999997E+02  0.45594000000E+02  0.51100000000E-03 0.  1.
         11   -1    0    0    0    0 -0.00000000000E+00 -0.00000000000E+00 -0.45593999997E+02  0.45594000000E+02  0.51100000000E-03 0. -1.
    9900012    2    1    2    0    0 -0.30845795397E+02 -0.50998944038E+01 -0.30102346543E+02  0.47787270928E+02  0.19999999471E+02 0.  0.
        -12    1    1    2    0    0  0.30845795397E+02  0.50998944038E+01  0.30102346543E+02  0.43400729072E+02  0.00000000000E+00 0.  1.
         11    1    3    3    0    0 -0.24375654676E+02 -0.86318764540E+01 -0.23299418393E+02  0.34807251108E+02  0.51100000000E-03 0. -1.
        -11    1    3    3    0    0 -0.11374980297E+01  0.24153167077E+01  0.14900573479E+01  0.30574380987E+01  0.51100000000E-03 0.  1.
         12    1    3    3    0    0 -0.53326426910E+01  0.11166653424E+01 -0.82929854975E+01  0.99225817214E+01  0.00000000000E+00 0. -1.
</event>
<event>
 7    1  0.2642243E-009  0.4778727E+02  0.7816164E-02  0.1312668E+00
        -11   -1    0    0    0    0  0.00000000000E+00  0.00000000000E+00  0.45593999997E+02  0.45594000000E+02  0.51100000000E-03 0. -1.
         11   -1    0    0    0    0 -0.00000000000E+00 -0.00000000000E+00 -0.45593999997E+02  0.45594000000E+02  0.51100000000E-03 0.  1.
    9900012    2    1    2    0    0  0.26503222898E+02  0.35929078718E+01  0.34180310922E+02  0.47787268834E+02  0.19999989922E+02 0.  0.
        -12    1    1    2    0    0 -0.26503222898E+02 -0.35929078718E+01 -0.34180310922E+02  0.43400731166E+02  0.00000000000E+00 0.  1.
         11    1    3    3    0    0  0.11768904075E+02 -0.43981196524E+00  0.13772432257E+02  0.18121270050E+02  0.51100000000E-03 0. -1.
        -11    1    3    3    0    0  0.89575864454E+01 -0.23777158891E+01  0.18698209064E+02  0.20868993992E+02  0.51100000000E-03 0.  1.
        -12    1    3    3    0    0  0.57767323785E+01  0.64104357262E+01  0.17096696016E+01  0.87970047925E+01  0.00000000000E+00 0.  1.
</event>
<event>
 7    1  0.2642243E-009  0.4778727E+02  0.7816164E-02  0.1312668E+00
        -11   -1    0    0    0    0  0.00000000000E+00  0.00000000000E+00  0.45593999997E+02  0.45594000000E+02  0.51100000000E-03 0. -1.
         11   -1    0    0    0    0 -0.00000000000E+00 -0.00000000000E+00 -0.45593999997E+02  0.45594000000E+02  0.51100000000E-03 0.  1.
    9900012    2    1    2    0    0 -0.17488531202E+02 -0.39121648735E+02  0.68753798149E+01  0.47787274535E+02  0.20000015913E+02 0.  0.
        -12    1    1    2    0    0  0.17488531202E+02  0.39121648735E+02 -0.68753798149E+01  0.43400725465E+02  0.00000000000E+00 0.  1.
         11    1    3    3    0    0  0.25028633850E+01 -0.13509934275E+02 -0.18312514421E+01  0.13861317807E+02  0.51100000000E-03 0. -1.
        -11    1    3    3    0    0 -0.31661177795E+01 -0.25472567471E+01 -0.50242677896E-01  0.40639073953E+01  0.51100000000E-03 0.  1.
         12    1    3    3    0    0 -0.16825276807E+02 -0.23064457713E+02  0.87568739349E+01  0.29862049333E+02  0.00000000000E+00 0. -1.
</event>
<event>
 7    1  0.2642243E-009  0.4778729E+02  0.7816164E-02  0.1312668E+00
        -11   -1    0    0    0    0  0.00000000000E+00  0.00000000000E+00  0.45593999997E+02  0.45594000000E+02  0.51100000000E-03 0. -1.
         11   -1    0    0    0    0 -0.00000000000E+00 -0.00000000000E+00 -0.45593999997E+02  0.45594000000E+02  0.51100000000E-03 0.  1.
    9900012    2    1    2    0    0  0.30379365942E+01  0.42714508596E+02 -0.70613902488E+01  0.47787291071E+02  0.20000091307E+02 0.  0.
        -12    1    1    2    0    0 -0.30379365942E+01 -0.42714508596E+02  0.70613902488E+01  0.43400708929E+02  0.00000000000E+00 0.  1.
         11    1    3    3    0    0  0.70043779510E+01  0.16380817529E+02 -0.82588550130E+01  0.19636730374E+02  0.51100000000E-03 0. -1.
        -11    1    3    3    0    0 -0.77909514926E+00  0.78322755585E+01  0.45325016013E+01  0.90826813608E+01  0.51100000000E-03 0.  1.
         12    1    3    3    0    0 -0.31873462076E+01  0.18501415508E+02 -0.33350368372E+01  0.19067879336E+02  0.00000000000E+00 0. -1.
</event>
<event>
 7    1  0.2642243E-009  0.4778727E+02  0.7816164E-02  0.1312668E+00
        -11   -1    0    0    0    0  0.00000000000E+00  0.00000000000E+00  0.45593999997E+02  0.45594000000E+02  0.51100000000E-03 0. -1.
         11   -1    0    0    0    0 -0.00000000000E+00 -0.00000000000E+00 -0.45593999997E+02  0.45594000000E+02  0.51100000000E-03 0.  1.
    9900012    2    1    2    0    0  0.18871819065E+02  0.15177660576E+02  0.36015502558E+02  0.47787270053E+02  0.19999995481E+02 0.  0.
        -12    1    1    2    0    0 -0.18871819065E+02 -0.15177660576E+02 -0.36015502558E+02  0.43400729947E+02  0.00000000000E+00 0.  1.
         11    1    3    3    0    0  0.89459262798E+01  0.94083424249E+01  0.26474304275E+02  0.29486188144E+02  0.51100000000E-03 0. -1.
        -11    1    3    3    0    0  0.58853481748E+00 -0.15960758349E+01 -0.13524637188E+01  0.21732440438E+01  0.51100000000E-03 0.  1.
         12    1    3    3    0    0  0.93373579681E+01  0.73653939858E+01  0.10893662002E+02  0.16127837865E+02  0.00000000000E+00 0. -1.
</event>
<event>
 7    1  0.2642243E-009  0.4778728E+02  0.7816164E-02  0.1312668E+00
        -11   -1    0    0    0    0  0.00000000000E+00  0.00000000000E+00  0.45593999997E+02  0.45594000000E+02  0.51100000000E-03 0.  1.
         11   -1    0    0    0    0 -0.00000000000E+00 -0.00000000000E+00 -0.45593999997E+02  0.45594000000E+02  0.51100000000E-03 0. -1.
    9900012    2    1    2    0    0 -0.95772748302E+01 -0.25001228946E+02 -0.34158999717E+02  0.47787275310E+02  0.20000019446E+02 0.  0.
        -12    1    1    2    0    0  0.95772748302E+01  0.25001228946E+02  0.34158999717E+02  0.43400724690E+02  0.00000000000E+00 0.  1.
         11    1    3    3    0    0 -0.73208950295E+01 -0.15106671664E+02 -0.20814125506E+02  0.26740135632E+02  0.51100000000E-03 0. -1.
        -11    1    3    3    0    0  0.31924705806E+01 -0.43560861047E+00 -0.85263478260E+01  0.91148357518E+01  0.51100000000E-03 0.  1.
        -12    1    3    3    0    0 -0.54488503814E+01 -0.94589486711E+01 -0.48185263854E+01  0.11932303925E+02  0.00000000000E+00 0.  1.
</event>
<event>
 7    1  0.2642243E-009  0.4778727E+02  0.7816164E-02  0.1312668E+00
        -11   -1    0    0    0    0  0.00000000000E+00  0.00000000000E+00  0.45593999997E+02  0.45594000000E+02  0.51100000000E-03 0.  1.
         11   -1    0    0    0    0 -0.00000000000E+00 -0.00000000000E+00 -0.45593999997E+02  0.45594000000E+02  0.51100000000E-03 0. -1.
    9900012    2    1    2    0    0  0.11864394682E+02 -0.37540647854E+02 -0.18263609918E+02  0.47787267867E+02  0.19999985511E+02 0.  0.
        -12    1    1    2    0    0 -0.11864394682E+02  0.37540647854E+02  0.18263609918E+02  0.43400732133E+02  0.00000000000E+00 0.  1.
         11    1    3    3    0    0  0.43287869200E+01 -0.70595637119E+01 -0.42010277625E+01  0.92857132480E+01  0.51100000000E-03 0. -1.
        -11    1    3    3    0    0  0.12786855283E+02 -0.16767129680E+02 -0.94682850135E+01  0.23114686395E+02  0.51100000000E-03 0.  1.
        -12    1    3    3    0    0 -0.52512475219E+01 -0.13713954462E+02 -0.45942971420E+01  0.15386868224E+02  0.00000000000E+00 0.  1.
</event>
<event>
 7    1  0.2642243E-009  0.4778727E+02  0.7816164E-02  0.1312668E+00
        -11   -1    0    0    0    0  0.00000000000E+00  0.00000000000E+00  0.45593999997E+02  0.45594000000E+02  0.51100000000E-03 0. -1.
         11   -1    0    0    0    0 -0.00000000000E+00 -0.00000000000E+00 -0.45593999997E+02  0.45594000000E+02  0.51100000000E-03 0.  1.
    9900012    2    1    2    0    0 -0.44852995238E+01  0.40820976612E+02 -0.14041129906E+02  0.47787269909E+02  0.19999994825E+02 0.  0.
        -12    1    1    2    0    0  0.44852995238E+01 -0.40820976612E+02  0.14041129906E+02  0.43400730091E+02  0.00000000000E+00 0.  1.
         11    1    3    3    0    0 -0.11080379293E+02  0.21116188271E+02 -0.50847653528E+01  0.24382843380E+02  0.51100000000E-03 0. -1.
        -11    1    3    3    0    0  0.62918431552E+01  0.10524194895E+02 -0.65839119209E+01  0.13917394330E+02  0.51100000000E-03 0.  1.
        -12    1    3    3    0    0  0.30323661392E+00  0.91805934457E+01 -0.23724526325E+01  0.94870321994E+01  0.00000000000E+00 0.  1.
</event>
<event>
 7    1  0.2642243E-009  0.4778726E+02  0.7816164E-02  0.1312668E+00
        -11   -1    0    0    0    0  0.00000000000E+00  0.00000000000E+00  0.45593999997E+02  0.45594000000E+02  0.51100000000E-03 0.  1.
         11   -1    0    0    0    0 -0.00000000000E+00 -0.00000000000E+00 -0.45593999997E+02  0.45594000000E+02  0.51100000000E-03 0. -1.
    9900012    2    1    2    0    0  0.12292838757E+02 -0.15757877337E+02 -0.38525311907E+02  0.47787259910E+02  0.19999949234E+02 0.  0.
        -12    1    1    2    0    0 -0.12292838757E+02  0.15757877337E+02  0.38525311907E+02  0.43400740090E+02  0.00000000000E+00 0.  1.
         11    1    3    3    0    0  0.11727561109E+02 -0.14957307494E+02 -0.26203895621E+02  0.32371297209E+02  0.51100000000E-03 0. -1.
        -11    1    3    3    0    0  0.12687082057E+01  0.25350292397E+01 -0.11587075290E+02  0.11928801608E+02  0.51100000000E-03 0.  1.
         12    1    3    3    0    0 -0.70343055780E+00 -0.33355990828E+01 -0.73434099524E+00  0.34871610929E+01  0.00000000000E+00 0. -1.
</event>
<event>
 7    1  0.2642243E-009  0.4778728E+02  0.7816164E-02  0.1312668E+00
        -11   -1    0    0    0    0  0.00000000000E+00  0.00000000000E+00  0.45593999997E+02  0.45594000000E+02  0.51100000000E-03 0.  1.
         11   -1    0    0    0    0 -0.00000000000E+00 -0.00000000000E+00 -0.45593999997E+02  0.45594000000E+02  0.51100000000E-03 0. -1.
    9900012    2    1    2    0    0 -0.21363080965E+02 -0.36473859852E+02 -0.98437362142E+01  0.47787276233E+02  0.20000023657E+02 0.  0.
        -12    1    1    2    0    0  0.21363080965E+02  0.36473859852E+02  0.98437362142E+01  0.43400723767E+02  0.00000000000E+00 0.  1.
         11    1    3    3    0    0 -0.51351637938E+01 -0.22766085891E+02 -0.60020057697E+01  0.24097482182E+02  0.51100000000E-03 0. -1.
        -11    1    3    3    0    0 -0.77574816971E+01 -0.29717050855E+01  0.24151798518E+01  0.86511645097E+01  0.51100000000E-03 0.  1.
         12    1    3    3    0    0 -0.84704354746E+01 -0.10736068875E+02 -0.62569102964E+01  0.15038629541E+02  0.00000000000E+00 0. -1.
</event>
<event>
 7    1  0.2642243E-009  0.4778727E+02  0.7816164E-02  0.1312668E+00
        -11   -1    0    0    0    0  0.00000000000E+00  0.00000000000E+00  0.45593999997E+02  0.45594000000E+02  0.51100000000E-03 0.  1.
         11   -1    0    0    0    0 -0.00000000000E+00 -0.00000000000E+00 -0.45593999997E+02  0.45594000000E+02  0.51100000000E-03 0. -1.
    9900012    2    1    2    0    0 -0.35387686423E+02  0.57224634051E+01 -0.24466061829E+02  0.47787272826E+02  0.20000008124E+02 0.  0.
        -12    1    1    2    0    0  0.35387686423E+02 -0.57224634051E+01  0.24466061829E+02  0.43400727174E+02  0.00000000000E+00 0.  1.
         11    1    3    3    0    0 -0.11866023305E+02  0.11169596937E+02 -0.90331800543E+01  0.18632250185E+02  0.51100000000E-03 0. -1.
        -11    1    3    3    0    0 -0.11505163791E+02 -0.27284561960E+01 -0.43986266416E+01  0.12615909942E+02  0.51100000000E-03 0.  1.
         12    1    3    3    0    0 -0.12016499327E+02 -0.27186773360E+01 -0.11034255133E+02  0.16539112700E+02  0.00000000000E+00 0. -1.
</event>
<event>
 7    1  0.2642243E-009  0.4778727E+02  0.7816164E-02  0.1312668E+00
        -11   -1    0    0    0    0  0.00000000000E+00  0.00000000000E+00  0.45593999997E+02  0.45594000000E+02  0.51100000000E-03 0.  1.
         11   -1    0    0    0    0 -0.00000000000E+00 -0.00000000000E+00 -0.45593999997E+02  0.45594000000E+02  0.51100000000E-03 0. -1.
    9900012    2    1    2    0    0 -0.31497588596E+02 -0.63587055274E+01 -0.29173483528E+02  0.47787270000E+02  0.19999995238E+02 0.  0.
        -12    1    1    2    0    0  0.31497588596E+02  0.63587055274E+01  0.29173483528E+02  0.43400730000E+02  0.00000000000E+00 0.  1.
         11    1    3    3    0    0  0.19783540598E+01 -0.19739228336E+01 -0.44647288175E+01  0.52672630287E+01  0.51100000000E-03 0. -1.
        -11    1    3    3    0    0 -0.56139862971E+01  0.11534937412E+01 -0.69929199808E+01  0.90414777594E+01  0.51100000000E-03 0.  1.
         12    1    3    3    0    0 -0.27861956359E+02 -0.55382764349E+01 -0.17715834730E+02  0.33478529212E+02  0.00000000000E+00 0. -1.
</event>
<event>
 7    1  0.2642243E-009  0.4778728E+02  0.7816164E-02  0.1312668E+00
        -11   -1    0    0    0    0  0.00000000000E+00  0.00000000000E+00  0.45593999997E+02  0.45594000000E+02  0.51100000000E-03 0. -1.
         11   -1    0    0    0    0 -0.00000000000E+00 -0.00000000000E+00 -0.45593999997E+02  0.45594000000E+02  0.51100000000E-03 0.  1.
    9900012    2    1    2    0    0 -0.43786266248E+01 -0.17926136359E+02  0.39282361446E+02  0.47787278155E+02  0.20000032420E+02 0.  0.
        -12    1    1    2    0    0  0.43786266248E+01  0.17926136359E+02 -0.39282361446E+02  0.43400721845E+02  0.00000000000E+00 0.  1.
         11    1    3    3    0    0  0.26104929376E+01 -0.90444676647E+01  0.29543698732E+02  0.31007212125E+02  0.51100000000E-03 0. -1.
        -11    1    3    3    0    0 -0.46176109550E+01 -0.98745878639E+01  0.66818313773E+01  0.12785800219E+02  0.51100000000E-03 0.  1.
        -12    1    3    3    0    0 -0.23715086074E+01  0.99291917001E+00  0.30568313365E+01  0.39942658115E+01  0.00000000000E+00 0.  1.
</event>
<event>
 7    1  0.2642243E-009  0.4778727E+02  0.7816164E-02  0.1312668E+00
        -11   -1    0    0    0    0  0.00000000000E+00  0.00000000000E+00  0.45593999997E+02  0.45594000000E+02  0.51100000000E-03 0. -1.
         11   -1    0    0    0    0 -0.00000000000E+00 -0.00000000000E+00 -0.45593999997E+02  0.45594000000E+02  0.51100000000E-03 0.  1.
    9900012    2    1    2    0    0  0.32062485671E+02 -0.29132638797E+02  0.26286159616E+01  0.47787271290E+02  0.20000001121E+02 0.  0.
        -12    1    1    2    0    0 -0.32062485671E+02  0.29132638797E+02 -0.26286159616E+01  0.43400728710E+02  0.00000000000E+00 0.  1.
         11    1    3    3    0    0  0.91333239557E+01 -0.87301972436E+01 -0.14739729060E+01  0.12720320231E+02  0.51100000000E-03 0.  1.
        -11    1    3    3    0    0  0.22856625397E+02 -0.11687938034E+02  0.61157465991E+00  0.25678926065E+02  0.51100000000E-03 0. -1.
        -12    1    3    3    0    0  0.72536318398E-01 -0.87145035190E+01  0.34910142076E+01  0.93880249945E+01  0.00000000000E+00 0.  1.
</event>
<event>
 7    1  0.2642243E-009  0.4778727E+02  0.7816164E-02  0.1312668E+00
        -11   -1    0    0    0    0  0.00000000000E+00  0.00000000000E+00  0.45593999997E+02  0.45594000000E+02  0.51100000000E-03 0.  1.
         11   -1    0    0    0    0 -0.00000000000E+00 -0.00000000000E+00 -0.45593999997E+02  0.45594000000E+02  0.51100000000E-03 0. -1.
    9900012    2    1    2    0    0 -0.64880764690E+01  0.29023793653E+02 -0.31609296478E+02  0.47787270074E+02  0.19999995575E+02 0.  0.
        -12    1    1    2    0    0  0.64880764690E+01 -0.29023793653E+02  0.31609296478E+02  0.43400729926E+02  0.00000000000E+00 0.  1.
         11    1    3    3    0    0 -0.47840542945E+01  0.74268214657E+01 -0.93567789011E+01  0.12868339607E+02  0.51100000000E-03 0. -1.
        -11    1    3    3    0    0 -0.49299697675E+01  0.55016006393E+01 -0.15190846284E+00  0.73888624256E+01  0.51100000000E-03 0.  1.
        -12    1    3    3    0    0  0.32259475930E+01  0.16095371548E+02 -0.22100609114E+02  0.27530068041E+02  0.00000000000E+00 0.  1.
</event>
<event>
 7    1  0.2642243E-009  0.4778727E+02  0.7816164E-02  0.1312668E+00
        -11   -1    0    0    0    0  0.00000000000E+00  0.00000000000E+00  0.45593999997E+02  0.45594000000E+02  0.51100000000E-03 0. -1.
         11   -1    0    0    0    0 -0.00000000000E+00 -0.00000000000E+00 -0.45593999997E+02  0.45594000000E+02  0.51100000000E-03 0.  1.
    9900012    2    1    2    0    0 -0.34806623324E+02  0.37873376460E+01 -0.25647194439E+02  0.47787268022E+02  0.19999986219E+02 0.  0.
        -12    1    1    2    0    0  0.34806623324E+02 -0.37873376460E+01  0.25647194439E+02  0.43400731978E+02  0.00000000000E+00 0.  1.
         11    1    3    3    0    0 -0.36851205718E+01  0.67381571456E+01 -0.38402278127E+01  0.85866306117E+01  0.51100000000E-03 0.  1.
        -11    1    3    3    0    0 -0.31022862183E+02 -0.14353252396E+01 -0.20744678093E+02  0.37347286461E+02  0.51100000000E-03 0. -1.
         12    1    3    3    0    0 -0.98640569527E-01 -0.15154942600E+01 -0.10622885328E+01  0.18533509492E+01  0.00000000000E+00 0. -1.
</event>
<event>
 7    1  0.2642243E-009  0.4778728E+02  0.7816164E-02  0.1312668E+00
        -11   -1    0    0    0    0  0.00000000000E+00  0.00000000000E+00  0.45593999997E+02  0.45594000000E+02  0.51100000000E-03 0.  1.
         11   -1    0    0    0    0 -0.00000000000E+00 -0.00000000000E+00 -0.45593999997E+02  0.45594000000E+02  0.51100000000E-03 0. -1.
    9900012    2    1    2    0    0  0.61248215470E+00 -0.32047363014E+02 -0.29261137122E+02  0.47787277009E+02  0.20000027193E+02 0.  0.
        -12    1    1    2    0    0 -0.61248215470E+00  0.32047363014E+02  0.29261137122E+02  0.43400722991E+02  0.00000000000E+00 0.  1.
         11    1    3    3    0    0  0.39195616253E+01 -0.20391329447E+02 -0.19925596296E+02  0.28778441027E+02  0.51100000000E-03 0. -1.
        -11    1    3    3    0    0 -0.44126660922E+00 -0.12999618913E+02 -0.90186977862E+01  0.15827877878E+02  0.51100000000E-03 0.  1.
         12    1    3    3    0    0 -0.28658128614E+01  0.13435853470E+01 -0.31684304000E+00  0.31809581031E+01  0.00000000000E+00 0. -1.
</event>
<event>
 7    1  0.2642243E-009  0.4778727E+02  0.7816164E-02  0.1312668E+00
        -11   -1    0    0    0    0  0.00000000000E+00  0.00000000000E+00  0.45593999997E+02  0.45594000000E+02  0.51100000000E-03 0. -1.
         11   -1    0    0    0    0 -0.00000000000E+00 -0.00000000000E+00 -0.45593999997E+02  0.45594000000E+02  0.51100000000E-03 0.  1.
    9900012    2    1    2    0    0 -0.38335478586E+02  0.15647184920E+02  0.13006916054E+02  0.47787272131E+02  0.20000004953E+02 0.  0.
        -12    1    1    2    0    0  0.38335478586E+02 -0.15647184920E+02 -0.13006916054E+02  0.43400727869E+02  0.00000000000E+00 0.  1.
         11    1    3    3    0    0 -0.16645211670E+02  0.11416338714E+02  0.15086796273E+02  0.25199350849E+02  0.51100000000E-03 0. -1.
        -11    1    3    3    0    0 -0.67785629755E+01 -0.80671927590E-01  0.71204076935E+00  0.68163352537E+01  0.51100000000E-03 0.  1.
         12    1    3    3    0    0 -0.14911703941E+02  0.43115181337E+01 -0.27919209887E+01  0.15771586028E+02  0.00000000000E+00 0. -1.
</event>
<event>
 7    1  0.2642243E-009  0.4778727E+02  0.7816164E-02  0.1312668E+00
        -11   -1    0    0    0    0  0.00000000000E+00  0.00000000000E+00  0.45593999997E+02  0.45594000000E+02  0.51100000000E-03 0.  1.
         11   -1    0    0    0    0 -0.00000000000E+00 -0.00000000000E+00 -0.45593999997E+02  0.45594000000E+02  0.51100000000E-03 0. -1.
    9900012    2    1    2    0    0  0.31457423887E+02  0.29300249893E+02 -0.59623235887E+01  0.47787268855E+02  0.19999990017E+02 0.  0.
        -12    1    1    2    0    0 -0.31457423887E+02 -0.29300249893E+02  0.59623235887E+01  0.43400731145E+02  0.00000000000E+00 0.  1.
         11    1    3    3    0    0  0.30390204935E+01  0.54909507854E+01 -0.84301144347E+00  0.63322077227E+01  0.51100000000E-03 0. -1.
        -11    1    3    3    0    0  0.18158826779E+02  0.12164701155E+02 -0.11473271574E+02  0.24685196070E+02  0.51100000000E-03 0.  1.
        -12    1    3    3    0    0  0.10259576614E+02  0.11644597953E+02  0.63539594284E+01  0.16769865062E+02  0.00000000000E+00 0.  1.
</event>
<event>
 7    1  0.2642243E-009  0.4778728E+02  0.7816164E-02  0.1312668E+00
        -11   -1    0    0    0    0  0.00000000000E+00  0.00000000000E+00  0.45593999997E+02  0.45594000000E+02  0.51100000000E-03 0.  1.
         11   -1    0    0    0    0 -0.00000000000E+00 -0.00000000000E+00 -0.45593999997E+02  0.45594000000E+02  0.51100000000E-03 0. -1.
    9900012    2    1    2    0    0  0.24017183970E+02  0.47579797071E+01 -0.35835169166E+02  0.47787275975E+02  0.20000022480E+02 0.  0.
        -12    1    1    2    0    0 -0.24017183970E+02 -0.47579797071E+01  0.35835169166E+02  0.43400724025E+02  0.00000000000E+00 0.  1.
         11    1    3    3    0    0  0.22811132094E+02  0.10719463934E+02 -0.30566498260E+02  0.39617741867E+02  0.51100000000E-03 0.  1.
        -11    1    3    3    0    0  0.34906564200E+00 -0.36905386907E+01 -0.24199864632E+01  0.44269919125E+01  0.51100000000E-03 0. -1.
        -12    1    3    3    0    0  0.85698623396E+00 -0.22709455366E+01 -0.28486844422E+01  0.37425421957E+01  0.00000000000E+00 0.  1.
</event>
<event>
 7    1  0.2642243E-009  0.4778727E+02  0.7816164E-02  0.1312668E+00
        -11   -1    0    0    0    0  0.00000000000E+00  0.00000000000E+00  0.45593999997E+02  0.45594000000E+02  0.51100000000E-03 0. -1.
         11   -1    0    0    0    0 -0.00000000000E+00 -0.00000000000E+00 -0.45593999997E+02  0.45594000000E+02  0.51100000000E-03 0.  1.
    9900012    2    1    2    0    0 -0.37583901212E+02  0.17688980751E+01  0.21632026062E+02  0.47787272100E+02  0.20000004814E+02 0.  0.
        -12    1    1    2    0    0  0.37583901212E+02 -0.17688980751E+01 -0.21632026062E+02  0.43400727900E+02  0.00000000000E+00 0.  1.
         11    1    3    3    0    0 -0.11882906138E+02  0.11601413837E+01  0.63469189736E+01  0.13521566738E+02  0.51100000000E-03 0. -1.
        -11    1    3    3    0    0 -0.27742382534E+02 -0.14333853078E+01  0.13775169243E+02  0.31007251894E+02  0.51100000000E-03 0.  1.
        -12    1    3    3    0    0  0.20413874607E+01  0.20421419992E+01  0.15099378454E+01  0.32584534685E+01  0.00000000000E+00 0.  1.
</event>
<event>
 7    1  0.2642243E-009  0.4778727E+02  0.7816164E-02  0.1312668E+00
        -11   -1    0    0    0    0  0.00000000000E+00  0.00000000000E+00  0.45593999997E+02  0.45594000000E+02  0.51100000000E-03 0. -1.
         11   -1    0    0    0    0 -0.00000000000E+00 -0.00000000000E+00 -0.45593999997E+02  0.45594000000E+02  0.51100000000E-03 0.  1.
    9900012    2    1    2    0    0 -0.25250557513E+02 -0.37804422360E+00  0.35297168261E+02  0.47787266603E+02  0.19999979749E+02 0.  0.
        -12    1    1    2    0    0  0.25250557513E+02  0.37804422360E+00 -0.35297168261E+02  0.43400733397E+02  0.00000000000E+00 0.  1.
         11    1    3    3    0    0 -0.11441914168E+02 -0.16672958368E+01  0.30688129086E+02  0.32794184580E+02  0.51100000000E-03 0. -1.
        -11    1    3    3    0    0 -0.86221201699E+01 -0.69187846744E+00  0.21037332527E+01  0.89019855031E+01  0.51100000000E-03 0.  1.
         12    1    3    3    0    0 -0.51865231750E+01  0.19811300807E+01  0.25053059228E+01  0.60910965194E+01  0.00000000000E+00 0. -1.
</event>
<event>
 7    1  0.2642243E-009  0.4778725E+02  0.7816164E-02  0.1312668E+00
        -11   -1    0    0    0    0  0.00000000000E+00  0.00000000000E+00  0.45593999997E+02  0.45594000000E+02  0.51100000000E-03 0.  1.
         11   -1    0    0    0    0 -0.00000000000E+00 -0.00000000000E+00 -0.45593999997E+02  0.45594000000E+02  0.51100000000E-03 0. -1.
    9900012    2    1    2    0    0 -0.25849766731E+02 -0.92912873757E+01 -0.33601881638E+02  0.47787252187E+02  0.19999914020E+02 0.  0.
        -12    1    1    2    0    0  0.25849766731E+02  0.92912873757E+01  0.33601881638E+02  0.43400747813E+02  0.00000000000E+00 0.  1.
         11    1    3    3    0    0 -0.59405734794E+00 -0.79971948094E+01 -0.50298697286E+01  0.94661300805E+01  0.51100000000E-03 0. -1.
        -11    1    3    3    0    0 -0.14163859231E+02 -0.89270821547E+00 -0.13365284340E+02  0.19494682917E+02  0.51100000000E-03 0.  1.
         12    1    3    3    0    0 -0.11091850152E+02 -0.40138435074E+00 -0.15206727569E+02  0.18826439189E+02  0.00000000000E+00 0. -1.
</event>
<event>
 7    1  0.2642243E-009  0.4778727E+02  0.7816164E-02  0.1312668E+00
        -11   -1    0    0    0    0  0.00000000000E+00  0.00000000000E+00  0.45593999997E+02  0.45594000000E+02  0.51100000000E-03 0.  1.
         11   -1    0    0    0    0 -0.00000000000E+00 -0.00000000000E+00 -0.45593999997E+02  0.45594000000E+02  0.51100000000E-03 0. -1.
    9900012    2    1    2    0    0 -0.33897068931E+02 -0.22289819595E+02 -0.15419985076E+02  0.47787270980E+02  0.19999999708E+02 0.  0.
        -12    1    1    2    0    0  0.33897068931E+02  0.22289819595E+02  0.15419985076E+02  0.43400729020E+02  0.00000000000E+00 0.  1.
         11    1    3    3    0    0 -0.21057523144E+02 -0.57334655938E+01 -0.11134898828E+02  0.24500568990E+02  0.51100000000E-03 0. -1.
        -11    1    3    3    0    0 -0.13013069632E+01 -0.83225293844E+01 -0.34009429126E+01  0.90842890818E+01  0.51100000000E-03 0.  1.
        -12    1    3    3    0    0 -0.11538238824E+02 -0.82338246166E+01 -0.88414333459E+00  0.14202412908E+02  0.00000000000E+00 0.  1.
</event>
<event>
 7    1  0.2642243E-009  0.4778727E+02  0.7816164E-02  0.1312668E+00
        -11   -1    0    0    0    0  0.00000000000E+00  0.00000000000E+00  0.45593999997E+02  0.45594000000E+02  0.51100000000E-03 0. -1.
         11   -1    0    0    0    0 -0.00000000000E+00 -0.00000000000E+00 -0.45593999997E+02  0.45594000000E+02  0.51100000000E-03 0.  1.
    9900012    2    1    2    0    0  0.13288921747E+02  0.64827481922E+01  0.40804430663E+02  0.47787273888E+02  0.20000012965E+02 0.  0.
        -12    1    1    2    0    0 -0.13288921747E+02 -0.64827481922E+01 -0.40804430663E+02  0.43400726112E+02  0.00000000000E+00 0.  1.
         11    1    3    3    0    0  0.64347910786E+01  0.11147747962E+02  0.23420954849E+02  0.26724893772E+02  0.51100000000E-03 0. -1.
        -11    1    3    3    0    0 -0.34813654579E+00  0.62707282062E+00 -0.62932212396E+00  0.95418340674E+00  0.51100000000E-03 0.  1.
         12    1    3    3    0    0  0.72022672145E+01 -0.52920725905E+01  0.18012797938E+02  0.20108196709E+02  0.00000000000E+00 0. -1.
</event>
<event>
 7    1  0.2642243E-009  0.4778727E+02  0.7816164E-02  0.1312668E+00
        -11   -1    0    0    0    0  0.00000000000E+00  0.00000000000E+00  0.45593999997E+02  0.45594000000E+02  0.51100000000E-03 0.  1.
         11   -1    0    0    0    0 -0.00000000000E+00 -0.00000000000E+00 -0.45593999997E+02  0.45594000000E+02  0.51100000000E-03 0. -1.
    9900012    2    1    2    0    0 -0.25459476724E+02 -0.25154211323E+02 -0.24550027242E+02  0.47787272588E+02  0.20000007036E+02 0.  0.
        -12    1    1    2    0    0  0.25459476724E+02  0.25154211323E+02  0.24550027242E+02  0.43400727412E+02  0.00000000000E+00 0.  1.
         11    1    3    3    0    0 -0.10903544968E+02 -0.93343416684E+01 -0.38153606693E+01  0.14851740792E+02  0.51100000000E-03 0.  1.
        -11    1    3    3    0    0 -0.11711367654E+02 -0.91055770234E+01 -0.20914337964E+02  0.25641318180E+02  0.51100000000E-03 0. -1.
        -12    1    3    3    0    0 -0.28445641025E+01 -0.67142926311E+01  0.17967139137E+00  0.72942136161E+01  0.00000000000E+00 0.  1.
</event>
<event>
 7    1  0.2642243E-009  0.4778727E+02  0.7816164E-02  0.1312668E+00
        -11   -1    0    0    0    0  0.00000000000E+00  0.00000000000E+00  0.45593999997E+02  0.45594000000E+02  0.51100000000E-03 0.  1.
         11   -1    0    0    0    0 -0.00000000000E+00 -0.00000000000E+00 -0.45593999997E+02  0.45594000000E+02  0.51100000000E-03 0. -1.
    9900012    2    1    2    0    0 -0.84691301529E+01  0.32967112285E+02 -0.26927069674E+02  0.47787265684E+02  0.19999975558E+02 0.  0.
        -12    1    1    2    0    0  0.84691301529E+01 -0.32967112285E+02  0.26927069674E+02  0.43400734316E+02  0.00000000000E+00 0.  1.
         11    1    3    3    0    0 -0.11196054822E+02  0.12631498058E+02 -0.16305061256E+02  0.23468306492E+02  0.51100000000E-03 0. -1.
        -11    1    3    3    0    0  0.16154633279E+01  0.19369599092E+02 -0.74389235805E+01  0.20811743681E+02  0.51100000000E-03 0.  1.
        -12    1    3    3    0    0  0.11114613411E+01  0.96601513434E+00 -0.31830848376E+01  0.35072155103E+01  0.00000000000E+00 0.  1.
</event>
<event>
 7    1  0.2642243E-009  0.4778727E+02  0.7816164E-02  0.1312668E+00
        -11   -1    0    0    0    0  0.00000000000E+00  0.00000000000E+00  0.45593999997E+02  0.45594000000E+02  0.51100000000E-03 0. -1.
         11   -1    0    0    0    0 -0.00000000000E+00 -0.00000000000E+00 -0.45593999997E+02  0.45594000000E+02  0.51100000000E-03 0.  1.
    9900012    2    1    2    0    0 -0.84520154187E+01 -0.18436344433E+02  0.38370401270E+02  0.47787273574E+02  0.20000011533E+02 0.  0.
        -12    1    1    2    0    0  0.84520154187E+01  0.18436344433E+02 -0.38370401270E+02  0.43400726426E+02  0.00000000000E+00 0.  1.
         11    1    3    3    0    0  0.25925686241E-01 -0.12376811376E+02  0.18190253671E+02  0.22001624050E+02  0.51100000000E-03 0. -1.
        -11    1    3    3    0    0 -0.10898061930E+02 -0.64628064783E+01  0.12808688391E+02  0.18016606783E+02  0.51100000000E-03 0.  1.
         12    1    3    3    0    0  0.24201208247E+01  0.40327342153E+00  0.73714592075E+01  0.77690427407E+01  0.00000000000E+00 0. -1.
</event>
<event>
 7    1  0.2642243E-009  0.4778727E+02  0.7816164E-02  0.1312668E+00
        -11   -1    0    0    0    0  0.00000000000E+00  0.00000000000E+00  0.45593999997E+02  0.45594000000E+02  0.51100000000E-03 0. -1.
         11   -1    0    0    0    0 -0.00000000000E+00 -0.00000000000E+00 -0.45593999997E+02  0.45594000000E+02  0.51100000000E-03 0.  1.
    9900012    2    1    2    0    0  0.10693889231E+02 -0.34318841650E+02  0.24320382517E+02  0.47787272300E+02  0.20000005727E+02 0.  0.
        -12    1    1    2    0    0 -0.10693889231E+02  0.34318841650E+02 -0.24320382517E+02  0.43400727700E+02  0.00000000000E+00 0.  1.
         11    1    3    3    0    0  0.50270903331E+01 -0.26343926515E+01  0.10550824675E+02  0.11980465911E+02  0.51100000000E-03 0. -1.
        -11    1    3    3    0    0  0.29622531499E+01 -0.22139884707E+02  0.57897501141E+01  0.23075325463E+02  0.51100000000E-03 0.  1.
        -12    1    3    3    0    0  0.27045457477E+01 -0.95445642918E+01  0.79798077273E+01  0.12731480927E+02  0.00000000000E+00 0.  1.
</event>
<event>
 7    1  0.2642243E-009  0.4778727E+02  0.7816164E-02  0.1312668E+00
        -11   -1    0    0    0    0  0.00000000000E+00  0.00000000000E+00  0.45593999997E+02  0.45594000000E+02  0.51100000000E-03 0. -1.
         11   -1    0    0    0    0 -0.00000000000E+00 -0.00000000000E+00 -0.45593999997E+02  0.45594000000E+02  0.51100000000E-03 0.  1.
    9900012    2    1    2    0    0 -0.17983599419E+02 -0.25432591633E+02  0.30222456025E+02  0.47787269437E+02  0.19999992670E+02 0.  0.
        -12    1    1    2    0    0  0.17983599419E+02  0.25432591633E+02 -0.30222456025E+02  0.43400730563E+02  0.00000000000E+00 0.  1.
         11    1    3    3    0    0 -0.20999529547E+01 -0.10592060874E+01  0.57831058483E+01  0.62430788447E+01  0.51100000000E-03 0. -1.
        -11    1    3    3    0    0 -0.44689819664E+01 -0.18879051659E+02  0.20621599752E+02  0.28313261344E+02  0.51100000000E-03 0.  1.
        -12    1    3    3    0    0 -0.11414664497E+02 -0.54943338867E+01  0.38177504247E+01  0.13230929248E+02  0.00000000000E+00 0.  1.
</event>
<event>
 7    1  0.2642243E-009  0.4778727E+02  0.7816164E-02  0.1312668E+00
        -11   -1    0    0    0    0  0.00000000000E+00  0.00000000000E+00  0.45593999997E+02  0.45594000000E+02  0.51100000000E-03 0.  1.
         11   -1    0    0    0    0 -0.00000000000E+00 -0.00000000000E+00 -0.45593999997E+02  0.45594000000E+02  0.51100000000E-03 0. -1.
    9900012    2    1    2    0    0 -0.25320463101E+02  0.38821420932E+01 -0.35034645170E+02  0.47787271423E+02  0.20000001724E+02 0.  0.
        -12    1    1    2    0    0  0.25320463101E+02 -0.38821420932E+01  0.35034645170E+02  0.43400728577E+02  0.00000000000E+00 0.  1.
         11    1    3    3    0    0 -0.65674925811E+01 -0.14210810444E+01 -0.59220141611E+01  0.89566557443E+01  0.51100000000E-03 0. -1.
        -11    1    3    3    0    0 -0.23361089631E+01 -0.44985485320E+01 -0.15790989603E+01  0.53092276058E+01  0.51100000000E-03 0.  1.
        -12    1    3    3    0    0 -0.16416861557E+02  0.98017716695E+01 -0.27533532049E+02  0.33521388072E+02  0.00000000000E+00 0.  1.
</event>
<event>
 7    1  0.2642243E-009  0.4778727E+02  0.7816164E-02  0.1312668E+00
        -11   -1    0    0    0    0  0.00000000000E+00  0.00000000000E+00  0.45593999997E+02  0.45594000000E+02  0.51100000000E-03 0.  1.
         11   -1    0    0    0    0 -0.00000000000E+00 -0.00000000000E+00 -0.45593999997E+02  0.45594000000E+02  0.51100000000E-03 0. -1.
    9900012    2    1    2    0    0  0.87510832553E+01 -0.11154082584E+02 -0.41019851431E+02  0.47787271575E+02  0.20000002417E+02 0.  0.
        -12    1    1    2    0    0 -0.87510832553E+01  0.11154082584E+02  0.41019851431E+02  0.43400728425E+02  0.00000000000E+00 0.  1.
         11    1    3    3    0    0  0.78495983492E+01 -0.79172535773E+01 -0.25195284975E+02  0.27551796379E+02  0.51100000000E-03 0. -1.
        -11    1    3    3    0    0 -0.45998469063E+01 -0.47353200583E+01 -0.10681110921E+02  0.12556591033E+02  0.51100000000E-03 0.  1.
        -12    1    3    3    0    0  0.55013318124E+01  0.14984910515E+01 -0.51434555350E+01  0.76788841625E+01  0.00000000000E+00 0.  1.
</event>
<event>
 7    1  0.2642243E-009  0.4778728E+02  0.7816164E-02  0.1312668E+00
        -11   -1    0    0    0    0  0.00000000000E+00  0.00000000000E+00  0.45593999997E+02  0.45594000000E+02  0.51100000000E-03 0.  1.
         11   -1    0    0    0    0 -0.00000000000E+00 -0.00000000000E+00 -0.45593999997E+02  0.45594000000E+02  0.51100000000E-03 0. -1.
    9900012    2    1    2    0    0  0.96076729915E+00 -0.38283833594E+02 -0.20421744939E+02  0.47787278176E+02  0.20000032517E+02 0.  0.
        -12    1    1    2    0    0 -0.96076729915E+00  0.38283833594E+02  0.20421744939E+02  0.43400721824E+02  0.00000000000E+00 0.  1.
         11    1    3    3    0    0 -0.80306594158E+01 -0.11002804358E+02 -0.38485467965E+01  0.14155017029E+02  0.51100000000E-03 0. -1.
        -11    1    3    3    0    0  0.81256134600E+01 -0.26074310060E+02 -0.14071697244E+02  0.30723084200E+02  0.51100000000E-03 0.  1.
        -12    1    3    3    0    0  0.86581325497E+00 -0.12067191765E+01 -0.25015008983E+01  0.29091769468E+01  0.00000000000E+00 0.  1.
</event>
<event>
 7    1  0.2642243E-009  0.4778727E+02  0.7816164E-02  0.1312668E+00
        -11   -1    0    0    0    0  0.00000000000E+00  0.00000000000E+00  0.45593999997E+02  0.45594000000E+02  0.51100000000E-03 0.  1.
         11   -1    0    0    0    0 -0.00000000000E+00 -0.00000000000E+00 -0.45593999997E+02  0.45594000000E+02  0.51100000000E-03 0. -1.
    9900012    2    1    2    0    0  0.18773482795E+02  0.21947147031E+02 -0.32396023577E+02  0.47787271174E+02  0.20000000590E+02 0.  0.
        -12    1    1    2    0    0 -0.18773482795E+02 -0.21947147031E+02  0.32396023577E+02  0.43400728826E+02  0.00000000000E+00 0.  1.
         11    1    3    3    0    0  0.22660644462E+01  0.65898064244E+01 -0.60962282757E+00  0.69951581139E+01  0.51100000000E-03 0. -1.
        -11    1    3    3    0    0  0.10251421449E+02  0.14989445471E+01 -0.13015130579E+02  0.16635266777E+02  0.51100000000E-03 0.  1.
         12    1    3    3    0    0  0.62559968994E+01  0.13858396060E+02 -0.18771270170E+02  0.24156846283E+02  0.00000000000E+00 0. -1.
</event>
<event>
 7    1  0.2642243E-009  0.4778727E+02  0.7816164E-02  0.1312668E+00
        -11   -1    0    0    0    0  0.00000000000E+00  0.00000000000E+00  0.45593999997E+02  0.45594000000E+02  0.51100000000E-03 0.  1.
         11   -1    0    0    0    0 -0.00000000000E+00 -0.00000000000E+00 -0.45593999997E+02  0.45594000000E+02  0.51100000000E-03 0. -1.
    9900012    2    1    2    0    0  0.33491857348E+02  0.70229316266E+01 -0.26694514954E+02  0.47787271828E+02  0.20000003571E+02 0.  0.
        -12    1    1    2    0    0 -0.33491857348E+02 -0.70229316266E+01  0.26694514954E+02  0.43400728172E+02  0.00000000000E+00 0.  1.
         11    1    3    3    0    0  0.23890834370E+02  0.13318980310E+01 -0.10038619470E+02  0.25948406510E+02  0.51100000000E-03 0. -1.
        -11    1    3    3    0    0  0.32229851811E+01  0.68860875346E+01 -0.97269604316E+01  0.12345833083E+02  0.51100000000E-03 0.  1.
        -12    1    3    3    0    0  0.63780377969E+01 -0.11950539389E+01 -0.69289350526E+01  0.94930322352E+01  0.00000000000E+00 0.  1.
</event>
<event>
 7    1  0.2642243E-009  0.4778727E+02  0.7816164E-02  0.1312668E+00
        -11   -1    0    0    0    0  0.00000000000E+00  0.00000000000E+00  0.45593999997E+02  0.45594000000E+02  0.51100000000E-03 0.  1.
         11   -1    0    0    0    0 -0.00000000000E+00 -0.00000000000E+00 -0.45593999997E+02  0.45594000000E+02  0.51100000000E-03 0. -1.
    9900012    2    1    2    0    0  0.97543277266E+01  0.10655019908E+02 -0.40926120420E+02  0.47787266236E+02  0.19999978078E+02 0.  0.
        -12    1    1    2    0    0 -0.97543277266E+01 -0.10655019908E+02  0.40926120420E+02  0.43400733764E+02  0.00000000000E+00 0.  1.
         11    1    3    3    0    0  0.48176374656E+01  0.31706841673E+00 -0.32732964877E+02  0.33087114607E+02  0.51100000000E-03 0. -1.
        -11    1    3    3    0    0  0.43307131607E+01  0.42710272062E+01 -0.36160452544E+01  0.70761948404E+01  0.51100000000E-03 0.  1.
         12    1    3    3    0    0  0.60597710035E+00  0.60669242850E+01 -0.45771102883E+01  0.76239567888E+01  0.00000000000E+00 0. -1.
</event>
<event>
 7    1  0.2642243E-009  0.4778723E+02  0.7816164E-02  0.1312668E+00
        -11   -1    0    0    0    0  0.00000000000E+00  0.00000000000E+00  0.45593999997E+02  0.45594000000E+02  0.51100000000E-03 0. -1.
         11   -1    0    0    0    0 -0.00000000000E+00 -0.00000000000E+00 -0.45593999997E+02  0.45594000000E+02  0.51100000000E-03 0.  1.
    9900012    2    1    2    0    0 -0.13328822719E+00 -0.82780369929E+01  0.42603791898E+02  0.47787231040E+02  0.19999817604E+02 0.  0.
        -12    1    1    2    0    0  0.13328822719E+00  0.82780369929E+01 -0.42603791898E+02  0.43400768960E+02  0.00000000000E+00 0.  1.
         11    1    3    3    0    0  0.20048967217E+01 -0.36414574381E+01  0.39530239641E+02  0.39748203349E+02  0.51100000000E-03 0. -1.
        -11    1    3    3    0    0  0.11494683762E+01 -0.20347133782E-01 -0.58849750257E+00  0.12915189218E+01  0.51100000000E-03 0.  1.
         12    1    3    3    0    0 -0.32876533251E+01 -0.46162324210E+01  0.36620497598E+01  0.67475087695E+01  0.00000000000E+00 0. -1.
</event>
<event>
 7    1  0.2642243E-009  0.4778727E+02  0.7816164E-02  0.1312668E+00
        -11   -1    0    0    0    0  0.00000000000E+00  0.00000000000E+00  0.45593999997E+02  0.45594000000E+02  0.51100000000E-03 0. -1.
         11   -1    0    0    0    0 -0.00000000000E+00 -0.00000000000E+00 -0.45593999997E+02  0.45594000000E+02  0.51100000000E-03 0.  1.
    9900012    2    1    2    0    0 -0.15619194810E+02 -0.52802330686E+01  0.40147017270E+02  0.47787273008E+02  0.20000008951E+02 0.  0.
        -12    1    1    2    0    0  0.15619194810E+02  0.52802330686E+01 -0.40147017270E+02  0.43400726992E+02  0.00000000000E+00 0.  1.
         11    1    3    3    0    0 -0.15146667284E+02 -0.15076030551E+01  0.20286366216E+02  0.25362000144E+02  0.51100000000E-03 0. -1.
        -11    1    3    3    0    0  0.22543302959E+01  0.96310238930E-01  0.27183680931E+00  0.22727024128E+01  0.51100000000E-03 0.  1.
         12    1    3    3    0    0 -0.27268578211E+01 -0.38689402524E+01  0.19588814245E+02  0.20152570450E+02  0.00000000000E+00 0. -1.
</event>
<event>
 7    1  0.2642243E-009  0.4778727E+02  0.7816164E-02  0.1312668E+00
        -11   -1    0    0    0    0  0.00000000000E+00  0.00000000000E+00  0.45593999997E+02  0.45594000000E+02  0.51100000000E-03 0.  1.
         11   -1    0    0    0    0 -0.00000000000E+00 -0.00000000000E+00 -0.45593999997E+02  0.45594000000E+02  0.51100000000E-03 0. -1.
    9900012    2    1    2    0    0 -0.29332743559E+02  0.30295533405E+02 -0.10266169301E+02  0.47787269348E+02  0.19999992265E+02 0.  0.
        -12    1    1    2    0    0  0.29332743559E+02 -0.30295533405E+02  0.10266169301E+02  0.43400730652E+02  0.00000000000E+00 0.  1.
         11    1    3    3    0    0 -0.23620418174E+02  0.13418264329E+02 -0.76102265721E+01  0.28211513981E+02  0.51100000000E-03 0. -1.
        -11    1    3    3    0    0 -0.65355885006E+01  0.15999873931E+02 -0.40325874862E+01  0.17747440518E+02  0.51100000000E-03 0.  1.
         12    1    3    3    0    0  0.82326311559E+00  0.87739514471E+00  0.13766447578E+01  0.18283148489E+01  0.00000000000E+00 0. -1.
</event>
<event>
 7    1  0.2642243E-009  0.4778728E+02  0.7816164E-02  0.1312668E+00
        -11   -1    0    0    0    0  0.00000000000E+00  0.00000000000E+00  0.45593999997E+02  0.45594000000E+02  0.51100000000E-03 0.  1.
         11   -1    0    0    0    0 -0.00000000000E+00 -0.00000000000E+00 -0.45593999997E+02  0.45594000000E+02  0.51100000000E-03 0. -1.
    9900012    2    1    2    0    0  0.10936404211E+02 -0.35105296013E+02 -0.23057229448E+02  0.47787279095E+02  0.20000036705E+02 0.  0.
        -12    1    1    2    0    0 -0.10936404211E+02  0.35105296013E+02  0.23057229448E+02  0.43400720905E+02  0.00000000000E+00 0.  1.
         11    1    3    3    0    0  0.65424782323E+01 -0.21100649363E+02 -0.10378700691E+02  0.24408171854E+02  0.51100000000E-03 0. -1.
        -11    1    3    3    0    0  0.42204805261E+00 -0.68830877835E+01 -0.13524409486E+02  0.15181063013E+02  0.51100000000E-03 0.  1.
        -12    1    3    3    0    0  0.39718779262E+01 -0.71215588664E+01  0.84588072885E+00  0.81980442275E+01  0.00000000000E+00 0.  1.
</event>
<event>
 7    1  0.2642243E-009  0.4778726E+02  0.7816164E-02  0.1312668E+00
        -11   -1    0    0    0    0  0.00000000000E+00  0.00000000000E+00  0.45593999997E+02  0.45594000000E+02  0.51100000000E-03 0.  1.
         11   -1    0    0    0    0 -0.00000000000E+00 -0.00000000000E+00 -0.45593999997E+02  0.45594000000E+02  0.51100000000E-03 0. -1.
    9900012    2    1    2    0    0  0.20058053818E+02  0.11425068611E+02 -0.36752775674E+02  0.47787259967E+02  0.19999949492E+02 0.  0.
        -12    1    1    2    0    0 -0.20058053818E+02 -0.11425068611E+02  0.36752775674E+02  0.43400740033E+02  0.00000000000E+00 0.  1.
         11    1    3    3    0    0  0.83891008894E+01  0.31460062325E+01 -0.23221152387E+02  0.24889682348E+02  0.51100000000E-03 0. -1.
        -11    1    3    3    0    0  0.26813908750E+01  0.89388518050E+01 -0.55406425704E+01  0.10853186121E+02  0.51100000000E-03 0.  1.
         12    1    3    3    0    0  0.89875620533E+01 -0.65978942634E+00 -0.79909807162E+01  0.12044391498E+02  0.00000000000E+00 0. -1.
</event>
<event>
 7    1  0.2642243E-009  0.4778727E+02  0.7816164E-02  0.1312668E+00
        -11   -1    0    0    0    0  0.00000000000E+00  0.00000000000E+00  0.45593999997E+02  0.45594000000E+02  0.51100000000E-03 0.  1.
         11   -1    0    0    0    0 -0.00000000000E+00 -0.00000000000E+00 -0.45593999997E+02  0.45594000000E+02  0.51100000000E-03 0. -1.
    9900012    2    1    2    0    0 -0.25870328131E+02 -0.32804048703E+02  0.11757723566E+02  0.47787267837E+02  0.19999985374E+02 0.  0.
        -12    1    1    2    0    0  0.25870328131E+02  0.32804048703E+02 -0.11757723566E+02  0.43400732163E+02  0.00000000000E+00 0.  1.
         11    1    3    3    0    0 -0.71997019335E+01 -0.78969154452E+01  0.33952523615E+01  0.11212703525E+02  0.51100000000E-03 0. -1.
        -11    1    3    3    0    0 -0.19761087392E+02 -0.19126905304E+02  0.11614152369E+02  0.29853435596E+02  0.51100000000E-03 0.  1.
        -12    1    3    3    0    0  0.10904611944E+01 -0.57802279535E+01 -0.32516811644E+01  0.67211287152E+01  0.00000000000E+00 0.  1.
</event>
<event>
 7    1  0.2642243E-009  0.4778727E+02  0.7816164E-02  0.1312668E+00
        -11   -1    0    0    0    0  0.00000000000E+00  0.00000000000E+00  0.45593999997E+02  0.45594000000E+02  0.51100000000E-03 0. -1.
         11   -1    0    0    0    0 -0.00000000000E+00 -0.00000000000E+00 -0.45593999997E+02  0.45594000000E+02  0.51100000000E-03 0.  1.
    9900012    2    1    2    0    0  0.14906942487E+02 -0.18401768715E+02  0.36370055817E+02  0.47787274357E+02  0.20000015105E+02 0.  0.
        -12    1    1    2    0    0 -0.14906942487E+02  0.18401768715E+02 -0.36370055817E+02  0.43400725643E+02  0.00000000000E+00 0.  1.
         11    1    3    3    0    0  0.63662738917E+01 -0.12037460951E+02  0.30952561051E+02  0.33815542954E+02  0.51100000000E-03 0. -1.
        -11    1    3    3    0    0  0.11358569916E+01  0.10684138907E+01 -0.82412823713E+00  0.17637649956E+01  0.51100000000E-03 0.  1.
         12    1    3    3    0    0  0.74048116041E+01 -0.74327216549E+01  0.62416230033E+01  0.12207966407E+02  0.00000000000E+00 0. -1.
</event>
<event>
 7    1  0.2642243E-009  0.4778727E+02  0.7816164E-02  0.1312668E+00
        -11   -1    0    0    0    0  0.00000000000E+00  0.00000000000E+00  0.45593999997E+02  0.45594000000E+02  0.51100000000E-03 0.  1.
         11   -1    0    0    0    0 -0.00000000000E+00 -0.00000000000E+00 -0.45593999997E+02  0.45594000000E+02  0.51100000000E-03 0. -1.
    9900012    2    1    2    0    0  0.40704788703E+02  0.33382536035E+01 -0.14683302502E+02  0.47787272669E+02  0.20000007407E+02 0.  0.
        -12    1    1    2    0    0 -0.40704788703E+02 -0.33382536035E+01  0.14683302502E+02  0.43400727331E+02  0.00000000000E+00 0.  1.
         11    1    3    3    0    0  0.13816000792E+02  0.67936410240E+01 -0.20688037202E+01  0.15534329253E+02  0.51100000000E-03 0.  1.
        -11    1    3    3    0    0  0.15352445009E+02 -0.46771528599E+01 -0.12987959488E+02  0.20646075137E+02  0.51100000000E-03 0. -1.
         12    1    3    3    0    0  0.11536342902E+02  0.12217654394E+01  0.37346070653E+00  0.11606868279E+02  0.00000000000E+00 0. -1.
</event>
<event>
 7    1  0.2642243E-009  0.4778727E+02  0.7816164E-02  0.1312668E+00
        -11   -1    0    0    0    0  0.00000000000E+00  0.00000000000E+00  0.45593999997E+02  0.45594000000E+02  0.51100000000E-03 0.  1.
         11   -1    0    0    0    0 -0.00000000000E+00 -0.00000000000E+00 -0.45593999997E+02  0.45594000000E+02  0.51100000000E-03 0. -1.
    9900012    2    1    2    0    0 -0.15301696023E+02  0.12671462867E+02 -0.38586464947E+02  0.47787272477E+02  0.20000006534E+02 0.  0.
        -12    1    1    2    0    0  0.15301696023E+02 -0.12671462867E+02  0.38586464947E+02  0.43400727523E+02  0.00000000000E+00 0.  1.
         11    1    3    3    0    0  0.38794562307E+01  0.54955348381E+01 -0.15040791825E+02  0.16476544019E+02  0.51100000000E-03 0. -1.
        -11    1    3    3    0    0 -0.17432944292E+02  0.59285639140E+01 -0.21852266237E+02  0.28575810692E+02  0.51100000000E-03 0.  1.
         12    1    3    3    0    0 -0.17482079617E+01  0.12473641145E+01 -0.16934068851E+01  0.27349177666E+01  0.00000000000E+00 0. -1.
</event>
<event>
 7    1  0.2642243E-009  0.4778727E+02  0.7816164E-02  0.1312668E+00
        -11   -1    0    0    0    0  0.00000000000E+00  0.00000000000E+00  0.45593999997E+02  0.45594000000E+02  0.51100000000E-03 0. -1.
         11   -1    0    0    0    0 -0.00000000000E+00 -0.00000000000E+00 -0.45593999997E+02  0.45594000000E+02  0.51100000000E-03 0.  1.
    9900012    2    1    2    0    0  0.41826324757E+02  0.10955760395E+02 -0.37620703073E+01  0.47787270726E+02  0.19999998547E+02 0.  0.
        -12    1    1    2    0    0 -0.41826324757E+02 -0.10955760395E+02  0.37620703073E+01  0.43400729274E+02  0.00000000000E+00 0.  1.
         11    1    3    3    0    0  0.34063034563E+02  0.49226312522E+01 -0.25031932276E+00  0.34417804726E+02  0.51100000000E-03 0. -1.
        -11    1    3    3    0    0  0.33616569098E+01  0.75190523711E+01 -0.19047406931E+01  0.84536928680E+01  0.51100000000E-03 0.  1.
        -12    1    3    3    0    0  0.44016332843E+01 -0.14859232279E+01 -0.16070102915E+01  0.49157731321E+01  0.00000000000E+00 0.  1.
</event>
<event>
 7    1  0.2642243E-009  0.4778727E+02  0.7816164E-02  0.1312668E+00
        -11   -1    0    0    0    0  0.00000000000E+00  0.00000000000E+00  0.45593999997E+02  0.45594000000E+02  0.51100000000E-03 0.  1.
         11   -1    0    0    0    0 -0.00000000000E+00 -0.00000000000E+00 -0.45593999997E+02  0.45594000000E+02  0.51100000000E-03 0. -1.
    9900012    2    1    2    0    0  0.91243658836E+00  0.42932933646E+02 -0.62891857868E+01  0.47787272012E+02  0.20000004412E+02 0.  0.
        -12    1    1    2    0    0 -0.91243658836E+00 -0.42932933646E+02  0.62891857868E+01  0.43400727988E+02  0.00000000000E+00 0.  1.
         11    1    3    3    0    0  0.37074177558E+01  0.55104168248E+01 -0.62159933367E+01  0.90966044996E+01  0.51100000000E-03 0. -1.
        -11    1    3    3    0    0 -0.24594128539E-02  0.27270103816E+00  0.13810036993E+01  0.14076730386E+01  0.51100000000E-03 0.  1.
         12    1    3    3    0    0 -0.27925217546E+01  0.37149815784E+02 -0.14541961494E+01  0.37282994474E+02  0.00000000000E+00 0. -1.
</event>
<event>
 7    1  0.2642243E-009  0.4778727E+02  0.7816164E-02  0.1312668E+00
        -11   -1    0    0    0    0  0.00000000000E+00  0.00000000000E+00  0.45593999997E+02  0.45594000000E+02  0.51100000000E-03 0.  1.
         11   -1    0    0    0    0 -0.00000000000E+00 -0.00000000000E+00 -0.45593999997E+02  0.45594000000E+02  0.51100000000E-03 0. -1.
    9900012    2    1    2    0    0  0.23478414886E+02  0.26062065430E+02 -0.25556915843E+02  0.47787272270E+02  0.20000005588E+02 0.  0.
        -12    1    1    2    0    0 -0.23478414886E+02 -0.26062065430E+02  0.25556915843E+02  0.43400727730E+02  0.00000000000E+00 0.  1.
         11    1    3    3    0    0  0.16666311011E+02  0.55485811556E+01 -0.10840942247E+02  0.20641673978E+02  0.51100000000E-03 0. -1.
        -11    1    3    3    0    0 -0.45239732336E+00  0.31662474384E+01  0.10579256244E+00  0.32001528881E+01  0.51100000000E-03 0.  1.
         12    1    3    3    0    0  0.72645011984E+01  0.17347236836E+02 -0.14821766159E+02  0.23945445404E+02  0.00000000000E+00 0. -1.
</event>
<event>
 7    1  0.2642243E-009  0.4778727E+02  0.7816164E-02  0.1312668E+00
        -11   -1    0    0    0    0  0.00000000000E+00  0.00000000000E+00  0.45593999997E+02  0.45594000000E+02  0.51100000000E-03 0.  1.
         11   -1    0    0    0    0 -0.00000000000E+00 -0.00000000000E+00 -0.45593999997E+02  0.45594000000E+02  0.51100000000E-03 0. -1.
    9900012    2    1    2    0    0 -0.41651392262E+02 -0.70139996992E+01  0.99794038623E+01  0.47787272234E+02  0.20000005425E+02 0.  0.
        -12    1    1    2    0    0  0.41651392262E+02  0.70139996992E+01 -0.99794038623E+01  0.43400727766E+02  0.00000000000E+00 0.  1.
         11    1    3    3    0    0 -0.14530946698E+02  0.19045905996E+01  0.77552500564E-01  0.14655438988E+02  0.51100000000E-03 0. -1.
        -11    1    3    3    0    0 -0.20147376915E+02 -0.69884222658E+01  0.13306022614E+02  0.25135733138E+02  0.51100000000E-03 0.  1.
        -12    1    3    3    0    0 -0.69730686498E+01 -0.19301680330E+01 -0.34041712521E+01  0.79961001084E+01  0.00000000000E+00 0.  1.
</event>
<event>
 7    1  0.2642243E-009  0.4778727E+02  0.7816164E-02  0.1312668E+00
        -11   -1    0    0    0    0  0.00000000000E+00  0.00000000000E+00  0.45593999997E+02  0.45594000000E+02  0.51100000000E-03 0.  1.
         11   -1    0    0    0    0 -0.00000000000E+00 -0.00000000000E+00 -0.45593999997E+02  0.45594000000E+02  0.51100000000E-03 0. -1.
    9900012    2    1    2    0    0  0.75589333384E+01  0.25235906596E+02 -0.34491085221E+02  0.47787269422E+02  0.19999992604E+02 0.  0.
        -12    1    1    2    0    0 -0.75589333384E+01 -0.25235906596E+02  0.34491085221E+02  0.43400730578E+02  0.00000000000E+00 0.  1.
         11    1    3    3    0    0  0.78397133318E+01  0.15765231109E+02 -0.14990703169E+02  0.23124117255E+02  0.51100000000E-03 0. -1.
        -11    1    3    3    0    0 -0.37433011165E+01  0.77800879228E+01 -0.18879835470E+02  0.20760304887E+02  0.51100000000E-03 0.  1.
        -12    1    3    3    0    0  0.34625211231E+01  0.16905875637E+01 -0.62054658269E+00  0.39028472812E+01  0.00000000000E+00 0.  1.
</event>
<event>
 7    1  0.2642243E-009  0.4778728E+02  0.7816164E-02  0.1312668E+00
        -11   -1    0    0    0    0  0.00000000000E+00  0.00000000000E+00  0.45593999997E+02  0.45594000000E+02  0.51100000000E-03 0.  1.
         11   -1    0    0    0    0 -0.00000000000E+00 -0.00000000000E+00 -0.45593999997E+02  0.45594000000E+02  0.51100000000E-03 0. -1.
    9900012    2    1    2    0    0 -0.38789903087E+01 -0.18877263995E+02 -0.38887339132E+02  0.47787276428E+02  0.20000024548E+02 0.  0.
        -12    1    1    2    0    0  0.38789903087E+01  0.18877263995E+02  0.38887339132E+02  0.43400723572E+02  0.00000000000E+00 0.  1.
         11    1    3    3    0    0 -0.16618327152E+01  0.20591625890E+01 -0.69880887581E+01  0.74722970560E+01  0.51100000000E-03 0. -1.
        -11    1    3    3    0    0  0.22144080391E+01  0.17224681503E+00 -0.59471174740E+00  0.22993377856E+01  0.51100000000E-03 0.  1.
         12    1    3    3    0    0 -0.44315656326E+01 -0.21108673399E+02 -0.31304538627E+02  0.38015641587E+02  0.00000000000E+00 0. -1.
</event>
<event>
 7    1  0.2642243E-009  0.4778728E+02  0.7816164E-02  0.1312668E+00
        -11   -1    0    0    0    0  0.00000000000E+00  0.00000000000E+00  0.45593999997E+02  0.45594000000E+02  0.51100000000E-03 0.  1.
         11   -1    0    0    0    0 -0.00000000000E+00 -0.00000000000E+00 -0.45593999997E+02  0.45594000000E+02  0.51100000000E-03 0. -1.
    9900012    2    1    2    0    0 -0.53575869501E+01 -0.15539284770E+02 -0.40167764898E+02  0.47787280582E+02  0.20000043485E+02 0.  0.
        -12    1    1    2    0    0  0.53575869501E+01  0.15539284770E+02  0.40167764898E+02  0.43400719418E+02  0.00000000000E+00 0.  1.
         11    1    3    3    0    0  0.43436661408E+01 -0.10422366695E+02 -0.20590932712E+02  0.23483604350E+02  0.51100000000E-03 0. -1.
        -11    1    3    3    0    0 -0.59588187261E+01 -0.57538252058E+01 -0.60587755364E+01  0.10262689042E+02  0.51100000000E-03 0.  1.
         12    1    3    3    0    0 -0.37424343649E+01  0.63690713153E+00 -0.13518056650E+02  0.14040987190E+02  0.00000000000E+00 0. -1.
</event>
<event>
 7    1  0.2642243E-009  0.4778727E+02  0.7816164E-02  0.1312668E+00
        -11   -1    0    0    0    0  0.00000000000E+00  0.00000000000E+00  0.45593999997E+02  0.45594000000E+02  0.51100000000E-03 0.  1.
         11   -1    0    0    0    0 -0.00000000000E+00 -0.00000000000E+00 -0.45593999997E+02  0.45594000000E+02  0.51100000000E-03 0. -1.
    9900012    2    1    2    0    0 -0.19971850053E+02 -0.31948454878E+02 -0.21541695962E+02  0.47787271567E+02  0.20000002381E+02 0.  0.
        -12    1    1    2    0    0  0.19971850053E+02  0.31948454878E+02  0.21541695962E+02  0.43400728433E+02  0.00000000000E+00 0.  1.
         11    1    3    3    0    0 -0.11601520010E+02 -0.16356509082E+02 -0.35561158271E+01  0.20366065303E+02  0.51100000000E-03 0. -1.
        -11    1    3    3    0    0 -0.36815351160E+01 -0.40281784200E+01  0.88842587438E-01  0.54578214940E+01  0.51100000000E-03 0.  1.
         12    1    3    3    0    0 -0.46887949270E+01 -0.11563767377E+02 -0.18074422722E+02  0.21963384770E+02  0.00000000000E+00 0. -1.
</event>
<event>
 7    1  0.2642243E-009  0.4778727E+02  0.7816164E-02  0.1312668E+00
        -11   -1    0    0    0    0  0.00000000000E+00  0.00000000000E+00  0.45593999997E+02  0.45594000000E+02  0.51100000000E-03 0.  1.
         11   -1    0    0    0    0 -0.00000000000E+00 -0.00000000000E+00 -0.45593999997E+02  0.45594000000E+02  0.51100000000E-03 0. -1.
    9900012    2    1    2    0    0 -0.10165154135E+02  0.39060298599E+02 -0.15955753647E+02  0.47787270056E+02  0.19999995493E+02 0.  0.
        -12    1    1    2    0    0  0.10165154135E+02 -0.39060298599E+02  0.15955753647E+02  0.43400729944E+02  0.00000000000E+00 0.  1.
         11    1    3    3    0    0  0.14151898999E+01  0.73545597352E+01 -0.79168331676E+01  0.10898098872E+02  0.51100000000E-03 0. -1.
        -11    1    3    3    0    0 -0.46975103263E+01  0.22700197397E+02 -0.33366713222E+00  0.23183548027E+02  0.51100000000E-03 0.  1.
        -12    1    3    3    0    0 -0.68828337090E+01  0.90055414669E+01 -0.77052533477E+01  0.13705623157E+02  0.00000000000E+00 0.  1.
</event>
<event>
 7    1  0.2642243E-009  0.4778726E+02  0.7816164E-02  0.1312668E+00
        -11   -1    0    0    0    0  0.00000000000E+00  0.00000000000E+00  0.45593999997E+02  0.45594000000E+02  0.51100000000E-03 0. -1.
         11   -1    0    0    0    0 -0.00000000000E+00 -0.00000000000E+00 -0.45593999997E+02  0.45594000000E+02  0.51100000000E-03 0.  1.
    9900012    2    1    2    0    0 -0.25543442715E+02 -0.13148313904E+02  0.32531193539E+02  0.47787260636E+02  0.19999952543E+02 0.  0.
        -12    1    1    2    0    0  0.25543442715E+02  0.13148313904E+02 -0.32531193539E+02  0.43400739364E+02  0.00000000000E+00 0.  1.
         11    1    3    3    0    0 -0.16947676045E+02 -0.80529414631E+01  0.11340560838E+02  0.21924459170E+02  0.51100000000E-03 0.  1.
        -11    1    3    3    0    0 -0.55116834656E+01  0.25385809044E+01  0.12478428286E+02  0.13875670088E+02  0.51100000000E-03 0. -1.
        -12    1    3    3    0    0 -0.30840832046E+01 -0.76339533455E+01  0.87122044152E+01  0.11987131378E+02  0.00000000000E+00 0.  1.
</event>
<event>
 7    1  0.2642243E-009  0.4778727E+02  0.7816164E-02  0.1312668E+00
        -11   -1    0    0    0    0  0.00000000000E+00  0.00000000000E+00  0.45593999997E+02  0.45594000000E+02  0.51100000000E-03 0.  1.
         11   -1    0    0    0    0 -0.00000000000E+00 -0.00000000000E+00 -0.45593999997E+02  0.45594000000E+02  0.51100000000E-03 0. -1.
    9900012    2    1    2    0    0 -0.15169584138E+02 -0.17478029153E+02 -0.36715466344E+02  0.47787271263E+02  0.20000000999E+02 0.  0.
        -12    1    1    2    0    0  0.15169584138E+02  0.17478029153E+02  0.36715466344E+02  0.43400728737E+02  0.00000000000E+00 0.  1.
         11    1    3    3    0    0 -0.60279313987E+01 -0.39545794980E+00 -0.34988559197E+01  0.69809982772E+01  0.51100000000E-03 0. -1.
        -11    1    3    3    0    0  0.18891534170E+01 -0.42999034940E+01 -0.16069632291E+02  0.16741898128E+02  0.51100000000E-03 0.  1.
        -12    1    3    3    0    0 -0.11030806157E+02 -0.12782667709E+02 -0.17146978133E+02  0.24064374858E+02  0.00000000000E+00 0.  1.
</event>
<event>
 7    1  0.2642243E-009  0.4778728E+02  0.7816164E-02  0.1312668E+00
        -11   -1    0    0    0    0  0.00000000000E+00  0.00000000000E+00  0.45593999997E+02  0.45594000000E+02  0.51100000000E-03 0.  1.
         11   -1    0    0    0    0 -0.00000000000E+00 -0.00000000000E+00 -0.45593999997E+02  0.45594000000E+02  0.51100000000E-03 0. -1.
    9900012    2    1    2    0    0  0.36371042742E+02 -0.11634977741E+02 -0.20625154310E+02  0.47787280564E+02  0.20000043405E+02 0.  0.
        -12    1    1    2    0    0 -0.36371042742E+02  0.11634977741E+02  0.20625154310E+02  0.43400719436E+02  0.00000000000E+00 0.  1.
         11    1    3    3    0    0  0.13190983276E+02 -0.12184221763E+02 -0.93978001210E+01  0.20267608323E+02  0.51100000000E-03 0. -1.
        -11    1    3    3    0    0  0.66652562035E+01 -0.31107987648E+01 -0.68403004343E+01  0.10044521865E+02  0.51100000000E-03 0.  1.
         12    1    3    3    0    0  0.16514803263E+02  0.36600427867E+01 -0.43870537552E+01  0.17475150376E+02  0.00000000000E+00 0. -1.
</event>
<event>
 7    1  0.2642243E-009  0.4778727E+02  0.7816164E-02  0.1312668E+00
        -11   -1    0    0    0    0  0.00000000000E+00  0.00000000000E+00  0.45593999997E+02  0.45594000000E+02  0.51100000000E-03 0. -1.
         11   -1    0    0    0    0 -0.00000000000E+00 -0.00000000000E+00 -0.45593999997E+02  0.45594000000E+02  0.51100000000E-03 0.  1.
    9900012    2    1    2    0    0  0.28202486281E+02  0.30964480594E+02  0.11377344627E+02  0.47787271185E+02  0.20000000643E+02 0.  0.
        -12    1    1    2    0    0 -0.28202486281E+02 -0.30964480594E+02 -0.11377344627E+02  0.43400728815E+02  0.00000000000E+00 0.  1.
         11    1    3    3    0    0  0.57523881800E+01  0.53323746524E+00 -0.29626984863E+01  0.64924490410E+01  0.51100000000E-03 0.  1.
        -11    1    3    3    0    0  0.16194640955E+02  0.20122619558E+02  0.56744921774E+01  0.26445908479E+02  0.51100000000E-03 0. -1.
        -12    1    3    3    0    0  0.62554571460E+01  0.10308623570E+02  0.86655509362E+01  0.14848913666E+02  0.00000000000E+00 0.  1.
</event>
<event>
 7    1  0.2642243E-009  0.4778727E+02  0.7816164E-02  0.1312668E+00
        -11   -1    0    0    0    0  0.00000000000E+00  0.00000000000E+00  0.45593999997E+02  0.45594000000E+02  0.51100000000E-03 0. -1.
         11   -1    0    0    0    0 -0.00000000000E+00 -0.00000000000E+00 -0.45593999997E+02  0.45594000000E+02  0.51100000000E-03 0.  1.
    9900012    2    1    2    0    0 -0.27134824536E+02  0.32217902274E+02  0.10456170635E+02  0.47787269200E+02  0.19999991593E+02 0.  0.
        -12    1    1    2    0    0  0.27134824536E+02 -0.32217902274E+02 -0.10456170635E+02  0.43400730800E+02  0.00000000000E+00 0.  1.
         11    1    3    3    0    0 -0.13988134652E+02  0.10300888435E+02  0.94815712461E+01  0.19790816232E+02  0.51100000000E-03 0. -1.
        -11    1    3    3    0    0 -0.81930408537E+00  0.12317487347E+02  0.81260665108E+00  0.12371422051E+02  0.51100000000E-03 0.  1.
        -12    1    3    3    0    0 -0.12327385799E+02  0.95995264922E+01  0.16199273821E+00  0.15625030917E+02  0.00000000000E+00 0.  1.
</event>
<event>
 7    1  0.2642243E-009  0.4778727E+02  0.7816164E-02  0.1312668E+00
        -11   -1    0    0    0    0  0.00000000000E+00  0.00000000000E+00  0.45593999997E+02  0.45594000000E+02  0.51100000000E-03 0.  1.
         11   -1    0    0    0    0 -0.00000000000E+00 -0.00000000000E+00 -0.45593999997E+02  0.45594000000E+02  0.51100000000E-03 0. -1.
    9900012    2    1    2    0    0 -0.31874678708E+01 -0.26020257572E+02 -0.34589153149E+02  0.47787271076E+02  0.20000000145E+02 0.  0.
        -12    1    1    2    0    0  0.31874678708E+01  0.26020257572E+02  0.34589153149E+02  0.43400728924E+02  0.00000000000E+00 0.  1.
         11    1    3    3    0    0 -0.18571935047E+01 -0.12941970719E+02 -0.26329534655E+02  0.29397077562E+02  0.51100000000E-03 0. -1.
        -11    1    3    3    0    0 -0.34434839273E+01 -0.29025063771E+01  0.83449623376E+00  0.45802302400E+01  0.51100000000E-03 0.  1.
        -12    1    3    3    0    0  0.21132095612E+01 -0.10175780476E+02 -0.90941147279E+01  0.13809963274E+02  0.00000000000E+00 0.  1.
</event>
<event>
 7    1  0.2642243E-009  0.4778727E+02  0.7816164E-02  0.1312668E+00
        -11   -1    0    0    0    0  0.00000000000E+00  0.00000000000E+00  0.45593999997E+02  0.45594000000E+02  0.51100000000E-03 0. -1.
         11   -1    0    0    0    0 -0.00000000000E+00 -0.00000000000E+00 -0.45593999997E+02  0.45594000000E+02  0.51100000000E-03 0.  1.
    9900012    2    1    2    0    0  0.41460214077E+02  0.96382064661E+00 -0.12796288415E+02  0.47787270758E+02  0.19999998692E+02 0.  0.
        -12    1    1    2    0    0 -0.41460214077E+02 -0.96382064661E+00  0.12796288415E+02  0.43400729242E+02  0.00000000000E+00 0.  1.
         11    1    3    3    0    0  0.33773384785E+02 -0.46813259239E+01 -0.36758173725E+01  0.34293847347E+02  0.51100000000E-03 0.  1.
        -11    1    3    3    0    0  0.76671123462E+01  0.56877181487E+01 -0.82373919440E+01  0.12609098928E+02  0.51100000000E-03 0. -1.
        -12    1    3    3    0    0  0.19716946051E-01 -0.42571578249E-01 -0.88307909833E+00  0.88432448295E+00  0.00000000000E+00 0.  1.
</event>
<event>
 7    1  0.2642243E-009  0.4778727E+02  0.7816164E-02  0.1312668E+00
        -11   -1    0    0    0    0  0.00000000000E+00  0.00000000000E+00  0.45593999997E+02  0.45594000000E+02  0.51100000000E-03 0.  1.
         11   -1    0    0    0    0 -0.00000000000E+00 -0.00000000000E+00 -0.45593999997E+02  0.45594000000E+02  0.51100000000E-03 0. -1.
    9900012    2    1    2    0    0  0.11085332682E+02  0.40027630634E+02 -0.12590770124E+02  0.47787270661E+02  0.19999998252E+02 0.  0.
        -12    1    1    2    0    0 -0.11085332682E+02 -0.40027630634E+02  0.12590770124E+02  0.43400729339E+02  0.00000000000E+00 0.  1.
         11    1    3    3    0    0  0.11113645330E+02  0.26128033669E+02 -0.83855957738E+01  0.29605835112E+02  0.51100000000E-03 0. -1.
        -11    1    3    3    0    0 -0.40481964595E+01  0.34960805167E+01 -0.45509465337E+01  0.70229330174E+01  0.51100000000E-03 0.  1.
         12    1    3    3    0    0  0.40198838109E+01  0.10403516448E+02  0.34577218388E+00  0.11158502532E+02  0.00000000000E+00 0. -1.
</event>
<event>
 7    1  0.2642243E-009  0.4778729E+02  0.7816164E-02  0.1312668E+00
        -11   -1    0    0    0    0  0.00000000000E+00  0.00000000000E+00  0.45593999997E+02  0.45594000000E+02  0.51100000000E-03 0.  1.
         11   -1    0    0    0    0 -0.00000000000E+00 -0.00000000000E+00 -0.45593999997E+02  0.45594000000E+02  0.51100000000E-03 0. -1.
    9900012    2    1    2    0    0 -0.10724253455E+02 -0.28457956641E+02 -0.30963791117E+02  0.47787294146E+02  0.20000105328E+02 0.  0.
        -12    1    1    2    0    0  0.10724253455E+02  0.28457956641E+02  0.30963791117E+02  0.43400705854E+02  0.00000000000E+00 0.  1.
         11    1    3    3    0    0 -0.68412369411E+01 -0.27303811252E+01 -0.95062316362E+01  0.12026052725E+02  0.51100000000E-03 0. -1.
        -11    1    3    3    0    0  0.35746720548E+00 -0.19637003267E+02 -0.20307531395E+02  0.28251292214E+02  0.51100000000E-03 0.  1.
         12    1    3    3    0    0 -0.42404837195E+01 -0.60905722485E+01 -0.11500280853E+01  0.75099492066E+01  0.00000000000E+00 0. -1.
</event>
<event>
 7    1  0.2642243E-009  0.4778728E+02  0.7816164E-02  0.1312668E+00
        -11   -1    0    0    0    0  0.00000000000E+00  0.00000000000E+00  0.45593999997E+02  0.45594000000E+02  0.51100000000E-03 0.  1.
         11   -1    0    0    0    0 -0.00000000000E+00 -0.00000000000E+00 -0.45593999997E+02  0.45594000000E+02  0.51100000000E-03 0. -1.
    9900012    2    1    2    0    0  0.29510587367E+02  0.31769085061E+02 -0.18636493650E+01  0.47787277410E+02  0.20000029024E+02 0.  0.
        -12    1    1    2    0    0 -0.29510587367E+02 -0.31769085061E+02  0.18636493650E+01  0.43400722590E+02  0.00000000000E+00 0.  1.
         11    1    3    3    0    0  0.20735781482E+02  0.22912652292E+02 -0.93043019553E+01  0.32272779611E+02  0.51100000000E-03 0. -1.
        -11    1    3    3    0    0  0.81739840780E+01  0.85211342258E+01  0.47334275576E+01  0.12721205953E+02  0.51100000000E-03 0.  1.
         12    1    3    3    0    0  0.60082180717E+00  0.33529854344E+00  0.27072250327E+01  0.27932918456E+01  0.00000000000E+00 0. -1.
</event>
<event>
 7    1  0.2642243E-009  0.4778727E+02  0.7816164E-02  0.1312668E+00
        -11   -1    0    0    0    0  0.00000000000E+00  0.00000000000E+00  0.45593999997E+02  0.45594000000E+02  0.51100000000E-03 0.  1.
         11   -1    0    0    0    0 -0.00000000000E+00 -0.00000000000E+00 -0.45593999997E+02  0.45594000000E+02  0.51100000000E-03 0. -1.
    9900012    2    1    2    0    0 -0.35251124119E+00 -0.16655131375E+02 -0.40076249829E+02  0.47787268835E+02  0.19999989926E+02 0.  0.
        -12    1    1    2    0    0  0.35251124119E+00  0.16655131375E+02  0.40076249829E+02  0.43400731165E+02  0.00000000000E+00 0.  1.
         11    1    3    3    0    0 -0.35267079139E+01 -0.18302101151E+02 -0.33779802426E+02  0.38580819424E+02  0.51100000000E-03 0. -1.
        -11    1    3    3    0    0  0.41103811958E+00  0.19447154464E+01  0.33544132777E+00  0.20157856157E+01  0.51100000000E-03 0.  1.
        -12    1    3    3    0    0  0.27631585531E+01 -0.29774567037E+00 -0.66318887308E+01  0.71906637949E+01  0.00000000000E+00 0.  1.
</event>
<event>
 7    1  0.2642243E-009  0.4778727E+02  0.7816164E-02  0.1312668E+00
        -11   -1    0    0    0    0  0.00000000000E+00  0.00000000000E+00  0.45593999997E+02  0.45594000000E+02  0.51100000000E-03 0. -1.
         11   -1    0    0    0    0 -0.00000000000E+00 -0.00000000000E+00 -0.45593999997E+02  0.45594000000E+02  0.51100000000E-03 0.  1.
    9900012    2    1    2    0    0  0.27351795747E+01  0.40184521716E+02  0.16166206343E+02  0.47787271661E+02  0.20000002811E+02 0.  0.
        -12    1    1    2    0    0 -0.27351795747E+01 -0.40184521716E+02 -0.16166206343E+02  0.43400728339E+02  0.00000000000E+00 0.  1.
         11    1    3    3    0    0  0.24473816925E+01  0.20495108693E+02  0.70847207113E+01  0.21822750177E+02  0.51100000000E-03 0. -1.
        -11    1    3    3    0    0 -0.23685287803E+01  0.42654185982E+00  0.57535962318E+01  0.62366446428E+01  0.51100000000E-03 0.  1.
        -12    1    3    3    0    0  0.26563266624E+01  0.19262871164E+02  0.33278893996E+01  0.19727876841E+02  0.00000000000E+00 0.  1.
</event>
<event>
 7    1  0.2642243E-009  0.4778727E+02  0.7816164E-02  0.1312668E+00
        -11   -1    0    0    0    0  0.00000000000E+00  0.00000000000E+00  0.45593999997E+02  0.45594000000E+02  0.51100000000E-03 0.  1.
         11   -1    0    0    0    0 -0.00000000000E+00 -0.00000000000E+00 -0.45593999997E+02  0.45594000000E+02  0.51100000000E-03 0. -1.
    9900012    2    1    2    0    0  0.34899456719E+02  0.25744044438E+02 -0.17015718952E+01  0.47787271317E+02  0.20000001241E+02 0.  0.
        -12    1    1    2    0    0 -0.34899456719E+02 -0.25744044438E+02  0.17015718952E+01  0.43400728683E+02  0.00000000000E+00 0.  1.
         11    1    3    3    0    0  0.23476548098E+02  0.14634469388E+02  0.38440159906E+01  0.27930135411E+02  0.51100000000E-03 0. -1.
        -11    1    3    3    0    0  0.85027977003E+01  0.45188710349E+01 -0.77047213345E+01  0.12332092088E+02  0.51100000000E-03 0.  1.
        -12    1    3    3    0    0  0.29201109208E+01  0.65907040158E+01  0.21591334487E+01  0.75250438180E+01  0.00000000000E+00 0.  1.
</event>
<event>
 7    1  0.2642243E-009  0.4778727E+02  0.7816164E-02  0.1312668E+00
        -11   -1    0    0    0    0  0.00000000000E+00  0.00000000000E+00  0.45593999997E+02  0.45594000000E+02  0.51100000000E-03 0.  1.
         11   -1    0    0    0    0 -0.00000000000E+00 -0.00000000000E+00 -0.45593999997E+02  0.45594000000E+02  0.51100000000E-03 0. -1.
    9900012    2    1    2    0    0 -0.31476779680E+02  0.24388707169E+02 -0.17263460809E+02  0.47787265266E+02  0.19999973652E+02 0.  0.
        -12    1    1    2    0    0  0.31476779680E+02 -0.24388707169E+02  0.17263460809E+02  0.43400734734E+02  0.00000000000E+00 0.  1.
         11    1    3    3    0    0 -0.23857600025E+02  0.22827254549E+02 -0.91163153717E+01  0.34254573934E+02  0.51100000000E-03 0. -1.
        -11    1    3    3    0    0 -0.89876949253E+00 -0.27003065669E+01 -0.20409114698E+01  0.35021082286E+01  0.51100000000E-03 0.  1.
        -12    1    3    3    0    0 -0.67204101625E+01  0.42617591865E+01 -0.61062339679E+01  0.10030583103E+02  0.00000000000E+00 0.  1.
</event>
<event>
 7    1  0.2642243E-009  0.4778727E+02  0.7816164E-02  0.1312668E+00
        -11   -1    0    0    0    0  0.00000000000E+00  0.00000000000E+00  0.45593999997E+02  0.45594000000E+02  0.51100000000E-03 0.  1.
         11   -1    0    0    0    0 -0.00000000000E+00 -0.00000000000E+00 -0.45593999997E+02  0.45594000000E+02  0.51100000000E-03 0. -1.
    9900012    2    1    2    0    0 -0.18638125156E+02  0.30322522139E+02 -0.24835216175E+02  0.47787273962E+02  0.20000013301E+02 0.  0.
        -12    1    1    2    0    0  0.18638125156E+02 -0.30322522139E+02  0.24835216175E+02  0.43400726038E+02  0.00000000000E+00 0.  1.
         11    1    3    3    0    0 -0.73548846139E+01  0.59678178005E-01 -0.38806662883E+01  0.83160964564E+01  0.51100000000E-03 0. -1.
        -11    1    3    3    0    0  0.95539079113E+00  0.48703612538E+01 -0.51608567398E+01  0.71601419578E+01  0.51100000000E-03 0.  1.
         12    1    3    3    0    0 -0.12238631333E+02  0.25392482707E+02 -0.15793693147E+02  0.32311035548E+02  0.00000000000E+00 0. -1.
</event>
<event>
 7    1  0.2642243E-009  0.4778726E+02  0.7816164E-02  0.1312668E+00
        -11   -1    0    0    0    0  0.00000000000E+00  0.00000000000E+00  0.45593999997E+02  0.45594000000E+02  0.51100000000E-03 0.  1.
         11   -1    0    0    0    0 -0.00000000000E+00 -0.00000000000E+00 -0.45593999997E+02  0.45594000000E+02  0.51100000000E-03 0. -1.
    9900012    2    1    2    0    0  0.18390218682E+02 -0.16620638369E+02 -0.35625527078E+02  0.47787263341E+02  0.19999964876E+02 0.  0.
        -12    1    1    2    0    0 -0.18390218682E+02  0.16620638369E+02  0.35625527078E+02  0.43400736659E+02  0.00000000000E+00 0.  1.
         11    1    3    3    0    0  0.12008221137E+02 -0.41420387476E+00 -0.14337376868E+02  0.18706397714E+02  0.51100000000E-03 0. -1.
        -11    1    3    3    0    0  0.39973455659E+00 -0.56244038817E+01 -0.14623534509E+01  0.58251338712E+01  0.51100000000E-03 0.  1.
         12    1    3    3    0    0  0.59822629885E+01 -0.10582030612E+02 -0.19825796759E+02  0.23255731755E+02  0.00000000000E+00 0. -1.
</event>
<event>
 7    1  0.2642243E-009  0.4778728E+02  0.7816164E-02  0.1312668E+00
        -11   -1    0    0    0    0  0.00000000000E+00  0.00000000000E+00  0.45593999997E+02  0.45594000000E+02  0.51100000000E-03 0.  1.
         11   -1    0    0    0    0 -0.00000000000E+00 -0.00000000000E+00 -0.45593999997E+02  0.45594000000E+02  0.51100000000E-03 0. -1.
    9900012    2    1    2    0    0  0.32063719938E+02 -0.23519315084E+02 -0.17389146497E+02  0.47787277262E+02  0.20000028346E+02 0.  0.
        -12    1    1    2    0    0 -0.32063719938E+02  0.23519315084E+02  0.17389146497E+02  0.43400722738E+02  0.00000000000E+00 0.  1.
         11    1    3    3    0    0  0.15907657596E+02 -0.21352313868E+02 -0.11844279337E+02  0.29142097230E+02  0.51100000000E-03 0. -1.
        -11    1    3    3    0    0  0.14181505583E+02 -0.29676936696E+01 -0.21647283577E+01  0.14649517243E+02  0.51100000000E-03 0.  1.
         12    1    3    3    0    0  0.19745567598E+01  0.80069245280E+00 -0.33801388025E+01  0.39956627893E+01  0.00000000000E+00 0. -1.
</event>
<event>
 7    1  0.2642243E-009  0.4778728E+02  0.7816164E-02  0.1312668E+00
        -11   -1    0    0    0    0  0.00000000000E+00  0.00000000000E+00  0.45593999997E+02  0.45594000000E+02  0.51100000000E-03 0. -1.
         11   -1    0    0    0    0 -0.00000000000E+00 -0.00000000000E+00 -0.45593999997E+02  0.45594000000E+02  0.51100000000E-03 0.  1.
    9900012    2    1    2    0    0 -0.42676547873E+02 -0.78614428789E+01 -0.72988400934E+00  0.47787277043E+02  0.20000027349E+02 0.  0.
        -12    1    1    2    0    0  0.42676547873E+02  0.78614428789E+01  0.72988400934E+00  0.43400722957E+02  0.00000000000E+00 0.  1.
         11    1    3    3    0    0 -0.23392448917E+02 -0.69724505230E+01  0.91355039033E+01  0.26062984565E+02  0.51100000000E-03 0. -1.
        -11    1    3    3    0    0 -0.12612601014E+02 -0.10451023999E+01 -0.69898160273E+01  0.14457782393E+02  0.51100000000E-03 0.  1.
         12    1    3    3    0    0 -0.66714979427E+01  0.15611004404E+00 -0.28755718853E+01  0.72665100848E+01  0.00000000000E+00 0. -1.
</event>
<event>
 7    1  0.2642243E-009  0.4778726E+02  0.7816164E-02  0.1312668E+00
        -11   -1    0    0    0    0  0.00000000000E+00  0.00000000000E+00  0.45593999997E+02  0.45594000000E+02  0.51100000000E-03 0.  1.
         11   -1    0    0    0    0 -0.00000000000E+00 -0.00000000000E+00 -0.45593999997E+02  0.45594000000E+02  0.51100000000E-03 0. -1.
    9900012    2    1    2    0    0  0.26319584090E+02  0.30280363187E+02 -0.16553039147E+02  0.47787262605E+02  0.19999961523E+02 0.  0.
        -12    1    1    2    0    0 -0.26319584090E+02 -0.30280363187E+02  0.16553039147E+02  0.43400737395E+02  0.00000000000E+00 0.  1.
         11    1    3    3    0    0 -0.91261291340E+00 -0.17482980162E+01 -0.48344605754E+00  0.20305488506E+01  0.51100000000E-03 0.  1.
        -11    1    3    3    0    0  0.17800121560E+02  0.18381548224E+02 -0.13622244564E+02  0.28987776560E+02  0.51100000000E-03 0. -1.
        -12    1    3    3    0    0  0.94320754433E+01  0.13647112979E+02 -0.24473485246E+01  0.16768937195E+02  0.00000000000E+00 0.  1.
</event>
<event>
 7    1  0.2642243E-009  0.4778727E+02  0.7816164E-02  0.1312668E+00
        -11   -1    0    0    0    0  0.00000000000E+00  0.00000000000E+00  0.45593999997E+02  0.45594000000E+02  0.51100000000E-03 0. -1.
         11   -1    0    0    0    0 -0.00000000000E+00 -0.00000000000E+00 -0.45593999997E+02  0.45594000000E+02  0.51100000000E-03 0.  1.
    9900012    2    1    2    0    0 -0.36905915586E+02 -0.74037237693E+01 -0.21604668802E+02  0.47787269074E+02  0.19999991016E+02 0.  0.
        -12    1    1    2    0    0  0.36905915586E+02  0.74037237693E+01  0.21604668802E+02  0.43400730926E+02  0.00000000000E+00 0.  1.
         11    1    3    3    0    0 -0.41562872126E+01 -0.54676695811E+01 -0.41898490768E+01  0.80451830053E+01  0.51100000000E-03 0. -1.
        -11    1    3    3    0    0 -0.29234429356E+02  0.32963180184E+01 -0.14385431342E+02  0.32748407708E+02  0.51100000000E-03 0.  1.
        -12    1    3    3    0    0 -0.35151990171E+01 -0.52323722066E+01 -0.30293883827E+01  0.69936783606E+01  0.00000000000E+00 0.  1.
</event>
<event>
 7    1  0.2642243E-009  0.4778726E+02  0.7816164E-02  0.1312668E+00
        -11   -1    0    0    0    0  0.00000000000E+00  0.00000000000E+00  0.45593999997E+02  0.45594000000E+02  0.51100000000E-03 0. -1.
         11   -1    0    0    0    0 -0.00000000000E+00 -0.00000000000E+00 -0.45593999997E+02  0.45594000000E+02  0.51100000000E-03 0.  1.
    9900012    2    1    2    0    0  0.16182314230E+01 -0.29154631530E+02  0.32109386293E+02  0.47787263823E+02  0.19999967073E+02 0.  0.
        -12    1    1    2    0    0 -0.16182314230E+01  0.29154631530E+02 -0.32109386293E+02  0.43400736177E+02  0.00000000000E+00 0.  1.
         11    1    3    3    0    0  0.38840180901E+01 -0.19191864275E+02  0.27360759073E+02  0.33645570112E+02  0.51100000000E-03 0. -1.
        -11    1    3    3    0    0 -0.44875189690E+01 -0.99165857993E+01  0.29353101960E+01  0.11273533014E+02  0.51100000000E-03 0.  1.
         12    1    3    3    0    0  0.22217323019E+01 -0.46181455868E-01  0.18133170248E+01  0.28681606965E+01  0.00000000000E+00 0. -1.
</event>
<event>
 7    1  0.2642243E-009  0.4778725E+02  0.7816164E-02  0.1312668E+00
        -11   -1    0    0    0    0  0.00000000000E+00  0.00000000000E+00  0.45593999997E+02  0.45594000000E+02  0.51100000000E-03 0.  1.
         11   -1    0    0    0    0 -0.00000000000E+00 -0.00000000000E+00 -0.45593999997E+02  0.45594000000E+02  0.51100000000E-03 0. -1.
    9900012    2    1    2    0    0 -0.29941974071E+02 -0.25660918256E+02 -0.18127898859E+02  0.47787248232E+02  0.19999895988E+02 0.  0.
        -12    1    1    2    0    0  0.29941974071E+02  0.25660918256E+02  0.18127898859E+02  0.43400751768E+02  0.00000000000E+00 0.  1.
         11    1    3    3    0    0 -0.21000613733E+02 -0.17970098636E+02 -0.47694995516E+01  0.28048143403E+02  0.51100000000E-03 0. -1.
        -11    1    3    3    0    0 -0.13360163367E+01 -0.64235679928E+01 -0.43042712567E+01  0.78469049135E+01  0.51100000000E-03 0.  1.
         12    1    3    3    0    0 -0.76053440012E+01 -0.12672516273E+01 -0.90541280504E+01  0.11892199915E+02  0.00000000000E+00 0. -1.
</event>
<event>
 7    1  0.2642243E-009  0.4778727E+02  0.7816164E-02  0.1312668E+00
        -11   -1    0    0    0    0  0.00000000000E+00  0.00000000000E+00  0.45593999997E+02  0.45594000000E+02  0.51100000000E-03 0.  1.
         11   -1    0    0    0    0 -0.00000000000E+00 -0.00000000000E+00 -0.45593999997E+02  0.45594000000E+02  0.51100000000E-03 0. -1.
    9900012    2    1    2    0    0 -0.41456555966E+00 -0.75108554905E+01 -0.42743868111E+02  0.47787273326E+02  0.20000010401E+02 0.  0.
        -12    1    1    2    0    0  0.41456555966E+00  0.75108554905E+01  0.42743868111E+02  0.43400726674E+02  0.00000000000E+00 0.  1.
         11    1    3    3    0    0 -0.80044002834E+01 -0.33301169706E+00 -0.25426007701E+02  0.26658266796E+02  0.51100000000E-03 0. -1.
        -11    1    3    3    0    0  0.70624692504E+01 -0.78633078160E+01 -0.17288900621E+02  0.20263666170E+02  0.51100000000E-03 0.  1.
         12    1    3    3    0    0  0.52736547338E+00  0.68546402256E+00 -0.28959789040E-01  0.86534035970E+00  0.00000000000E+00 0. -1.
</event>
<event>
 7    1  0.2642243E-009  0.4778727E+02  0.7816164E-02  0.1312668E+00
        -11   -1    0    0    0    0  0.00000000000E+00  0.00000000000E+00  0.45593999997E+02  0.45594000000E+02  0.51100000000E-03 0. -1.
         11   -1    0    0    0    0 -0.00000000000E+00 -0.00000000000E+00 -0.45593999997E+02  0.45594000000E+02  0.51100000000E-03 0.  1.
    9900012    2    1    2    0    0 -0.16276938682E+02  0.24577980057E+02  0.31852901559E+02  0.47787272192E+02  0.20000005233E+02 0.  0.
        -12    1    1    2    0    0  0.16276938682E+02 -0.24577980057E+02 -0.31852901559E+02  0.43400727808E+02  0.00000000000E+00 0.  1.
         11    1    3    3    0    0  0.33823620237E+01 -0.49588419695E-01  0.14560874790E+01  0.36828009556E+01  0.51100000000E-03 0. -1.
        -11    1    3    3    0    0  0.44130370551E-01 -0.23099655323E+00  0.18963496378E+00  0.30210689800E+00  0.51100000000E-03 0.  1.
         12    1    3    3    0    0 -0.19703431076E+02  0.24858565029E+02  0.30207179116E+02  0.43802364339E+02  0.00000000000E+00 0. -1.
</event>
<event>
 7    1  0.2642243E-009  0.4778727E+02  0.7816164E-02  0.1312668E+00
        -11   -1    0    0    0    0  0.00000000000E+00  0.00000000000E+00  0.45593999997E+02  0.45594000000E+02  0.51100000000E-03 0.  1.
         11   -1    0    0    0    0 -0.00000000000E+00 -0.00000000000E+00 -0.45593999997E+02  0.45594000000E+02  0.51100000000E-03 0. -1.
    9900012    2    1    2    0    0 -0.29850689559E+02 -0.14521465472E+02 -0.27958663062E+02  0.47787268822E+02  0.19999989867E+02 0.  0.
        -12    1    1    2    0    0  0.29850689559E+02  0.14521465472E+02  0.27958663062E+02  0.43400731178E+02  0.00000000000E+00 0.  1.
         11    1    3    3    0    0 -0.23034163459E+02 -0.76969874754E+01 -0.11328294775E+02  0.26798256757E+02  0.51100000000E-03 0. -1.
        -11    1    3    3    0    0  0.61739626392E+00 -0.43044706049E+01 -0.30781883014E+01  0.53277470675E+01  0.51100000000E-03 0.  1.
         12    1    3    3    0    0 -0.74339223645E+01 -0.25200073913E+01 -0.13552179985E+02  0.15661264998E+02  0.00000000000E+00 0. -1.
</event>
<event>
 7    1  0.2656908E-009  0.4778727E+02  0.7816164E-02  0.1312668E+00
        -11   -1    0    0    0    0  0.00000000000E+00  0.00000000000E+00  0.45593999997E+02  0.45594000000E+02  0.51100000000E-03 0. -1.
         11   -1    0    0    0    0 -0.00000000000E+00 -0.00000000000E+00 -0.45593999997E+02  0.45594000000E+02  0.51100000000E-03 0.  1.
    9900012    2    1    2    0    0  0.64481872980E+01  0.21970258445E+02  0.36869393516E+02  0.47787267819E+02  0.19999985296E+02 0.  0.
        -12    1    1    2    0    0 -0.64481872980E+01 -0.21970258445E+02 -0.36869393516E+02  0.43400732181E+02  0.00000000000E+00 0.  1.
         11    1    3    3    0    0  0.60951768718E+01  0.10972826410E+02  0.23603928739E+02  0.26733865278E+02  0.51100000000E-03 0. -1.
        -11    1    3    3    0    0 -0.67210253505E+00  0.82162100852E+01  0.84810807019E+00  0.82871658329E+01  0.51100000000E-03 0.  1.
        -12    1    3    3    0    0  0.10251129612E+01  0.27812219501E+01  0.12417356707E+02  0.12766236709E+02  0.00000000000E+00 0.  1.
</event>
<event>
 7    1  0.2642243E-009  0.4778729E+02  0.7816164E-02  0.1312668E+00
        -11   -1    0    0    0    0  0.00000000000E+00  0.00000000000E+00  0.45593999997E+02  0.45594000000E+02  0.51100000000E-03 0.  1.
         11   -1    0    0    0    0 -0.00000000000E+00 -0.00000000000E+00 -0.45593999997E+02  0.45594000000E+02  0.51100000000E-03 0. -1.
    9900012    2    1    2    0    0  0.37061722224E+02  0.21860749629E+02 -0.56708383622E+01  0.47787285302E+02  0.20000065006E+02 0.  0.
        -12    1    1    2    0    0 -0.37061722224E+02 -0.21860749629E+02  0.56708383622E+01  0.43400714698E+02  0.00000000000E+00 0.  1.
         11    1    3    3    0    0  0.25863467482E+02  0.69512666135E+01 -0.18040426387E+01  0.26842012366E+02  0.51100000000E-03 0. -1.
        -11    1    3    3    0    0 -0.14110687213E+01  0.66112457082E+00 -0.25836447851E+00  0.15795420537E+01  0.51100000000E-03 0.  1.
         12    1    3    3    0    0  0.12609323463E+02  0.14248358445E+02 -0.36084312451E+01  0.19365730882E+02  0.00000000000E+00 0. -1.
</event>
<event>
 7    1  0.2642243E-009  0.4778728E+02  0.7816164E-02  0.1312668E+00
        -11   -1    0    0    0    0  0.00000000000E+00  0.00000000000E+00  0.45593999997E+02  0.45594000000E+02  0.51100000000E-03 0. -1.
         11   -1    0    0    0    0 -0.00000000000E+00 -0.00000000000E+00 -0.45593999997E+02  0.45594000000E+02  0.51100000000E-03 0.  1.
    9900012    2    1    2    0    0  0.95420174733E+01 -0.12198859516E+01  0.42321207311E+02  0.47787276418E+02  0.20000024499E+02 0.  0.
        -12    1    1    2    0    0 -0.95420174733E+01  0.12198859516E+01 -0.42321207311E+02  0.43400723582E+02  0.00000000000E+00 0.  1.
         11    1    3    3    0    0  0.67712874345E+01 -0.50585227126E+01  0.98844634513E+01  0.13005445149E+02  0.51100000000E-03 0. -1.
        -11    1    3    3    0    0  0.63376242438E+01 -0.10140446130E+01  0.19066160644E+02  0.20117461308E+02  0.51100000000E-03 0.  1.
         12    1    3    3    0    0 -0.35668942049E+01  0.48526813740E+01  0.13370583216E+02  0.14664369960E+02  0.00000000000E+00 0. -1.
</event>
<event>
 7    1  0.2642243E-009  0.4778727E+02  0.7816164E-02  0.1312668E+00
        -11   -1    0    0    0    0  0.00000000000E+00  0.00000000000E+00  0.45593999997E+02  0.45594000000E+02  0.51100000000E-03 0.  1.
         11   -1    0    0    0    0 -0.00000000000E+00 -0.00000000000E+00 -0.45593999997E+02  0.45594000000E+02  0.51100000000E-03 0. -1.
    9900012    2    1    2    0    0 -0.26066128897E+02  0.14177530512E+02  0.31672985809E+02  0.47787268703E+02  0.19999989323E+02 0.  0.
        -12    1    1    2    0    0  0.26066128897E+02 -0.14177530512E+02 -0.31672985809E+02  0.43400731297E+02  0.00000000000E+00 0.  1.
         11    1    3    3    0    0 -0.22913291787E+02  0.98355661101E+01  0.32148428710E+02  0.40685117304E+02  0.51100000000E-03 0. -1.
        -11    1    3    3    0    0 -0.13571699261E+01  0.20203413422E+01  0.20868556598E+01  0.32060343344E+01  0.51100000000E-03 0.  1.
         12    1    3    3    0    0 -0.17956671839E+01  0.23216230593E+01 -0.25622985609E+01  0.38961170645E+01  0.00000000000E+00 0. -1.
</event>
<event>
 7    1  0.2642243E-009  0.4778727E+02  0.7816164E-02  0.1312668E+00
        -11   -1    0    0    0    0  0.00000000000E+00  0.00000000000E+00  0.45593999997E+02  0.45594000000E+02  0.51100000000E-03 0. -1.
         11   -1    0    0    0    0 -0.00000000000E+00 -0.00000000000E+00 -0.45593999997E+02  0.45594000000E+02  0.51100000000E-03 0.  1.
    9900012    2    1    2    0    0  0.17719800229E+02 -0.26650927062E+02  0.29314844182E+02  0.47787270481E+02  0.19999997431E+02 0.  0.
        -12    1    1    2    0    0 -0.17719800229E+02  0.26650927062E+02 -0.29314844182E+02  0.43400729519E+02  0.00000000000E+00 0.  1.
         11    1    3    3    0    0  0.17467718116E+02 -0.17668494433E+02  0.23058380121E+02  0.33896692549E+02  0.51100000000E-03 0. -1.
        -11    1    3    3    0    0  0.21015871931E+01 -0.92252089933E+01  0.71138811990E+01  0.11837586565E+02  0.51100000000E-03 0.  1.
         12    1    3    3    0    0 -0.18495050803E+01  0.24277636477E+00 -0.85741713816E+00  0.20529913673E+01  0.00000000000E+00 0. -1.
</event>
<event>
 7    1  0.2642243E-009  0.4778727E+02  0.7816164E-02  0.1312668E+00
        -11   -1    0    0    0    0  0.00000000000E+00  0.00000000000E+00  0.45593999997E+02  0.45594000000E+02  0.51100000000E-03 0.  1.
         11   -1    0    0    0    0 -0.00000000000E+00 -0.00000000000E+00 -0.45593999997E+02  0.45594000000E+02  0.51100000000E-03 0. -1.
    9900012    2    1    2    0    0 -0.33684975400E+02  0.17531450917E+01 -0.27310660972E+02  0.47787270880E+02  0.19999999250E+02 0.  0.
        -12    1    1    2    0    0  0.33684975400E+02 -0.17531450917E+01  0.27310660972E+02  0.43400729120E+02  0.00000000000E+00 0.  1.
         11    1    3    3    0    0 -0.27117867778E+02  0.57825366830E+01 -0.18968292531E+02  0.33594830035E+02  0.51100000000E-03 0. -1.
        -11    1    3    3    0    0 -0.74692698347E+01 -0.47554374007E+01 -0.91866918047E+01  0.12759290079E+02  0.51100000000E-03 0.  1.
         12    1    3    3    0    0  0.90216221209E+00  0.72604580946E+00  0.84432336413E+00  0.14331507658E+01  0.00000000000E+00 0. -1.
</event>
<event>
 7    1  0.2642243E-009  0.4778728E+02  0.7816164E-02  0.1312668E+00
        -11   -1    0    0    0    0  0.00000000000E+00  0.00000000000E+00  0.45593999997E+02  0.45594000000E+02  0.51100000000E-03 0.  1.
         11   -1    0    0    0    0 -0.00000000000E+00 -0.00000000000E+00 -0.45593999997E+02  0.45594000000E+02  0.51100000000E-03 0. -1.
    9900012    2    1    2    0    0  0.11671969253E+02 -0.92181084712E+01 -0.40772714703E+02  0.47787278182E+02  0.20000032543E+02 0.  0.
        -12    1    1    2    0    0 -0.11671969253E+02  0.92181084712E+01  0.40772714703E+02  0.43400721818E+02  0.00000000000E+00 0.  1.
         11    1    3    3    0    0 -0.13445849518E+01 -0.84620830379E+01 -0.99405208161E+01  0.13123593730E+02  0.51100000000E-03 0. -1.
        -11    1    3    3    0    0  0.79013263430E+01 -0.16590924701E+01 -0.84513705868E+01  0.11687994304E+02  0.51100000000E-03 0.  1.
         12    1    3    3    0    0  0.51152278617E+01  0.90306703683E+00 -0.22380823301E+02  0.22975690148E+02  0.00000000000E+00 0. -1.
</event>
<event>
 7    1  0.2642243E-009  0.4778728E+02  0.7816164E-02  0.1312668E+00
        -11   -1    0    0    0    0  0.00000000000E+00  0.00000000000E+00  0.45593999997E+02  0.45594000000E+02  0.51100000000E-03 0.  1.
         11   -1    0    0    0    0 -0.00000000000E+00 -0.00000000000E+00 -0.45593999997E+02  0.45594000000E+02  0.51100000000E-03 0. -1.
    9900012    2    1    2    0    0 -0.29488013837E+02  0.61554672846E+01 -0.31244041337E+02  0.47787275851E+02  0.20000021917E+02 0.  0.
        -12    1    1    2    0    0  0.29488013837E+02 -0.61554672846E+01  0.31244041337E+02  0.43400724149E+02  0.00000000000E+00 0.  1.
         11    1    3    3    0    0 -0.15234471175E+02  0.80334122015E+01 -0.82253212187E+01  0.19086139814E+02  0.51100000000E-03 0. -1.
        -11    1    3    3    0    0 -0.35342567509E+01 -0.41581355044E+01 -0.40561885600E+01  0.67995387748E+01  0.51100000000E-03 0.  1.
         12    1    3    3    0    0 -0.10719285911E+02  0.22801905875E+01 -0.18962531558E+02  0.21901597263E+02  0.00000000000E+00 0. -1.
</event>
<event>
 7    1  0.2642243E-009  0.4778727E+02  0.7816164E-02  0.1312668E+00
        -11   -1    0    0    0    0  0.00000000000E+00  0.00000000000E+00  0.45593999997E+02  0.45594000000E+02  0.51100000000E-03 0.  1.
         11   -1    0    0    0    0 -0.00000000000E+00 -0.00000000000E+00 -0.45593999997E+02  0.45594000000E+02  0.51100000000E-03 0. -1.
    9900012    2    1    2    0    0 -0.10343810826E+02 -0.26263587661E+02 -0.32967449538E+02  0.47787272031E+02  0.20000004496E+02 0.  0.
        -12    1    1    2    0    0  0.10343810826E+02  0.26263587661E+02  0.32967449538E+02  0.43400727969E+02  0.00000000000E+00 0.  1.
         11    1    3    3    0    0 -0.11312585275E+02 -0.93323411159E+01 -0.14989876855E+02  0.20970540878E+02  0.51100000000E-03 0. -1.
        -11    1    3    3    0    0  0.55302968437E+01 -0.11692066560E+02 -0.11152747707E+02  0.17078418701E+02  0.51100000000E-03 0.  1.
        -12    1    3    3    0    0 -0.45615223940E+01 -0.52391799853E+01 -0.68248249752E+01  0.97383124519E+01  0.00000000000E+00 0.  1.
</event>
<event>
 7    1  0.2642243E-009  0.4778727E+02  0.7816164E-02  0.1312668E+00
        -11   -1    0    0    0    0  0.00000000000E+00  0.00000000000E+00  0.45593999997E+02  0.45594000000E+02  0.51100000000E-03 0.  1.
         11   -1    0    0    0    0 -0.00000000000E+00 -0.00000000000E+00 -0.45593999997E+02  0.45594000000E+02  0.51100000000E-03 0. -1.
    9900012    2    1    2    0    0 -0.32973443076E+02  0.10825171651E+02 -0.26061293850E+02  0.47787270436E+02  0.19999997226E+02 0.  0.
        -12    1    1    2    0    0  0.32973443076E+02 -0.10825171651E+02  0.26061293850E+02  0.43400729564E+02  0.00000000000E+00 0.  1.
         11    1    3    3    0    0 -0.23137303081E+02  0.49336992874E+01 -0.16461597861E+02  0.28821179485E+02  0.51100000000E-03 0. -1.
        -11    1    3    3    0    0  0.26700734704E+01  0.16283922065E+01 -0.15039742892E+01  0.34702870831E+01  0.51100000000E-03 0.  1.
        -12    1    3    3    0    0 -0.12506213466E+02  0.42630801569E+01 -0.80957216995E+01  0.15495803868E+02  0.00000000000E+00 0.  1.
</event>
<event>
 7    1  0.2642243E-009  0.4778727E+02  0.7816164E-02  0.1312668E+00
        -11   -1    0    0    0    0  0.00000000000E+00  0.00000000000E+00  0.45593999997E+02  0.45594000000E+02  0.51100000000E-03 0.  1.
         11   -1    0    0    0    0 -0.00000000000E+00 -0.00000000000E+00 -0.45593999997E+02  0.45594000000E+02  0.51100000000E-03 0. -1.
    9900012    2    1    2    0    0 -0.26831774059E+02  0.20128651327E+02 -0.27541180401E+02  0.47787270498E+02  0.19999997510E+02 0.  0.
        -12    1    1    2    0    0  0.26831774059E+02 -0.20128651327E+02  0.27541180401E+02  0.43400729502E+02  0.00000000000E+00 0.  1.
         11    1    3    3    0    0 -0.23797617100E+02  0.11279751333E+02 -0.11431733940E+02  0.28709648394E+02  0.51100000000E-03 0. -1.
        -11    1    3    3    0    0 -0.17860038710E+01  0.87756751518E+01 -0.14444878534E+02  0.16995787723E+02  0.51100000000E-03 0.  1.
         12    1    3    3    0    0 -0.12481530880E+01  0.73224842929E-01 -0.16645679259E+01  0.20818343807E+01  0.00000000000E+00 0. -1.
</event>
<event>
 7    1  0.2642243E-009  0.4778727E+02  0.7816164E-02  0.1312668E+00
        -11   -1    0    0    0    0  0.00000000000E+00  0.00000000000E+00  0.45593999997E+02  0.45594000000E+02  0.51100000000E-03 0. -1.
         11   -1    0    0    0    0 -0.00000000000E+00 -0.00000000000E+00 -0.45593999997E+02  0.45594000000E+02  0.51100000000E-03 0.  1.
    9900012    2    1    2    0    0  0.18503936585E+01 -0.38177494666E+02  0.20559139231E+02  0.47787271186E+02  0.20000000645E+02 0.  0.
        -12    1    1    2    0    0 -0.18503936585E+01  0.38177494666E+02 -0.20559139231E+02  0.43400728814E+02  0.00000000000E+00 0.  1.
         11    1    3    3    0    0 -0.16887636308E+01  0.60277551371E+00 -0.87279536621E+00  0.19942499675E+01  0.51100000000E-03 0. -1.
        -11    1    3    3    0    0  0.68348665618E+01 -0.18273397230E+02  0.12589266919E+02  0.23219002757E+02  0.51100000000E-03 0.  1.
         12    1    3    3    0    0 -0.32957092726E+01 -0.20506872950E+02  0.88426676791E+01  0.22574018461E+02  0.00000000000E+00 0. -1.
</event>
<event>
 7    1  0.2642243E-009  0.4778727E+02  0.7816164E-02  0.1312668E+00
        -11   -1    0    0    0    0  0.00000000000E+00  0.00000000000E+00  0.45593999997E+02  0.45594000000E+02  0.51100000000E-03 0.  1.
         11   -1    0    0    0    0 -0.00000000000E+00 -0.00000000000E+00 -0.45593999997E+02  0.45594000000E+02  0.51100000000E-03 0. -1.
    9900012    2    1    2    0    0  0.23166677736E+02  0.11405479072E+02 -0.34883281856E+02  0.47787271167E+02  0.20000000560E+02 0.  0.
        -12    1    1    2    0    0 -0.23166677736E+02 -0.11405479072E+02  0.34883281856E+02  0.43400728833E+02  0.00000000000E+00 0.  1.
         11    1    3    3    0    0  0.76922979849E+01  0.91152545833E+01 -0.66792779492E+01  0.13670115895E+02  0.51100000000E-03 0. -1.
        -11    1    3    3    0    0  0.17064592922E+02  0.10940906816E+01 -0.26250381716E+02  0.31328579708E+02  0.51100000000E-03 0.  1.
        -12    1    3    3    0    0 -0.15902131710E+01  0.11961338069E+01 -0.19536221903E+01  0.27885755639E+01  0.00000000000E+00 0.  1.
</event>
<event>
 7    1  0.2642243E-009  0.4778727E+02  0.7816164E-02  0.1312668E+00
        -11   -1    0    0    0    0  0.00000000000E+00  0.00000000000E+00  0.45593999997E+02  0.45594000000E+02  0.51100000000E-03 0.  1.
         11   -1    0    0    0    0 -0.00000000000E+00 -0.00000000000E+00 -0.45593999997E+02  0.45594000000E+02  0.51100000000E-03 0. -1.
    9900012    2    1    2    0    0  0.25076928816E+02  0.19121617927E+02 -0.29818358267E+02  0.47787272808E+02  0.20000008041E+02 0.  0.
        -12    1    1    2    0    0 -0.25076928816E+02 -0.19121617927E+02  0.29818358267E+02  0.43400727192E+02  0.00000000000E+00 0.  1.
         11    1    3    3    0    0  0.89039685738E+01  0.14890983640E+02 -0.77999602242E+01  0.19022655700E+02  0.51100000000E-03 0.  1.
        -11    1    3    3    0    0  0.41572371803E+01  0.74000321805E+00 -0.10572961724E+01  0.43529416713E+01  0.51100000000E-03 0. -1.
         12    1    3    3    0    0  0.12015723062E+02  0.34906310689E+01 -0.20961101871E+02  0.24411675436E+02  0.00000000000E+00 0. -1.
</event>
<event>
 7    1  0.2642243E-009  0.4778728E+02  0.7816164E-02  0.1312668E+00
        -11   -1    0    0    0    0  0.00000000000E+00  0.00000000000E+00  0.45593999997E+02  0.45594000000E+02  0.51100000000E-03 0. -1.
         11   -1    0    0    0    0 -0.00000000000E+00 -0.00000000000E+00 -0.45593999997E+02  0.45594000000E+02  0.51100000000E-03 0.  1.
    9900012    2    1    2    0    0 -0.31468936888E+01  0.43149290023E+02 -0.34436389815E+01  0.47787276287E+02  0.20000023903E+02 0.  0.
        -12    1    1    2    0    0  0.31468936888E+01 -0.43149290023E+02  0.34436389815E+01  0.43400723713E+02  0.00000000000E+00 0.  1.
         11    1    3    3    0    0  0.53601019494E+01  0.92644248758E+01 -0.48558416406E+01  0.11753274416E+02  0.51100000000E-03 0.  1.
        -11    1    3    3    0    0 -0.58480667292E+01  0.30766269483E+02  0.33591998019E+01  0.31496784692E+02  0.51100000000E-03 0. -1.
         12    1    3    3    0    0 -0.26589289090E+01  0.31185956640E+01 -0.19469971428E+01  0.45372171794E+01  0.00000000000E+00 0. -1.
</event>
<event>
 7    1  0.2642243E-009  0.4778727E+02  0.7816164E-02  0.1312668E+00
        -11   -1    0    0    0    0  0.00000000000E+00  0.00000000000E+00  0.45593999997E+02  0.45594000000E+02  0.51100000000E-03 0.  1.
         11   -1    0    0    0    0 -0.00000000000E+00 -0.00000000000E+00 -0.45593999997E+02  0.45594000000E+02  0.51100000000E-03 0. -1.
    9900012    2    1    2    0    0  0.26396673737E+02 -0.30849232894E+02 -0.15335050988E+02  0.47787270244E+02  0.19999996351E+02 0.  0.
        -12    1    1    2    0    0 -0.26396673737E+02  0.30849232894E+02  0.15335050988E+02  0.43400729756E+02  0.00000000000E+00 0.  1.
         11    1    3    3    0    0  0.23530055068E+02 -0.14556642960E+02 -0.12100192671E+02  0.30198907409E+02  0.51100000000E-03 0. -1.
        -11    1    3    3    0    0  0.12478530074E+01 -0.11658583873E+01  0.74520102519E+00  0.18632465581E+01  0.51100000000E-03 0.  1.
         12    1    3    3    0    0  0.16187656616E+01 -0.15126731547E+02 -0.39800593426E+01  0.15725116277E+02  0.00000000000E+00 0. -1.
</event>
<event>
 7    1  0.2642243E-009  0.4778728E+02  0.7816164E-02  0.1312668E+00
        -11   -1    0    0    0    0  0.00000000000E+00  0.00000000000E+00  0.45593999997E+02  0.45594000000E+02  0.51100000000E-03 0.  1.
         11   -1    0    0    0    0 -0.00000000000E+00 -0.00000000000E+00 -0.45593999997E+02  0.45594000000E+02  0.51100000000E-03 0. -1.
    9900012    2    1    2    0    0 -0.13439909925E+02  0.17347315824E+02 -0.37444118067E+02  0.47787279696E+02  0.20000039445E+02 0.  0.
        -12    1    1    2    0    0  0.13439909925E+02 -0.17347315824E+02  0.37444118067E+02  0.43400720304E+02  0.00000000000E+00 0.  1.
         11    1    3    3    0    0 -0.10242533161E+02  0.13740028547E+02 -0.11825470634E+02  0.20821614395E+02  0.51100000000E-03 0. -1.
        -11    1    3    3    0    0 -0.46505617944E+01  0.40898575590E+01 -0.23778486121E+02  0.24571753342E+02  0.51100000000E-03 0.  1.
        -12    1    3    3    0    0  0.14531850304E+01 -0.48257028219E+00 -0.18401613125E+01  0.23939119586E+01  0.00000000000E+00 0.  1.
</event>
<event>
 7    1  0.2642243E-009  0.4778728E+02  0.7816164E-02  0.1312668E+00
        -11   -1    0    0    0    0  0.00000000000E+00  0.00000000000E+00  0.45593999997E+02  0.45594000000E+02  0.51100000000E-03 0. -1.
         11   -1    0    0    0    0 -0.00000000000E+00 -0.00000000000E+00 -0.45593999997E+02  0.45594000000E+02  0.51100000000E-03 0.  1.
    9900012    2    1    2    0    0  0.25267783563E+02 -0.25008309042E+02  0.24894693030E+02  0.47787284011E+02  0.20000059119E+02 0.  0.
        -12    1    1    2    0    0 -0.25267783563E+02  0.25008309042E+02 -0.24894693030E+02  0.43400715989E+02  0.00000000000E+00 0.  1.
         11    1    3    3    0    0  0.26157792356E+01  0.11212016367E+01  0.73841783903E+01  0.79136265315E+01  0.51100000000E-03 0. -1.
        -11    1    3    3    0    0  0.17073417238E+02 -0.15890180274E+02  0.74835610128E+01  0.24494960522E+02  0.51100000000E-03 0.  1.
         12    1    3    3    0    0  0.55785870894E+01 -0.10239330405E+02  0.10026953627E+02  0.15378696957E+02  0.00000000000E+00 0. -1.
</event>
<event>
 7    1  0.2642243E-009  0.4778728E+02  0.7816164E-02  0.1312668E+00
        -11   -1    0    0    0    0  0.00000000000E+00  0.00000000000E+00  0.45593999997E+02  0.45594000000E+02  0.51100000000E-03 0. -1.
         11   -1    0    0    0    0 -0.00000000000E+00 -0.00000000000E+00 -0.45593999997E+02  0.45594000000E+02  0.51100000000E-03 0.  1.
    9900012    2    1    2    0    0  0.38823100109E+02  0.15133564377E+02  0.12139398691E+02  0.47787275658E+02  0.20000021033E+02 0.  0.
        -12    1    1    2    0    0 -0.38823100109E+02 -0.15133564377E+02 -0.12139398691E+02  0.43400724342E+02  0.00000000000E+00 0.  1.
         11    1    3    3    0    0  0.31281159855E+02  0.11180943408E+02  0.12036447331E+02  0.35332711784E+02  0.51100000000E-03 0. -1.
        -11    1    3    3    0    0 -0.47021791986E+00  0.43279003188E+01 -0.63630719574E+00  0.43996264808E+01  0.51100000000E-03 0.  1.
        -12    1    3    3    0    0  0.80121581738E+01 -0.37527934889E+00  0.73925855562E+00  0.80549373929E+01  0.00000000000E+00 0.  1.
</event>
<event>
 7    1  0.2642243E-009  0.4778727E+02  0.7816164E-02  0.1312668E+00
        -11   -1    0    0    0    0  0.00000000000E+00  0.00000000000E+00  0.45593999997E+02  0.45594000000E+02  0.51100000000E-03 0.  1.
         11   -1    0    0    0    0 -0.00000000000E+00 -0.00000000000E+00 -0.45593999997E+02  0.45594000000E+02  0.51100000000E-03 0. -1.
    9900012    2    1    2    0    0  0.81530009925E+01 -0.30002889129E+02 -0.30281660251E+02  0.47787265803E+02  0.19999976103E+02 0.  0.
        -12    1    1    2    0    0 -0.81530009925E+01  0.30002889129E+02  0.30281660251E+02  0.43400734197E+02  0.00000000000E+00 0.  1.
         11    1    3    3    0    0  0.88577119029E+00 -0.27804032046E+02 -0.20264688345E+02  0.34416658504E+02  0.51100000000E-03 0. -1.
        -11    1    3    3    0    0  0.25633345790E+01  0.66472381543E+00 -0.10522220743E+01  0.28495110930E+01  0.51100000000E-03 0.  1.
         12    1    3    3    0    0  0.47038952233E+01 -0.28635808983E+01 -0.89647498313E+01  0.10521096206E+02  0.00000000000E+00 0. -1.
</event>
<event>
 7    1  0.2642243E-009  0.4778727E+02  0.7816164E-02  0.1312668E+00
        -11   -1    0    0    0    0  0.00000000000E+00  0.00000000000E+00  0.45593999997E+02  0.45594000000E+02  0.51100000000E-03 0. -1.
         11   -1    0    0    0    0 -0.00000000000E+00 -0.00000000000E+00 -0.45593999997E+02  0.45594000000E+02  0.51100000000E-03 0.  1.
    9900012    2    1    2    0    0  0.38125429416E+01 -0.41051616571E+02  0.13559217021E+02  0.47787273359E+02  0.20000010553E+02 0.  0.
        -12    1    1    2    0    0 -0.38125429416E+01  0.41051616571E+02 -0.13559217021E+02  0.43400726641E+02  0.00000000000E+00 0.  1.
         11    1    3    3    0    0  0.45648499651E+01 -0.44330455768E+01 -0.23625193408E+01  0.67875802896E+01  0.51100000000E-03 0. -1.
        -11    1    3    3    0    0 -0.89148395406E+00  0.23784805608E+00  0.46368293532E+00  0.10326264880E+01  0.51100000000E-03 0.  1.
         12    1    3    3    0    0  0.13917693054E+00 -0.36856419050E+02  0.15458053426E+02  0.39967066581E+02  0.00000000000E+00 0. -1.
</event>
<event>
 7    1  0.2642243E-009  0.4778727E+02  0.7816164E-02  0.1312668E+00
        -11   -1    0    0    0    0  0.00000000000E+00  0.00000000000E+00  0.45593999997E+02  0.45594000000E+02  0.51100000000E-03 0. -1.
         11   -1    0    0    0    0 -0.00000000000E+00 -0.00000000000E+00 -0.45593999997E+02  0.45594000000E+02  0.51100000000E-03 0.  1.
    9900012    2    1    2    0    0 -0.33324996566E+02 -0.23299408889E+02  0.15172519060E+02  0.47787272065E+02  0.20000004651E+02 0.  0.
        -12    1    1    2    0    0  0.33324996566E+02  0.23299408889E+02 -0.15172519060E+02  0.43400727935E+02  0.00000000000E+00 0.  1.
         11    1    3    3    0    0 -0.75522854911E+01 -0.52680785896E+00 -0.15000459824E+01  0.77178158095E+01  0.51100000000E-03 0.  1.
        -11    1    3    3    0    0  0.13620373524E+00  0.22033726526E+00  0.27079732479E+01  0.27203344170E+01  0.51100000000E-03 0. -1.
         12    1    3    3    0    0 -0.25908914810E+02 -0.22992938295E+02  0.13964591794E+02  0.37349121838E+02  0.00000000000E+00 0. -1.
</event>
<event>
 7    1  0.2642243E-009  0.4778727E+02  0.7816164E-02  0.1312668E+00
        -11   -1    0    0    0    0  0.00000000000E+00  0.00000000000E+00  0.45593999997E+02  0.45594000000E+02  0.51100000000E-03 0. -1.
         11   -1    0    0    0    0 -0.00000000000E+00 -0.00000000000E+00 -0.45593999997E+02  0.45594000000E+02  0.51100000000E-03 0.  1.
    9900012    2    1    2    0    0 -0.26856662479E+02  0.31077218281E+02  0.14019611166E+02  0.47787270596E+02  0.19999997954E+02 0.  0.
        -12    1    1    2    0    0  0.26856662479E+02 -0.31077218281E+02 -0.14019611166E+02  0.43400729404E+02  0.00000000000E+00 0.  1.
         11    1    3    3    0    0 -0.71590957729E+01  0.87285650347E+01  0.11987068639E+02  0.16466035184E+02  0.51100000000E-03 0. -1.
        -11    1    3    3    0    0 -0.13601939840E+02  0.20831123288E+02  0.25990025728E+01  0.25014061636E+02  0.51100000000E-03 0.  1.
        -12    1    3    3    0    0 -0.60956268659E+01  0.15175299578E+01 -0.56646004647E+00  0.63071737763E+01  0.00000000000E+00 0.  1.
</event>
<event>
 7    1  0.2642243E-009  0.4778727E+02  0.7816164E-02  0.1312668E+00
        -11   -1    0    0    0    0  0.00000000000E+00  0.00000000000E+00  0.45593999997E+02  0.45594000000E+02  0.51100000000E-03 0. -1.
         11   -1    0    0    0    0 -0.00000000000E+00 -0.00000000000E+00 -0.45593999997E+02  0.45594000000E+02  0.51100000000E-03 0.  1.
    9900012    2    1    2    0    0  0.25734365933E+02  0.29907403086E+02  0.18080739050E+02  0.47787268740E+02  0.19999989495E+02 0.  0.
        -12    1    1    2    0    0 -0.25734365933E+02 -0.29907403086E+02 -0.18080739050E+02  0.43400731260E+02  0.00000000000E+00 0.  1.
         11    1    3    3    0    0 -0.80923839967E-01  0.10877691050E+02  0.72325168532E+01  0.13062925076E+02  0.51100000000E-03 0. -1.
        -11    1    3    3    0    0  0.75297469501E+00  0.50716617636E+00  0.22038426916E+01  0.23835081901E+01  0.51100000000E-03 0.  1.
         12    1    3    3    0    0  0.25062315078E+02  0.18522545859E+02  0.86443795047E+01  0.32340835474E+02  0.00000000000E+00 0. -1.
</event>
<event>
 7    1  0.2642243E-009  0.4778727E+02  0.7816164E-02  0.1312668E+00
        -11   -1    0    0    0    0  0.00000000000E+00  0.00000000000E+00  0.45593999997E+02  0.45594000000E+02  0.51100000000E-03 0.  1.
         11   -1    0    0    0    0 -0.00000000000E+00 -0.00000000000E+00 -0.45593999997E+02  0.45594000000E+02  0.51100000000E-03 0. -1.
    9900012    2    1    2    0    0 -0.98190979997E+01  0.17842740601E+02 -0.38325519684E+02  0.47787268016E+02  0.19999986192E+02 0.  0.
        -12    1    1    2    0    0  0.98190979997E+01 -0.17842740601E+02  0.38325519684E+02  0.43400731984E+02  0.00000000000E+00 0.  1.
         11    1    3    3    0    0  0.28060669972E+00  0.80862362354E+01 -0.20822354803E+02  0.22339122999E+02  0.51100000000E-03 0. -1.
        -11    1    3    3    0    0 -0.10083057081E+02  0.10075500071E+02 -0.88268421786E+01  0.16765944199E+02  0.51100000000E-03 0.  1.
        -12    1    3    3    0    0 -0.16647618815E-01 -0.31899570494E+00 -0.86763227028E+01  0.86822008181E+01  0.00000000000E+00 0.  1.
</event>
<event>
 7    1  0.2642243E-009  0.4778727E+02  0.7816164E-02  0.1312668E+00
        -11   -1    0    0    0    0  0.00000000000E+00  0.00000000000E+00  0.45593999997E+02  0.45594000000E+02  0.51100000000E-03 0.  1.
         11   -1    0    0    0    0 -0.00000000000E+00 -0.00000000000E+00 -0.45593999997E+02  0.45594000000E+02  0.51100000000E-03 0. -1.
    9900012    2    1    2    0    0  0.76847442740E+01  0.42607421117E+02  0.30291342470E+01  0.47787270938E+02  0.19999999516E+02 0.  0.
        -12    1    1    2    0    0 -0.76847442740E+01 -0.42607421117E+02 -0.30291342470E+01  0.43400729062E+02  0.00000000000E+00 0.  1.
         11    1    3    3    0    0 -0.20044884350E+00  0.44640461490E+01 -0.64737030592E+00  0.45151939419E+01  0.51100000000E-03 0. -1.
        -11    1    3    3    0    0  0.13538634063E+02  0.31331719848E+02  0.42822355587E+01  0.34399256134E+02  0.51100000000E-03 0.  1.
        -12    1    3    3    0    0 -0.56534409460E+01  0.68116551205E+01 -0.60573100579E+00  0.88728208627E+01  0.00000000000E+00 0.  1.
</event>
<event>
 7    1  0.2642243E-009  0.4778727E+02  0.7816164E-02  0.1312668E+00
        -11   -1    0    0    0    0  0.00000000000E+00  0.00000000000E+00  0.45593999997E+02  0.45594000000E+02  0.51100000000E-03 0. -1.
         11   -1    0    0    0    0 -0.00000000000E+00 -0.00000000000E+00 -0.45593999997E+02  0.45594000000E+02  0.51100000000E-03 0.  1.
    9900012    2    1    2    0    0  0.14483910268E+02 -0.28013891226E+02  0.29817134819E+02  0.47787270892E+02  0.19999999307E+02 0.  0.
        -12    1    1    2    0    0 -0.14483910268E+02  0.28013891226E+02 -0.29817134819E+02  0.43400729108E+02  0.00000000000E+00 0.  1.
         11    1    3    3    0    0  0.42934967667E+01 -0.75118952539E+01  0.10611234464E+02  0.13691639124E+02  0.51100000000E-03 0. -1.
        -11    1    3    3    0    0  0.12323741867E+02 -0.18961630112E+02  0.21039743094E+02  0.30888328214E+02  0.51100000000E-03 0.  1.
        -12    1    3    3    0    0 -0.21333283664E+01 -0.15403658598E+01 -0.18338427388E+01  0.32073035547E+01  0.00000000000E+00 0.  1.
</event>
<event>
 7    1  0.2642243E-009  0.4778727E+02  0.7816164E-02  0.1312668E+00
        -11   -1    0    0    0    0  0.00000000000E+00  0.00000000000E+00  0.45593999997E+02  0.45594000000E+02  0.51100000000E-03 0.  1.
         11   -1    0    0    0    0 -0.00000000000E+00 -0.00000000000E+00 -0.45593999997E+02  0.45594000000E+02  0.51100000000E-03 0. -1.
    9900012    2    1    2    0    0 -0.40576701823E+01  0.50338950197E+01 -0.42916412945E+02  0.47787270899E+02  0.19999999339E+02 0.  0.
        -12    1    1    2    0    0  0.40576701823E+01 -0.50338950197E+01  0.42916412945E+02  0.43400729101E+02  0.00000000000E+00 0.  1.
         11    1    3    3    0    0  0.24115909375E+01  0.76887813798E+01 -0.18915592003E+02  0.20560465730E+02  0.51100000000E-03 0. -1.
        -11    1    3    3    0    0 -0.82737165065E+01 -0.11707971324E+01 -0.99968639894E+01  0.13029291640E+02  0.51100000000E-03 0.  1.
        -12    1    3    3    0    0  0.18044553866E+01 -0.14840892277E+01 -0.14003956953E+02  0.14197513529E+02  0.00000000000E+00 0.  1.
</event>
<event>
 7    1  0.2642243E-009  0.4778729E+02  0.7816164E-02  0.1312668E+00
        -11   -1    0    0    0    0  0.00000000000E+00  0.00000000000E+00  0.45593999997E+02  0.45594000000E+02  0.51100000000E-03 0.  1.
         11   -1    0    0    0    0 -0.00000000000E+00 -0.00000000000E+00 -0.45593999997E+02  0.45594000000E+02  0.51100000000E-03 0. -1.
    9900012    2    1    2    0    0  0.21891212920E+01 -0.54493734646E+01 -0.43001556031E+02  0.47787288667E+02  0.20000080346E+02 0.  0.
        -12    1    1    2    0    0 -0.21891212920E+01  0.54493734646E+01  0.43001556031E+02  0.43400711333E+02  0.00000000000E+00 0.  1.
         11    1    3    3    0    0  0.69618899704E+01 -0.51103293664E+01 -0.17941203312E+02  0.19911558320E+02  0.51100000000E-03 0. -1.
        -11    1    3    3    0    0 -0.32890150656E+01  0.23948163732E+01 -0.18699801032E+01  0.44776770106E+01  0.51100000000E-03 0.  1.
        -12    1    3    3    0    0 -0.14837536128E+01 -0.27338604713E+01 -0.23190372615E+02  0.23398053336E+02  0.00000000000E+00 0.  1.
</event>
<event>
 7    1  0.2642243E-009  0.4778727E+02  0.7816164E-02  0.1312668E+00
        -11   -1    0    0    0    0  0.00000000000E+00  0.00000000000E+00  0.45593999997E+02  0.45594000000E+02  0.51100000000E-03 0. -1.
         11   -1    0    0    0    0 -0.00000000000E+00 -0.00000000000E+00 -0.45593999997E+02  0.45594000000E+02  0.51100000000E-03 0.  1.
    9900012    2    1    2    0    0  0.10540766388E+02  0.26345499373E+02  0.32839462489E+02  0.47787269709E+02  0.19999993910E+02 0.  0.
        -12    1    1    2    0    0 -0.10540766388E+02 -0.26345499373E+02 -0.32839462489E+02  0.43400730291E+02  0.00000000000E+00 0.  1.
         11    1    3    3    0    0  0.46313559533E-01  0.56631766185E+01  0.19792098134E+02  0.20586424244E+02  0.51100000000E-03 0. -1.
        -11    1    3    3    0    0 -0.52347805098E+00  0.24062370761E+01  0.76621900547E+00  0.25789722685E+01  0.51100000000E-03 0.  1.
         12    1    3    3    0    0  0.11017930879E+02  0.18276085678E+02  0.12281145350E+02  0.24621873196E+02  0.00000000000E+00 0. -1.
</event>
<event>
 7    1  0.2642243E-009  0.4778727E+02  0.7816164E-02  0.1312668E+00
        -11   -1    0    0    0    0  0.00000000000E+00  0.00000000000E+00  0.45593999997E+02  0.45594000000E+02  0.51100000000E-03 0.  1.
         11   -1    0    0    0    0 -0.00000000000E+00 -0.00000000000E+00 -0.45593999997E+02  0.45594000000E+02  0.51100000000E-03 0. -1.
    9900012    2    1    2    0    0 -0.20350038883E+02  0.16607407646E+02 -0.34549864632E+02  0.47787271696E+02  0.20000002970E+02 0.  0.
        -12    1    1    2    0    0  0.20350038883E+02 -0.16607407646E+02  0.34549864632E+02  0.43400728304E+02  0.00000000000E+00 0.  1.
         11    1    3    3    0    0 -0.19361461020E+02  0.71792612016E+01 -0.19529754785E+02  0.28422161890E+02  0.51100000000E-03 0. -1.
        -11    1    3    3    0    0 -0.16846087630E+01  0.72269212925E+01 -0.46862710344E+01  0.87765274751E+01  0.51100000000E-03 0.  1.
         12    1    3    3    0    0  0.69603090069E+00  0.22012251522E+01 -0.10333838812E+02  0.10588582331E+02  0.00000000000E+00 0. -1.
</event>
<event>
 7    1  0.2642243E-009  0.4778727E+02  0.7816164E-02  0.1312668E+00
        -11   -1    0    0    0    0  0.00000000000E+00  0.00000000000E+00  0.45593999997E+02  0.45594000000E+02  0.51100000000E-03 0.  1.
         11   -1    0    0    0    0 -0.00000000000E+00 -0.00000000000E+00 -0.45593999997E+02  0.45594000000E+02  0.51100000000E-03 0. -1.
    9900012    2    1    2    0    0 -0.12489141619E+02  0.36399338889E+02 -0.20068214152E+02  0.47787265568E+02  0.19999975033E+02 0.  0.
        -12    1    1    2    0    0  0.12489141619E+02 -0.36399338889E+02  0.20068214152E+02  0.43400734432E+02  0.00000000000E+00 0.  1.
         11    1    3    3    0    0 -0.76435927558E+01  0.96020024367E+01 -0.61170478044E+01  0.13712812808E+02  0.51100000000E-03 0. -1.
        -11    1    3    3    0    0  0.25586775882E+01  0.19440553431E+02 -0.47856778154E+01  0.20183772222E+02  0.51100000000E-03 0.  1.
        -12    1    3    3    0    0 -0.74042264518E+01  0.73567830211E+01 -0.91654885321E+01  0.13890680538E+02  0.00000000000E+00 0.  1.
</event>
<event>
 7    1  0.2642243E-009  0.4778727E+02  0.7816164E-02  0.1312668E+00
        -11   -1    0    0    0    0  0.00000000000E+00  0.00000000000E+00  0.45593999997E+02  0.45594000000E+02  0.51100000000E-03 0.  1.
         11   -1    0    0    0    0 -0.00000000000E+00 -0.00000000000E+00 -0.45593999997E+02  0.45594000000E+02  0.51100000000E-03 0. -1.
    9900012    2    1    2    0    0 -0.36029086838E+02  0.20752250382E+02 -0.12444765640E+02  0.47787272055E+02  0.20000004607E+02 0.  0.
        -12    1    1    2    0    0  0.36029086838E+02 -0.20752250382E+02  0.12444765640E+02  0.43400727945E+02  0.00000000000E+00 0.  1.
         11    1    3    3    0    0 -0.67370279476E+01  0.20654177382E+01  0.20207594454E+01  0.73305501156E+01  0.51100000000E-03 0. -1.
        -11    1    3    3    0    0 -0.17823951604E+02  0.74440358943E+01 -0.14893730807E+02  0.24391189778E+02  0.51100000000E-03 0.  1.
        -12    1    3    3    0    0 -0.11468107286E+02  0.11242796749E+02  0.42820572137E+00  0.16065532161E+02  0.00000000000E+00 0.  1.
</event>
<event>
 7    1  0.2642243E-009  0.4778728E+02  0.7816164E-02  0.1312668E+00
        -11   -1    0    0    0    0  0.00000000000E+00  0.00000000000E+00  0.45593999997E+02  0.45594000000E+02  0.51100000000E-03 0. -1.
         11   -1    0    0    0    0 -0.00000000000E+00 -0.00000000000E+00 -0.45593999997E+02  0.45594000000E+02  0.51100000000E-03 0.  1.
    9900012    2    1    2    0    0  0.39389179530E+02  0.14584727225E+02  0.10927075809E+02  0.47787277448E+02  0.20000029198E+02 0.  0.
        -12    1    1    2    0    0 -0.39389179530E+02 -0.14584727225E+02 -0.10927075809E+02  0.43400722552E+02  0.00000000000E+00 0.  1.
         11    1    3    3    0    0  0.39548292546E+01  0.19399173198E+01  0.36024115280E+01  0.56904589199E+01  0.51100000000E-03 0. -1.
        -11    1    3    3    0    0  0.23915212715E+02 -0.38843600565E+00  0.59568558058E+01  0.24648984018E+02  0.51100000000E-03 0.  1.
        -12    1    3    3    0    0  0.11519137560E+02  0.13033245910E+02  0.13678084750E+01  0.17447834511E+02  0.00000000000E+00 0.  1.
</event>
<event>
 7    1  0.2642243E-009  0.4778727E+02  0.7816164E-02  0.1312668E+00
        -11   -1    0    0    0    0  0.00000000000E+00  0.00000000000E+00  0.45593999997E+02  0.45594000000E+02  0.51100000000E-03 0.  1.
         11   -1    0    0    0    0 -0.00000000000E+00 -0.00000000000E+00 -0.45593999997E+02  0.45594000000E+02  0.51100000000E-03 0. -1.
    9900012    2    1    2    0    0 -0.22976791523E+02 -0.36736981564E+02 -0.24667441118E+01  0.47787267407E+02  0.19999983414E+02 0.  0.
        -12    1    1    2    0    0  0.22976791523E+02  0.36736981564E+02  0.24667441118E+01  0.43400732593E+02  0.00000000000E+00 0.  1.
         11    1    3    3    0    0 -0.15805777168E+02 -0.19345573705E+02  0.21614411537E+01  0.25074800936E+02  0.51100000000E-03 0. -1.
        -11    1    3    3    0    0 -0.64070067707E+00 -0.12356791690E+02 -0.68896793245E+01  0.14162220154E+02  0.51100000000E-03 0.  1.
        -12    1    3    3    0    0 -0.65303136780E+01 -0.50346161693E+01  0.22614940591E+01  0.85502463172E+01  0.00000000000E+00 0.  1.
</event>
<event>
 7    1  0.2642243E-009  0.4778727E+02  0.7816164E-02  0.1312668E+00
        -11   -1    0    0    0    0  0.00000000000E+00  0.00000000000E+00  0.45593999997E+02  0.45594000000E+02  0.51100000000E-03 0.  1.
         11   -1    0    0    0    0 -0.00000000000E+00 -0.00000000000E+00 -0.45593999997E+02  0.45594000000E+02  0.51100000000E-03 0. -1.
    9900012    2    1    2    0    0  0.37761124126E+02  0.19494086807E+02 -0.88148468767E+01  0.47787269117E+02  0.19999991213E+02 0.  0.
        -12    1    1    2    0    0 -0.37761124126E+02 -0.19494086807E+02  0.88148468767E+01  0.43400730883E+02  0.00000000000E+00 0.  1.
         11    1    3    3    0    0  0.15970694791E+02  0.43519807957E+01  0.48149323330E+01  0.17239095179E+02  0.51100000000E-03 0.  1.
        -11    1    3    3    0    0  0.95932778173E+01  0.10531528537E+02 -0.61593959612E+01  0.15520381164E+02  0.51100000000E-03 0. -1.
        -12    1    3    3    0    0  0.12197151518E+02  0.46105774738E+01 -0.74703832485E+01  0.15027792775E+02  0.00000000000E+00 0.  1.
</event>
<event>
 7    1  0.2642243E-009  0.4778727E+02  0.7816164E-02  0.1312668E+00
        -11   -1    0    0    0    0  0.00000000000E+00  0.00000000000E+00  0.45593999997E+02  0.45594000000E+02  0.51100000000E-03 0. -1.
         11   -1    0    0    0    0 -0.00000000000E+00 -0.00000000000E+00 -0.45593999997E+02  0.45594000000E+02  0.51100000000E-03 0.  1.
    9900012    2    1    2    0    0 -0.30623067162E+02  0.28749459028E+02  0.10923347618E+02  0.47787272356E+02  0.20000005981E+02 0.  0.
        -12    1    1    2    0    0  0.30623067162E+02 -0.28749459028E+02 -0.10923347618E+02  0.43400727644E+02  0.00000000000E+00 0.  1.
         11    1    3    3    0    0 -0.28920639959E+01  0.33219547234E+01  0.59252005015E+00  0.44441531940E+01  0.51100000000E-03 0. -1.
        -11    1    3    3    0    0 -0.77050171313E+01  0.13558726901E+02 -0.38785690641E+01  0.16070148177E+02  0.51100000000E-03 0.  1.
        -12    1    3    3    0    0 -0.20025986035E+02  0.11868777403E+02  0.14209396632E+02  0.27272970986E+02  0.00000000000E+00 0.  1.
</event>
<event>
 7    1  0.2642243E-009  0.4778727E+02  0.7816164E-02  0.1312668E+00
        -11   -1    0    0    0    0  0.00000000000E+00  0.00000000000E+00  0.45593999997E+02  0.45594000000E+02  0.51100000000E-03 0.  1.
         11   -1    0    0    0    0 -0.00000000000E+00 -0.00000000000E+00 -0.45593999997E+02  0.45594000000E+02  0.51100000000E-03 0. -1.
    9900012    2    1    2    0    0  0.11096457349E+02 -0.33467504455E+02 -0.25306477085E+02  0.47787274170E+02  0.20000014250E+02 0.  0.
        -12    1    1    2    0    0 -0.11096457349E+02  0.33467504455E+02  0.25306477085E+02  0.43400725830E+02  0.00000000000E+00 0.  1.
         11    1    3    3    0    0  0.22282601255E+01 -0.25822954501E+02 -0.24071537916E+02  0.35372716325E+02  0.51100000000E-03 0. -1.
        -11    1    3    3    0    0  0.48182423268E+01 -0.51325334278E+01  0.10701047628E+01  0.71206378206E+01  0.51100000000E-03 0.  1.
         12    1    3    3    0    0  0.40499548965E+01 -0.25120165268E+01 -0.23050439314E+01  0.52939200240E+01  0.00000000000E+00 0. -1.
</event>
<event>
 7    1  0.2642243E-009  0.4778726E+02  0.7816164E-02  0.1312668E+00
        -11   -1    0    0    0    0  0.00000000000E+00  0.00000000000E+00  0.45593999997E+02  0.45594000000E+02  0.51100000000E-03 0. -1.
         11   -1    0    0    0    0 -0.00000000000E+00 -0.00000000000E+00 -0.45593999997E+02  0.45594000000E+02  0.51100000000E-03 0.  1.
    9900012    2    1    2    0    0  0.28942987978E+01 -0.42446786705E+02 -0.85742255940E+01  0.47787262545E+02  0.19999961246E+02 0.  0.
        -12    1    1    2    0    0 -0.28942987978E+01  0.42446786705E+02  0.85742255940E+01  0.43400737455E+02  0.00000000000E+00 0.  1.
         11    1    3    3    0    0 -0.77710808764E+01 -0.16980130407E+02 -0.25608042792E+01  0.18848666941E+02  0.51100000000E-03 0. -1.
        -11    1    3    3    0    0  0.68388442576E+01 -0.14707038742E+02 -0.65835696257E+01  0.17504575648E+02  0.51100000000E-03 0.  1.
         12    1    3    3    0    0  0.38265354166E+01 -0.10759617556E+02  0.57014831094E+00  0.11434019955E+02  0.00000000000E+00 0. -1.
</event>
<event>
 7    1  0.2642243E-009  0.4778728E+02  0.7816164E-02  0.1312668E+00
        -11   -1    0    0    0    0  0.00000000000E+00  0.00000000000E+00  0.45593999997E+02  0.45594000000E+02  0.51100000000E-03 0. -1.
         11   -1    0    0    0    0 -0.00000000000E+00 -0.00000000000E+00 -0.45593999997E+02  0.45594000000E+02  0.51100000000E-03 0.  1.
    9900012    2    1    2    0    0  0.36702846596E+02  0.18768096401E+02  0.13575057652E+02  0.47787279027E+02  0.20000036395E+02 0.  0.
        -12    1    1    2    0    0 -0.36702846596E+02 -0.18768096401E+02 -0.13575057652E+02  0.43400720973E+02  0.00000000000E+00 0.  1.
         11    1    3    3    0    0  0.22503134341E+02  0.37193738339E+01  0.12323530449E+02  0.25924779650E+02  0.51100000000E-03 0. -1.
        -11    1    3    3    0    0  0.14219694928E+02  0.15351765643E+02  0.20330633862E+01  0.21024028615E+02  0.51100000000E-03 0.  1.
        -12    1    3    3    0    0 -0.19982673985E-01 -0.30304307594E+00 -0.78153618322E+00  0.83847076205E+00  0.00000000000E+00 0.  1.
</event>
<event>
 7    1  0.2642243E-009  0.4778727E+02  0.7816164E-02  0.1312668E+00
        -11   -1    0    0    0    0  0.00000000000E+00  0.00000000000E+00  0.45593999997E+02  0.45594000000E+02  0.51100000000E-03 0.  1.
         11   -1    0    0    0    0 -0.00000000000E+00 -0.00000000000E+00 -0.45593999997E+02  0.45594000000E+02  0.51100000000E-03 0. -1.
    9900012    2    1    2    0    0  0.32185746879E+02  0.23656054782E+02 -0.16973276428E+02  0.47787270251E+02  0.19999996384E+02 0.  0.
        -12    1    1    2    0    0 -0.32185746879E+02 -0.23656054782E+02  0.16973276428E+02  0.43400729749E+02  0.00000000000E+00 0.  1.
         11    1    3    3    0    0  0.81254141314E+00 -0.11447846745E+01 -0.12006765886E+01  0.18472628483E+01  0.51100000000E-03 0. -1.
        -11    1    3    3    0    0  0.15334053579E+02  0.22862545704E+01 -0.55596111825E+01  0.16470259132E+02  0.51100000000E-03 0.  1.
        -12    1    3    3    0    0  0.16039151887E+02  0.22514584886E+02 -0.10212988657E+02  0.29469748271E+02  0.00000000000E+00 0.  1.
</event>
<event>
 7    1  0.2642243E-009  0.4778727E+02  0.7816164E-02  0.1312668E+00
        -11   -1    0    0    0    0  0.00000000000E+00  0.00000000000E+00  0.45593999997E+02  0.45594000000E+02  0.51100000000E-03 0.  1.
         11   -1    0    0    0    0 -0.00000000000E+00 -0.00000000000E+00 -0.45593999997E+02  0.45594000000E+02  0.51100000000E-03 0. -1.
    9900012    2    1    2    0    0  0.23175265765E+02  0.27263813277E+02 -0.24560436748E+02  0.47787268313E+02  0.19999987546E+02 0.  0.
        -12    1    1    2    0    0 -0.23175265765E+02 -0.27263813277E+02  0.24560436748E+02  0.43400731687E+02  0.00000000000E+00 0.  1.
         11    1    3    3    0    0  0.18778522598E+02  0.15245840239E+02 -0.64625708571E+01  0.25036640707E+02  0.51100000000E-03 0. -1.
        -11    1    3    3    0    0  0.24592899427E+01  0.11122709514E+02 -0.13379245314E+02  0.17571766541E+02  0.51100000000E-03 0.  1.
         12    1    3    3    0    0  0.19374532244E+01  0.89526352483E+00 -0.47186205774E+01  0.51788610649E+01  0.00000000000E+00 0. -1.
</event>
<event>
 7    1  0.2642243E-009  0.4778727E+02  0.7816164E-02  0.1312668E+00
        -11   -1    0    0    0    0  0.00000000000E+00  0.00000000000E+00  0.45593999997E+02  0.45594000000E+02  0.51100000000E-03 0.  1.
         11   -1    0    0    0    0 -0.00000000000E+00 -0.00000000000E+00 -0.45593999997E+02  0.45594000000E+02  0.51100000000E-03 0. -1.
    9900012    2    1    2    0    0 -0.42513577484E+02 -0.16714453951E+01 -0.85688379286E+01  0.47787274388E+02  0.20000015245E+02 0.  0.
        -12    1    1    2    0    0  0.42513577484E+02  0.16714453951E+01  0.85688379286E+01  0.43400725612E+02  0.00000000000E+00 0.  1.
         11    1    3    3    0    0  0.19629627121E+01 -0.57041375114E-01  0.42162786139E-01  0.19642439485E+01  0.51100000000E-03 0. -1.
        -11    1    3    3    0    0 -0.20799948459E+02 -0.26947565278E+00 -0.66452155312E+00  0.20812305546E+02  0.51100000000E-03 0.  1.
         12    1    3    3    0    0 -0.23676591737E+02 -0.13449283672E+01 -0.79464791616E+01  0.25010724893E+02  0.00000000000E+00 0. -1.
</event>
<event>
 7    1  0.2642243E-009  0.4778731E+02  0.7816164E-02  0.1312668E+00
        -11   -1    0    0    0    0  0.00000000000E+00  0.00000000000E+00  0.45593999997E+02  0.45594000000E+02  0.51100000000E-03 0.  1.
         11   -1    0    0    0    0 -0.00000000000E+00 -0.00000000000E+00 -0.45593999997E+02  0.45594000000E+02  0.51100000000E-03 0. -1.
    9900012    2    1    2    0    0  0.36725680771E+02 -0.16436169068E+02  0.16269509532E+02  0.47787306202E+02  0.20000160297E+02 0.  0.
        -12    1    1    2    0    0 -0.36725680771E+02  0.16436169068E+02 -0.16269509532E+02  0.43400693798E+02  0.00000000000E+00 0.  1.
         11    1    3    3    0    0  0.32329514127E+02 -0.93388826381E+01  0.17520164842E+02  0.37939008803E+02  0.51100000000E-03 0. -1.
        -11    1    3    3    0    0  0.29468359800E+01 -0.76640084216E+01 -0.99134579780E+00  0.82706489547E+01  0.51100000000E-03 0.  1.
         12    1    3    3    0    0  0.14493306647E+01  0.56672199218E+00 -0.25930951191E+00  0.15776484447E+01  0.00000000000E+00 0. -1.
</event>
<event>
 7    1  0.2642243E-009  0.4778727E+02  0.7816164E-02  0.1312668E+00
        -11   -1    0    0    0    0  0.00000000000E+00  0.00000000000E+00  0.45593999997E+02  0.45594000000E+02  0.51100000000E-03 0. -1.
         11   -1    0    0    0    0 -0.00000000000E+00 -0.00000000000E+00 -0.45593999997E+02  0.45594000000E+02  0.51100000000E-03 0.  1.
    9900012    2    1    2    0    0 -0.25551131413E+02  0.40344964705E+00  0.35079910671E+02  0.47787271656E+02  0.20000002786E+02 0.  0.
        -12    1    1    2    0    0  0.25551131413E+02 -0.40344964705E+00 -0.35079910671E+02  0.43400728344E+02  0.00000000000E+00 0.  1.
         11    1    3    3    0    0 -0.49588732082E+01 -0.71366287482E+00  0.59043886472E+01  0.77434839544E+01  0.51100000000E-03 0. -1.
        -11    1    3    3    0    0 -0.28157276713E+01  0.63219533335E+01  0.20881156194E+01  0.72288064970E+01  0.51100000000E-03 0.  1.
        -12    1    3    3    0    0 -0.17776530534E+02 -0.52048408116E+01  0.27087406405E+02  0.32814981204E+02  0.00000000000E+00 0.  1.
</event>
<event>
 7    1  0.2642243E-009  0.4778727E+02  0.7816164E-02  0.1312668E+00
        -11   -1    0    0    0    0  0.00000000000E+00  0.00000000000E+00  0.45593999997E+02  0.45594000000E+02  0.51100000000E-03 0. -1.
         11   -1    0    0    0    0 -0.00000000000E+00 -0.00000000000E+00 -0.45593999997E+02  0.45594000000E+02  0.51100000000E-03 0.  1.
    9900012    2    1    2    0    0  0.13646492008E+02  0.14489587700E+02  0.38567448582E+02  0.47787274362E+02  0.20000015125E+02 0.  0.
        -12    1    1    2    0    0 -0.13646492008E+02 -0.14489587700E+02 -0.38567448582E+02  0.43400725638E+02  0.00000000000E+00 0.  1.
         11    1    3    3    0    0  0.62938529789E+00 -0.81756774932E+00 -0.18329970046E+01  0.21034308065E+01  0.51100000000E-03 0. -1.
        -11    1    3    3    0    0  0.23740542474E+01  0.81794228744E+01  0.16211400645E+02  0.18312525857E+02  0.51100000000E-03 0.  1.
         12    1    3    3    0    0  0.10643052463E+02  0.71277325745E+01  0.24189044941E+02  0.27371317698E+02  0.00000000000E+00 0. -1.
</event>
<event>
 7    1  0.2642243E-009  0.4778727E+02  0.7816164E-02  0.1312668E+00
        -11   -1    0    0    0    0  0.00000000000E+00  0.00000000000E+00  0.45593999997E+02  0.45594000000E+02  0.51100000000E-03 0.  1.
         11   -1    0    0    0    0 -0.00000000000E+00 -0.00000000000E+00 -0.45593999997E+02  0.45594000000E+02  0.51100000000E-03 0. -1.
    9900012    2    1    2    0    0  0.10695050838E+02  0.37283088250E+02 -0.19473330760E+02  0.47787269675E+02  0.19999993755E+02 0.  0.
        -12    1    1    2    0    0 -0.10695050838E+02 -0.37283088250E+02  0.19473330760E+02  0.43400730325E+02  0.00000000000E+00 0.  1.
         11    1    3    3    0    0  0.11769103138E+02  0.10346075377E+02 -0.51306539312E+01  0.16488683223E+02  0.51100000000E-03 0. -1.
        -11    1    3    3    0    0 -0.33314889338E+01  0.17846286057E+02 -0.11578016970E+02  0.21532283246E+02  0.51100000000E-03 0.  1.
         12    1    3    3    0    0  0.22574366336E+01  0.90907268154E+01 -0.27646598588E+01  0.97663032065E+01  0.00000000000E+00 0. -1.
</event>
<event>
 7    1  0.2642243E-009  0.4778727E+02  0.7816164E-02  0.1312668E+00
        -11   -1    0    0    0    0  0.00000000000E+00  0.00000000000E+00  0.45593999997E+02  0.45594000000E+02  0.51100000000E-03 0.  1.
         11   -1    0    0    0    0 -0.00000000000E+00 -0.00000000000E+00 -0.45593999997E+02  0.45594000000E+02  0.51100000000E-03 0. -1.
    9900012    2    1    2    0    0  0.13777779638E+01 -0.42990500214E+02 -0.57915278167E+01  0.47787272181E+02  0.20000005183E+02 0.  0.
        -12    1    1    2    0    0 -0.13777779638E+01  0.42990500214E+02  0.57915278167E+01  0.43400727819E+02  0.00000000000E+00 0.  1.
         11    1    3    3    0    0 -0.15229675415E+01 -0.20708296319E+02 -0.88654229429E+00  0.20783140381E+02  0.51100000000E-03 0. -1.
        -11    1    3    3    0    0  0.73910021329E+01 -0.17110234134E+02 -0.68932194973E+01  0.19872179044E+02  0.51100000000E-03 0.  1.
        -12    1    3    3    0    0 -0.44902566276E+01 -0.51719697602E+01  0.19882339749E+01  0.71319527565E+01  0.00000000000E+00 0.  1.
</event>
<event>
 7    1  0.2642243E-009  0.4778727E+02  0.7816164E-02  0.1312668E+00
        -11   -1    0    0    0    0  0.00000000000E+00  0.00000000000E+00  0.45593999997E+02  0.45594000000E+02  0.51100000000E-03 0.  1.
         11   -1    0    0    0    0 -0.00000000000E+00 -0.00000000000E+00 -0.45593999997E+02  0.45594000000E+02  0.51100000000E-03 0. -1.
    9900012    2    1    2    0    0  0.45143361321E+01 -0.29949024622E+02 -0.31085362018E+02  0.47787273758E+02  0.20000012372E+02 0.  0.
        -12    1    1    2    0    0 -0.45143361321E+01  0.29949024622E+02  0.31085362018E+02  0.43400726242E+02  0.00000000000E+00 0.  1.
         11    1    3    3    0    0  0.24811268423E+01 -0.20492928117E+02 -0.29461082836E+02  0.35973205242E+02  0.51100000000E-03 0. -1.
        -11    1    3    3    0    0  0.19978982793E+01 -0.25210703574E+01  0.21974329946E+01  0.38956521031E+01  0.51100000000E-03 0.  1.
        -12    1    3    3    0    0  0.35311010589E-01 -0.69350261473E+01 -0.38217121770E+01  0.79184164133E+01  0.00000000000E+00 0.  1.
</event>
<event>
 7    1  0.2642243E-009  0.4778727E+02  0.7816164E-02  0.1312668E+00
        -11   -1    0    0    0    0  0.00000000000E+00  0.00000000000E+00  0.45593999997E+02  0.45594000000E+02  0.51100000000E-03 0. -1.
         11   -1    0    0    0    0 -0.00000000000E+00 -0.00000000000E+00 -0.45593999997E+02  0.45594000000E+02  0.51100000000E-03 0.  1.
    9900012    2    1    2    0    0  0.42984431770E+02 -0.28953826154E+00 -0.59898684578E+01  0.47787265777E+02  0.19999975982E+02 0.  0.
        -12    1    1    2    0    0 -0.42984431770E+02  0.28953826154E+00  0.59898684578E+01  0.43400734223E+02  0.00000000000E+00 0.  1.
         11    1    3    3    0    0  0.21965600502E+02 -0.65186345659E+01 -0.55108380981E+01  0.23565855360E+02  0.51100000000E-03 0. -1.
        -11    1    3    3    0    0  0.61587932215E+01  0.42970293140E+01  0.40951923941E+01  0.85537007124E+01  0.51100000000E-03 0.  1.
        -12    1    3    3    0    0  0.14860038046E+02  0.19320669904E+01 -0.45742227538E+01  0.15667709705E+02  0.00000000000E+00 0.  1.
</event>
<event>
 7    1  0.2642243E-009  0.4778726E+02  0.7816164E-02  0.1312668E+00
        -11   -1    0    0    0    0  0.00000000000E+00  0.00000000000E+00  0.45593999997E+02  0.45594000000E+02  0.51100000000E-03 0.  1.
         11   -1    0    0    0    0 -0.00000000000E+00 -0.00000000000E+00 -0.45593999997E+02  0.45594000000E+02  0.51100000000E-03 0. -1.
    9900012    2    1    2    0    0  0.36221299204E+02 -0.18176500709E+02  0.15532429654E+02  0.47787261930E+02  0.19999958445E+02 0.  0.
        -12    1    1    2    0    0 -0.36221299204E+02  0.18176500709E+02 -0.15532429654E+02  0.43400738070E+02  0.00000000000E+00 0.  1.
         11    1    3    3    0    0  0.10125522398E+02 -0.11672904725E+01  0.82117953461E+01  0.13089016538E+02  0.51100000000E-03 0. -1.
        -11    1    3    3    0    0  0.21774874082E+02 -0.13835586608E+02  0.21817750739E+00  0.25799538750E+02  0.51100000000E-03 0.  1.
        -12    1    3    3    0    0  0.43209027243E+01 -0.31736236292E+01  0.71024568004E+01  0.88987066417E+01  0.00000000000E+00 0.  1.
</event>
<event>
 7    1  0.2642243E-009  0.4778727E+02  0.7816164E-02  0.1312668E+00
        -11   -1    0    0    0    0  0.00000000000E+00  0.00000000000E+00  0.45593999997E+02  0.45594000000E+02  0.51100000000E-03 0.  1.
         11   -1    0    0    0    0 -0.00000000000E+00 -0.00000000000E+00 -0.45593999997E+02  0.45594000000E+02  0.51100000000E-03 0. -1.
    9900012    2    1    2    0    0 -0.35486134255E+02  0.24943872313E+02  0.14698956517E+01  0.47787273237E+02  0.20000009998E+02 0.  0.
        -12    1    1    2    0    0  0.35486134255E+02 -0.24943872313E+02 -0.14698956517E+01  0.43400726763E+02  0.00000000000E+00 0.  1.
         11    1    3    3    0    0 -0.11396798019E+02  0.15203896549E+02  0.16717324211E+01  0.19074594751E+02  0.51100000000E-03 0. -1.
        -11    1    3    3    0    0 -0.14870491831E+02  0.22284930122E+01  0.48401707933E+01  0.15796359137E+02  0.51100000000E-03 0.  1.
        -12    1    3    3    0    0 -0.92188444046E+01  0.75114827518E+01 -0.50420075627E+01  0.12916319350E+02  0.00000000000E+00 0.  1.
</event>
<event>
 7    1  0.2642243E-009  0.4778727E+02  0.7816164E-02  0.1312668E+00
        -11   -1    0    0    0    0  0.00000000000E+00  0.00000000000E+00  0.45593999997E+02  0.45594000000E+02  0.51100000000E-03 0.  1.
         11   -1    0    0    0    0 -0.00000000000E+00 -0.00000000000E+00 -0.45593999997E+02  0.45594000000E+02  0.51100000000E-03 0. -1.
    9900012    2    1    2    0    0  0.29147966463E+02  0.35891079537E+01 -0.31955242012E+02  0.47787272623E+02  0.20000007198E+02 0.  0.
        -12    1    1    2    0    0 -0.29147966463E+02 -0.35891079537E+01  0.31955242012E+02  0.43400727377E+02  0.00000000000E+00 0.  1.
         11    1    3    3    0    0  0.19915248220E+02  0.90862322171E+01 -0.18514988021E+02  0.28670219902E+02  0.51100000000E-03 0. -1.
        -11    1    3    3    0    0  0.67690448544E+01 -0.48987786326E+01 -0.14195113032E+02  0.16471770840E+02  0.51100000000E-03 0.  1.
         12    1    3    3    0    0  0.24636733884E+01 -0.59834563074E+00  0.75485904180E+00  0.26452818813E+01  0.00000000000E+00 0. -1.
</event>
<event>
 7    1  0.2642243E-009  0.4778727E+02  0.7816164E-02  0.1312668E+00
        -11   -1    0    0    0    0  0.00000000000E+00  0.00000000000E+00  0.45593999997E+02  0.45594000000E+02  0.51100000000E-03 0.  1.
         11   -1    0    0    0    0 -0.00000000000E+00 -0.00000000000E+00 -0.45593999997E+02  0.45594000000E+02  0.51100000000E-03 0. -1.
    9900012    2    1    2    0    0 -0.59489263253E+01 -0.41345915277E+02 -0.11779159112E+02  0.47787273925E+02  0.20000013132E+02 0.  0.
        -12    1    1    2    0    0  0.59489263253E+01  0.41345915277E+02  0.11779159112E+02  0.43400726075E+02  0.00000000000E+00 0.  1.
         11    1    3    3    0    0 -0.74014101639E+01 -0.10671190422E+02 -0.91902998932E+01  0.15909644554E+02  0.51100000000E-03 0. -1.
        -11    1    3    3    0    0 -0.14422745037E+01 -0.26709394560E+02 -0.31628844224E+01  0.26934657073E+02  0.51100000000E-03 0.  1.
        -12    1    3    3    0    0  0.28947583423E+01 -0.39653302946E+01  0.57402520368E+00  0.49429722981E+01  0.00000000000E+00 0.  1.
</event>
<event>
 7    1  0.2642243E-009  0.4778727E+02  0.7816164E-02  0.1312668E+00
        -11   -1    0    0    0    0  0.00000000000E+00  0.00000000000E+00  0.45593999997E+02  0.45594000000E+02  0.51100000000E-03 0.  1.
         11   -1    0    0    0    0 -0.00000000000E+00 -0.00000000000E+00 -0.45593999997E+02  0.45594000000E+02  0.51100000000E-03 0. -1.
    9900012    2    1    2    0    0  0.35381807735E+02 -0.24982914442E+02  0.27576973128E+01  0.47787271584E+02  0.20000002459E+02 0.  0.
        -12    1    1    2    0    0 -0.35381807735E+02  0.24982914442E+02 -0.27576973128E+01  0.43400728416E+02  0.00000000000E+00 0.  1.
         11    1    3    3    0    0  0.36835618735E+02 -0.22096898694E+02  0.68195531091E+00  0.42960456269E+02  0.51100000000E-03 0. -1.
        -11    1    3    3    0    0 -0.51026180486E+00 -0.27683607908E+01  0.25191946967E+01  0.37776356043E+01  0.51100000000E-03 0.  1.
         12    1    3    3    0    0 -0.94354919553E+00 -0.11765495713E+00 -0.44345269480E+00  0.10491797109E+01  0.00000000000E+00 0. -1.
</event>
<event>
 7    1  0.2642243E-009  0.4778728E+02  0.7816164E-02  0.1312668E+00
        -11   -1    0    0    0    0  0.00000000000E+00  0.00000000000E+00  0.45593999997E+02  0.45594000000E+02  0.51100000000E-03 0. -1.
         11   -1    0    0    0    0 -0.00000000000E+00 -0.00000000000E+00 -0.45593999997E+02  0.45594000000E+02  0.51100000000E-03 0.  1.
    9900012    2    1    2    0    0  0.12963197781E+02  0.79161788083E+01  0.40656026216E+02  0.47787275913E+02  0.20000022197E+02 0.  0.
        -12    1    1    2    0    0 -0.12963197781E+02 -0.79161788083E+01 -0.40656026216E+02  0.43400724087E+02  0.00000000000E+00 0.  1.
         11    1    3    3    0    0  0.11219263881E+02  0.68245684770E+00  0.84494574291E+01  0.14061684127E+02  0.51100000000E-03 0. -1.
        -11    1    3    3    0    0  0.19196280782E+01  0.81594870457E+00  0.21675894365E+01  0.30081869080E+01  0.51100000000E-03 0.  1.
         12    1    3    3    0    0 -0.17569417863E+00  0.64177732560E+01  0.30038979350E+02  0.30717404878E+02  0.00000000000E+00 0. -1.
</event>
<event>
 7    1  0.2642243E-009  0.4778727E+02  0.7816164E-02  0.1312668E+00
        -11   -1    0    0    0    0  0.00000000000E+00  0.00000000000E+00  0.45593999997E+02  0.45594000000E+02  0.51100000000E-03 0.  1.
         11   -1    0    0    0    0 -0.00000000000E+00 -0.00000000000E+00 -0.45593999997E+02  0.45594000000E+02  0.51100000000E-03 0. -1.
    9900012    2    1    2    0    0 -0.28424746973E+02  0.22010839924E+02 -0.24314191010E+02  0.47787271906E+02  0.20000003927E+02 0.  0.
        -12    1    1    2    0    0  0.28424746973E+02 -0.22010839924E+02  0.24314191010E+02  0.43400728094E+02  0.00000000000E+00 0.  1.
         11    1    3    3    0    0  0.20795776270E+01  0.13819093440E+01  0.51939405269E+00  0.25503111545E+01  0.51100000000E-03 0. -1.
        -11    1    3    3    0    0  0.13367852575E+00  0.13932833601E+01 -0.20569915012E+01  0.24880359256E+01  0.51100000000E-03 0.  1.
         12    1    3    3    0    0 -0.30638003126E+02  0.19235647220E+02 -0.22776593561E+02  0.42748924826E+02  0.00000000000E+00 0. -1.
</event>
<event>
 7    1  0.2642243E-009  0.4778728E+02  0.7816164E-02  0.1312668E+00
        -11   -1    0    0    0    0  0.00000000000E+00  0.00000000000E+00  0.45593999997E+02  0.45594000000E+02  0.51100000000E-03 0.  1.
         11   -1    0    0    0    0 -0.00000000000E+00 -0.00000000000E+00 -0.45593999997E+02  0.45594000000E+02  0.51100000000E-03 0. -1.
    9900012    2    1    2    0    0 -0.21643809245E+02  0.12558027607E+02 -0.35460735504E+02  0.47787282281E+02  0.20000051232E+02 0.  0.
        -12    1    1    2    0    0  0.21643809245E+02 -0.12558027607E+02  0.35460735504E+02  0.43400717719E+02  0.00000000000E+00 0.  1.
         11    1    3    3    0    0 -0.48350494373E+01 -0.12943383133E+01 -0.43534878273E+00  0.50241958117E+01  0.51100000000E-03 0. -1.
        -11    1    3    3    0    0 -0.71086080741E+01  0.89728452409E+01 -0.26795489638E+02  0.29138334298E+02  0.51100000000E-03 0.  1.
         12    1    3    3    0    0 -0.97001517339E+01  0.48795206790E+01 -0.82298970832E+01  0.13624752171E+02  0.00000000000E+00 0. -1.
</event>
<event>
 7    1  0.2642243E-009  0.4778727E+02  0.7816164E-02  0.1312668E+00
        -11   -1    0    0    0    0  0.00000000000E+00  0.00000000000E+00  0.45593999997E+02  0.45594000000E+02  0.51100000000E-03 0. -1.
         11   -1    0    0    0    0 -0.00000000000E+00 -0.00000000000E+00 -0.45593999997E+02  0.45594000000E+02  0.51100000000E-03 0.  1.
    9900012    2    1    2    0    0  0.41068150627E+02 -0.27116849432E+01  0.13772338120E+02  0.47787268111E+02  0.19999986626E+02 0.  0.
        -12    1    1    2    0    0 -0.41068150627E+02  0.27116849432E+01 -0.13772338120E+02  0.43400731889E+02  0.00000000000E+00 0.  1.
         11    1    3    3    0    0  0.34923439239E+02  0.54628622917E+00  0.14208466184E+02  0.37707102096E+02  0.51100000000E-03 0. -1.
        -11    1    3    3    0    0  0.68079628962E+00 -0.23568875478E+01 -0.30850038863E+01  0.39415291120E+01  0.51100000000E-03 0.  1.
        -12    1    3    3    0    0  0.54639150993E+01 -0.90108362453E+00  0.26488758223E+01  0.61386369035E+01  0.00000000000E+00 0.  1.
</event>
<event>
 7    1  0.2642243E-009  0.4778727E+02  0.7816164E-02  0.1312668E+00
        -11   -1    0    0    0    0  0.00000000000E+00  0.00000000000E+00  0.45593999997E+02  0.45594000000E+02  0.51100000000E-03 0.  1.
         11   -1    0    0    0    0 -0.00000000000E+00 -0.00000000000E+00 -0.45593999997E+02  0.45594000000E+02  0.51100000000E-03 0. -1.
    9900012    2    1    2    0    0 -0.28711164068E+02  0.18844756892E+02 -0.26536157470E+02  0.47787268927E+02  0.19999990344E+02 0.  0.
        -12    1    1    2    0    0  0.28711164068E+02 -0.18844756892E+02  0.26536157470E+02  0.43400731073E+02  0.00000000000E+00 0.  1.
         11    1    3    3    0    0 -0.25832407751E+01  0.18492725358E+01 -0.21995715680E+01  0.38640726129E+01  0.51100000000E-03 0. -1.
        -11    1    3    3    0    0 -0.26408516615E+02  0.15501488371E+02 -0.14342904158E+02  0.33814564783E+02  0.51100000000E-03 0.  1.
        -12    1    3    3    0    0  0.28059332265E+00  0.14939959848E+01 -0.99936817440E+01  0.10108631530E+02  0.00000000000E+00 0.  1.
</event>
<event>
 7    1  0.2642243E-009  0.4778729E+02  0.7816164E-02  0.1312668E+00
        -11   -1    0    0    0    0  0.00000000000E+00  0.00000000000E+00  0.45593999997E+02  0.45594000000E+02  0.51100000000E-03 0. -1.
         11   -1    0    0    0    0 -0.00000000000E+00 -0.00000000000E+00 -0.45593999997E+02  0.45594000000E+02  0.51100000000E-03 0.  1.
    9900012    2    1    2    0    0 -0.15091961428E+02 -0.36160661113E+02  0.18661742273E+02  0.47787293364E+02  0.20000101764E+02 0.  0.
        -12    1    1    2    0    0  0.15091961428E+02  0.36160661113E+02 -0.18661742273E+02  0.43400706636E+02  0.00000000000E+00 0.  1.
         11    1    3    3    0    0 -0.72753845122E+01 -0.15468019717E+02  0.90642632610E+01  0.19348171037E+02  0.51100000000E-03 0. -1.
        -11    1    3    3    0    0 -0.43361091812E+01 -0.64248899079E+00  0.65217864474E+01  0.78580107955E+01  0.51100000000E-03 0.  1.
        -12    1    3    3    0    0 -0.34804677346E+01 -0.20050152405E+02  0.30756925644E+01  0.20581111531E+02  0.00000000000E+00 0.  1.
</event>
<event>
 7    1  0.2642243E-009  0.4778727E+02  0.7816164E-02  0.1312668E+00
        -11   -1    0    0    0    0  0.00000000000E+00  0.00000000000E+00  0.45593999997E+02  0.45594000000E+02  0.51100000000E-03 0. -1.
         11   -1    0    0    0    0 -0.00000000000E+00 -0.00000000000E+00 -0.45593999997E+02  0.45594000000E+02  0.51100000000E-03 0.  1.
    9900012    2    1    2    0    0  0.12867044246E+02 -0.16810979926E+02  0.37887379197E+02  0.47787269867E+02  0.19999994629E+02 0.  0.
        -12    1    1    2    0    0 -0.12867044246E+02  0.16810979926E+02 -0.37887379197E+02  0.43400730133E+02  0.00000000000E+00 0.  1.
         11    1    3    3    0    0  0.77766361619E+01 -0.10300888064E+02  0.92140211776E+01  0.15858201393E+02  0.51100000000E-03 0.  1.
        -11    1    3    3    0    0  0.93057043527E+00 -0.53724195351E+01  0.37076038774E+01  0.65935710938E+01  0.51100000000E-03 0. -1.
         12    1    3    3    0    0  0.41598376487E+01 -0.11376723269E+01  0.24965754142E+02  0.25335497379E+02  0.00000000000E+00 0. -1.
</event>
<event>
 7    1  0.2642243E-009  0.4778727E+02  0.7816164E-02  0.1312668E+00
        -11   -1    0    0    0    0  0.00000000000E+00  0.00000000000E+00  0.45593999997E+02  0.45594000000E+02  0.51100000000E-03 0. -1.
         11   -1    0    0    0    0 -0.00000000000E+00 -0.00000000000E+00 -0.45593999997E+02  0.45594000000E+02  0.51100000000E-03 0.  1.
    9900012    2    1    2    0    0  0.15003724618E+02 -0.40627734766E+02 -0.28104393852E+01  0.47787272423E+02  0.20000006287E+02 0.  0.
        -12    1    1    2    0    0 -0.15003724618E+02  0.40627734766E+02  0.28104393852E+01  0.43400727577E+02  0.00000000000E+00 0.  1.
         11    1    3    3    0    0 -0.29635747468E+01 -0.10519399508E+02 -0.43237107751E+01  0.11753085400E+02  0.51100000000E-03 0.  1.
        -11    1    3    3    0    0  0.90695262078E+01 -0.11995839482E+02 -0.30499826858E+01  0.15344668949E+02  0.51100000000E-03 0. -1.
         12    1    3    3    0    0  0.88977731568E+01 -0.18112495776E+02  0.45632540757E+01  0.20689518074E+02  0.00000000000E+00 0. -1.
</event>
<event>
 7    1  0.2642243E-009  0.4778727E+02  0.7816164E-02  0.1312668E+00
        -11   -1    0    0    0    0  0.00000000000E+00  0.00000000000E+00  0.45593999997E+02  0.45594000000E+02  0.51100000000E-03 0. -1.
         11   -1    0    0    0    0 -0.00000000000E+00 -0.00000000000E+00 -0.45593999997E+02  0.45594000000E+02  0.51100000000E-03 0.  1.
    9900012    2    1    2    0    0  0.34345503758E+02  0.16834391111E+02  0.20508851336E+02  0.47787270334E+02  0.19999996759E+02 0.  0.
        -12    1    1    2    0    0 -0.34345503758E+02 -0.16834391111E+02 -0.20508851336E+02  0.43400729666E+02  0.00000000000E+00 0.  1.
         11    1    3    3    0    0 -0.17981766648E+01  0.21178631575E+01 -0.19076103172E-02  0.27782706082E+01  0.51100000000E-03 0. -1.
        -11    1    3    3    0    0  0.48940801847E+01 -0.95277861348E+00  0.37608579168E+01  0.62453070758E+01  0.51100000000E-03 0.  1.
         12    1    3    3    0    0  0.31249600238E+02  0.15669306567E+02  0.16749901030E+02  0.38763692650E+02  0.00000000000E+00 0. -1.
</event>
<event>
 7    1  0.2642243E-009  0.4778727E+02  0.7816164E-02  0.1312668E+00
        -11   -1    0    0    0    0  0.00000000000E+00  0.00000000000E+00  0.45593999997E+02  0.45594000000E+02  0.51100000000E-03 0. -1.
         11   -1    0    0    0    0 -0.00000000000E+00 -0.00000000000E+00 -0.45593999997E+02  0.45594000000E+02  0.51100000000E-03 0.  1.
    9900012    2    1    2    0    0 -0.18066255420E+02  0.37441113793E+02 -0.12465810729E+02  0.47787273922E+02  0.20000013120E+02 0.  0.
        -12    1    1    2    0    0  0.18066255420E+02 -0.37441113793E+02  0.12465810729E+02  0.43400726078E+02  0.00000000000E+00 0.  1.
         11    1    3    3    0    0 -0.85695295473E+01  0.88867548653E+01  0.41040456507E+00  0.12352314798E+02  0.51100000000E-03 0. -1.
        -11    1    3    3    0    0 -0.62595909132E+01  0.20494194355E+02 -0.15401480483E+02  0.26389393362E+02  0.51100000000E-03 0.  1.
        -12    1    3    3    0    0 -0.32371349591E+01  0.80601645730E+01  0.25252651891E+01  0.90455657624E+01  0.00000000000E+00 0.  1.
</event>
<event>
 7    1  0.2642243E-009  0.4778727E+02  0.7816164E-02  0.1312668E+00
        -11   -1    0    0    0    0  0.00000000000E+00  0.00000000000E+00  0.45593999997E+02  0.45594000000E+02  0.51100000000E-03 0.  1.
         11   -1    0    0    0    0 -0.00000000000E+00 -0.00000000000E+00 -0.45593999997E+02  0.45594000000E+02  0.51100000000E-03 0. -1.
    9900012    2    1    2    0    0  0.42517621558E+02 -0.85727124336E+01 -0.15439675402E+01  0.47787269854E+02  0.19999994573E+02 0.  0.
        -12    1    1    2    0    0 -0.42517621558E+02  0.85727124336E+01  0.15439675402E+01  0.43400730146E+02  0.00000000000E+00 0.  1.
         11    1    3    3    0    0  0.19758169808E+02 -0.59448875271E+01 -0.68530918927E+01  0.21741477195E+02  0.51100000000E-03 0. -1.
        -11    1    3    3    0    0  0.62991370646E+00 -0.20505152321E+01 -0.17946868305E+01  0.27968384070E+01  0.51100000000E-03 0.  1.
        -12    1    3    3    0    0  0.22129538044E+02 -0.57730967443E+00  0.71038111830E+01  0.23248954252E+02  0.00000000000E+00 0.  1.
</event>
<event>
 7    1  0.2642243E-009  0.4778727E+02  0.7816164E-02  0.1312668E+00
        -11   -1    0    0    0    0  0.00000000000E+00  0.00000000000E+00  0.45593999997E+02  0.45594000000E+02  0.51100000000E-03 0.  1.
         11   -1    0    0    0    0 -0.00000000000E+00 -0.00000000000E+00 -0.45593999997E+02  0.45594000000E+02  0.51100000000E-03 0. -1.
    9900012    2    1    2    0    0 -0.80461662553E+01 -0.18634060897E+02 -0.38362145910E+02  0.47787271254E+02  0.20000000955E+02 0.  0.
        -12    1    1    2    0    0  0.80461662553E+01  0.18634060897E+02  0.38362145910E+02  0.43400728746E+02  0.00000000000E+00 0.  1.
         11    1    3    3    0    0 -0.13562965725E+01 -0.17828247964E+02 -0.30952005053E+02  0.35745105720E+02  0.51100000000E-03 0. -1.
        -11    1    3    3    0    0  0.19958186277E-01  0.16891637131E+01  0.67023540276E-01  0.16906107757E+01  0.51100000000E-03 0.  1.
         12    1    3    3    0    0 -0.67098278691E+01 -0.24949766452E+01 -0.74771643970E+01  0.10351554758E+02  0.00000000000E+00 0. -1.
</event>
<event>
 7    1  0.2642243E-009  0.4778727E+02  0.7816164E-02  0.1312668E+00
        -11   -1    0    0    0    0  0.00000000000E+00  0.00000000000E+00  0.45593999997E+02  0.45594000000E+02  0.51100000000E-03 0. -1.
         11   -1    0    0    0    0 -0.00000000000E+00 -0.00000000000E+00 -0.45593999997E+02  0.45594000000E+02  0.51100000000E-03 0.  1.
    9900012    2    1    2    0    0  0.28684432913E+02 -0.88504329675E+01  0.31344795600E+02  0.47787273434E+02  0.20000010894E+02 0.  0.
        -12    1    1    2    0    0 -0.28684432913E+02  0.88504329675E+01 -0.31344795600E+02  0.43400726566E+02  0.00000000000E+00 0.  1.
         11    1    3    3    0    0  0.12065882791E+02 -0.84267975846E+01  0.64830597219E+01  0.16081868942E+02  0.51100000000E-03 0. -1.
        -11    1    3    3    0    0  0.51080606858E+01  0.44266976232E+01  0.57510540744E+01  0.88748272684E+01  0.51100000000E-03 0.  1.
         12    1    3    3    0    0  0.11510489436E+02 -0.48503330061E+01  0.19110681804E+02  0.22830577223E+02  0.00000000000E+00 0. -1.
</event>
<event>
 7    1  0.2642243E-009  0.4778727E+02  0.7816164E-02  0.1312668E+00
        -11   -1    0    0    0    0  0.00000000000E+00  0.00000000000E+00  0.45593999997E+02  0.45594000000E+02  0.51100000000E-03 0. -1.
         11   -1    0    0    0    0 -0.00000000000E+00 -0.00000000000E+00 -0.45593999997E+02  0.45594000000E+02  0.51100000000E-03 0.  1.
    9900012    2    1    2    0    0  0.76530311535E+01  0.25777180939E+02  0.34067451031E+02  0.47787272325E+02  0.20000005837E+02 0.  0.
        -12    1    1    2    0    0 -0.76530311535E+01 -0.25777180939E+02 -0.34067451031E+02  0.43400727675E+02  0.00000000000E+00 0.  1.
         11    1    3    3    0    0  0.43490895695E+01  0.13467405063E+02  0.28294135732E+02  0.31636113799E+02  0.51100000000E-03 0. -1.
        -11    1    3    3    0    0  0.42098420163E+01  0.12976615089E+02  0.43132284317E+01  0.14308013445E+02  0.51100000000E-03 0.  1.
        -12    1    3    3    0    0 -0.90590043231E+00 -0.66683921328E+00  0.14600868674E+01  0.18431450811E+01  0.00000000000E+00 0.  1.
</event>
<event>
 7    1  0.2642243E-009  0.4778728E+02  0.7816164E-02  0.1312668E+00
        -11   -1    0    0    0    0  0.00000000000E+00  0.00000000000E+00  0.45593999997E+02  0.45594000000E+02  0.51100000000E-03 0.  1.
         11   -1    0    0    0    0 -0.00000000000E+00 -0.00000000000E+00 -0.45593999997E+02  0.45594000000E+02  0.51100000000E-03 0. -1.
    9900012    2    1    2    0    0  0.41045649101E+02 -0.11453906535E+02 -0.82271229249E+01  0.47787276082E+02  0.20000022966E+02 0.  0.
        -12    1    1    2    0    0 -0.41045649101E+02  0.11453906535E+02  0.82271229249E+01  0.43400723918E+02  0.00000000000E+00 0.  1.
         11    1    3    3    0    0  0.13028682927E+02  0.13872309497E+01 -0.82777634587E+01  0.15498140426E+02  0.51100000000E-03 0.  1.
        -11    1    3    3    0    0  0.10852058402E+02 -0.88751333604E+01  0.32325632274E+01  0.14386960381E+02  0.51100000000E-03 0. -1.
        -12    1    3    3    0    0  0.17164907772E+02 -0.39660041242E+01 -0.31819226935E+01  0.17902175275E+02  0.00000000000E+00 0.  1.
</event>
<event>
 7    1  0.2642243E-009  0.4778728E+02  0.7816164E-02  0.1312668E+00
        -11   -1    0    0    0    0  0.00000000000E+00  0.00000000000E+00  0.45593999997E+02  0.45594000000E+02  0.51100000000E-03 0.  1.
         11   -1    0    0    0    0 -0.00000000000E+00 -0.00000000000E+00 -0.45593999997E+02  0.45594000000E+02  0.51100000000E-03 0. -1.
    9900012    2    1    2    0    0 -0.22697961788E+02  0.27841336155E+02 -0.24357449284E+02  0.47787276459E+02  0.20000024689E+02 0.  0.
        -12    1    1    2    0    0  0.22697961788E+02 -0.27841336155E+02  0.24357449284E+02  0.43400723541E+02  0.00000000000E+00 0.  1.
         11    1    3    3    0    0 -0.75517778654E+01  0.83551128491E+01  0.13826270245E+01  0.11346758013E+02  0.51100000000E-03 0. -1.
        -11    1    3    3    0    0 -0.19014405522E+01  0.35600985835E+01 -0.97021483221E+00  0.41510354346E+01  0.51100000000E-03 0.  1.
         12    1    3    3    0    0 -0.13244743371E+02  0.15926124722E+02 -0.24769861476E+02  0.32289483012E+02  0.00000000000E+00 0. -1.
</event>
<event>
 7    1  0.2642243E-009  0.4778727E+02  0.7816164E-02  0.1312668E+00
        -11   -1    0    0    0    0  0.00000000000E+00  0.00000000000E+00  0.45593999997E+02  0.45594000000E+02  0.51100000000E-03 0.  1.
         11   -1    0    0    0    0 -0.00000000000E+00 -0.00000000000E+00 -0.45593999997E+02  0.45594000000E+02  0.51100000000E-03 0. -1.
    9900012    2    1    2    0    0 -0.11384914934E+02  0.16147902858E+01 -0.41849724759E+02  0.47787270765E+02  0.19999998727E+02 0.  0.
        -12    1    1    2    0    0  0.11384914934E+02 -0.16147902858E+01  0.41849724759E+02  0.43400729235E+02  0.00000000000E+00 0.  1.
         11    1    3    3    0    0 -0.29214165519E+01 -0.49816366865E+01 -0.27758712630E+02  0.28353086356E+02  0.51100000000E-03 0. -1.
        -11    1    3    3    0    0 -0.32864140809E+01  0.43053229493E+01 -0.14864429769E+01  0.56165680085E+01  0.51100000000E-03 0.  1.
        -12    1    3    3    0    0 -0.51770843013E+01  0.22911040230E+01 -0.12604569151E+02  0.13817616401E+02  0.00000000000E+00 0.  1.
</event>
<event>
 7    1  0.2642243E-009  0.4778727E+02  0.7816164E-02  0.1312668E+00
        -11   -1    0    0    0    0  0.00000000000E+00  0.00000000000E+00  0.45593999997E+02  0.45594000000E+02  0.51100000000E-03 0.  1.
         11   -1    0    0    0    0 -0.00000000000E+00 -0.00000000000E+00 -0.45593999997E+02  0.45594000000E+02  0.51100000000E-03 0. -1.
    9900012    2    1    2    0    0 -0.23823608118E+02 -0.27276867341E+02 -0.23917187728E+02  0.47787266544E+02  0.19999979480E+02 0.  0.
        -12    1    1    2    0    0  0.23823608118E+02  0.27276867341E+02  0.23917187728E+02  0.43400733456E+02  0.00000000000E+00 0.  1.
         11    1    3    3    0    0 -0.40073498765E+01 -0.67864678152E+01 -0.41874563492E+01  0.89246730683E+01  0.51100000000E-03 0. -1.
        -11    1    3    3    0    0 -0.11668009862E+02 -0.20767482383E+02 -0.91773003095E+01  0.25527507122E+02  0.51100000000E-03 0.  1.
        -12    1    3    3    0    0 -0.81482483798E+01  0.27708285665E+00 -0.10552431069E+02  0.13335086353E+02  0.00000000000E+00 0.  1.
</event>
<event>
 7    1  0.2642243E-009  0.4778727E+02  0.7816164E-02  0.1312668E+00
        -11   -1    0    0    0    0  0.00000000000E+00  0.00000000000E+00  0.45593999997E+02  0.45594000000E+02  0.51100000000E-03 0.  1.
         11   -1    0    0    0    0 -0.00000000000E+00 -0.00000000000E+00 -0.45593999997E+02  0.45594000000E+02  0.51100000000E-03 0. -1.
    9900012    2    1    2    0    0 -0.43888627721E+01  0.25607467657E+02 -0.34765191229E+02  0.47787273769E+02  0.20000012422E+02 0.  0.
        -12    1    1    2    0    0  0.43888627721E+01 -0.25607467657E+02  0.34765191229E+02  0.43400726231E+02  0.00000000000E+00 0.  1.
         11    1    3    3    0    0 -0.44898319902E+00  0.26887128633E+01 -0.14010797083E+02  0.14273513860E+02  0.51100000000E-03 0. -1.
        -11    1    3    3    0    0 -0.19492069427E+01 -0.10739660425E+01 -0.14674284268E+01  0.26657376493E+01  0.51100000000E-03 0.  1.
         12    1    3    3    0    0 -0.19906726304E+01  0.23992720836E+02 -0.19286965719E+02  0.30848022259E+02  0.00000000000E+00 0. -1.
</event>
<event>
 7    1  0.2642243E-009  0.4778728E+02  0.7816164E-02  0.1312668E+00
        -11   -1    0    0    0    0  0.00000000000E+00  0.00000000000E+00  0.45593999997E+02  0.45594000000E+02  0.51100000000E-03 0.  1.
         11   -1    0    0    0    0 -0.00000000000E+00 -0.00000000000E+00 -0.45593999997E+02  0.45594000000E+02  0.51100000000E-03 0. -1.
    9900012    2    1    2    0    0 -0.41483403508E+02 -0.11430408609E+01 -0.12706020481E+02  0.47787282662E+02  0.20000052967E+02 0.  0.
        -12    1    1    2    0    0  0.41483403508E+02  0.11430408609E+01  0.12706020481E+02  0.43400717338E+02  0.00000000000E+00 0.  1.
         11    1    3    3    0    0 -0.19221026041E+02  0.18892957368E+01 -0.13492041628E+02  0.23559551523E+02  0.51100000000E-03 0. -1.
        -11    1    3    3    0    0 -0.15547657372E+01 -0.31287156456E+01 -0.16972187647E+00  0.34978513211E+01  0.51100000000E-03 0.  1.
         12    1    3    3    0    0 -0.20707611731E+02  0.96379047860E-01  0.95574302351E+00  0.20729879817E+02  0.00000000000E+00 0. -1.
</event>
<event>
 7    1  0.2642243E-009  0.4778727E+02  0.7816164E-02  0.1312668E+00
        -11   -1    0    0    0    0  0.00000000000E+00  0.00000000000E+00  0.45593999997E+02  0.45594000000E+02  0.51100000000E-03 0.  1.
         11   -1    0    0    0    0 -0.00000000000E+00 -0.00000000000E+00 -0.45593999997E+02  0.45594000000E+02  0.51100000000E-03 0. -1.
    9900012    2    1    2    0    0  0.17123753791E+02 -0.39344038364E+02 -0.65151377579E+01  0.47787270528E+02  0.19999997644E+02 0.  0.
        -12    1    1    2    0    0 -0.17123753791E+02  0.39344038364E+02  0.65151377579E+01  0.43400729472E+02  0.00000000000E+00 0.  1.
         11    1    3    3    0    0  0.66674313334E+01 -0.10788040688E+02 -0.20341286162E+01  0.12844226016E+02  0.51100000000E-03 0. -1.
        -11    1    3    3    0    0  0.52876185881E+01 -0.84287029713E+01 -0.92908524472E+01  0.13613298042E+02  0.51100000000E-03 0.  1.
        -12    1    3    3    0    0  0.51687038695E+01 -0.20127294705E+02  0.48098433055E+01  0.21329746470E+02  0.00000000000E+00 0.  1.
</event>
<event>
 7    1  0.2642243E-009  0.4778728E+02  0.7816164E-02  0.1312668E+00
        -11   -1    0    0    0    0  0.00000000000E+00  0.00000000000E+00  0.45593999997E+02  0.45594000000E+02  0.51100000000E-03 0. -1.
         11   -1    0    0    0    0 -0.00000000000E+00 -0.00000000000E+00 -0.45593999997E+02  0.45594000000E+02  0.51100000000E-03 0.  1.
    9900012    2    1    2    0    0 -0.23310875554E+02  0.11032372938E+01  0.36592468670E+02  0.47787276331E+02  0.20000024105E+02 0.  0.
        -12    1    1    2    0    0  0.23310875554E+02 -0.11032372938E+01 -0.36592468670E+02  0.43400723669E+02  0.00000000000E+00 0.  1.
         11    1    3    3    0    0 -0.42396491843E+00 -0.18809628082E+01 -0.13858486867E+01  0.23745197791E+01  0.51100000000E-03 0. -1.
        -11    1    3    3    0    0 -0.91440083760E+00 -0.17781622618E+01  0.59819395282E+01  0.63072649144E+01  0.51100000000E-03 0.  1.
         12    1    3    3    0    0 -0.21972509798E+02  0.47623623638E+01  0.31996377828E+02  0.39105491638E+02  0.00000000000E+00 0. -1.
</event>
<event>
 7    1  0.2642243E-009  0.4778728E+02  0.7816164E-02  0.1312668E+00
        -11   -1    0    0    0    0  0.00000000000E+00  0.00000000000E+00  0.45593999997E+02  0.45594000000E+02  0.51100000000E-03 0. -1.
         11   -1    0    0    0    0 -0.00000000000E+00 -0.00000000000E+00 -0.45593999997E+02  0.45594000000E+02  0.51100000000E-03 0.  1.
    9900012    2    1    2    0    0 -0.30055670719E+02 -0.29375599552E+02  0.10832978017E+02  0.47787278760E+02  0.20000035179E+02 0.  0.
        -12    1    1    2    0    0  0.30055670719E+02  0.29375599552E+02 -0.10832978017E+02  0.43400721240E+02  0.00000000000E+00 0.  1.
         11    1    3    3    0    0 -0.87702241753E+01 -0.62202582606E+01  0.66200787802E+01  0.12626713279E+02  0.51100000000E-03 0. -1.
        -11    1    3    3    0    0 -0.10623567415E+02 -0.34245692684E+01 -0.30771517084E+01  0.11578286669E+02  0.51100000000E-03 0.  1.
        -12    1    3    3    0    0 -0.10661879129E+02 -0.19730772023E+02  0.72900509451E+01  0.23582278812E+02  0.00000000000E+00 0.  1.
</event>
<event>
 7    1  0.2642243E-009  0.4778727E+02  0.7816164E-02  0.1312668E+00
        -11   -1    0    0    0    0  0.00000000000E+00  0.00000000000E+00  0.45593999997E+02  0.45594000000E+02  0.51100000000E-03 0.  1.
         11   -1    0    0    0    0 -0.00000000000E+00 -0.00000000000E+00 -0.45593999997E+02  0.45594000000E+02  0.51100000000E-03 0. -1.
    9900012    2    1    2    0    0  0.10056629362E+02 -0.36200458253E+02 -0.21725897000E+02  0.47787267606E+02  0.19999984322E+02 0.  0.
        -12    1    1    2    0    0 -0.10056629362E+02  0.36200458253E+02  0.21725897000E+02  0.43400732394E+02  0.00000000000E+00 0.  1.
         11    1    3    3    0    0 -0.29439300260E+01  0.57473079730E+00 -0.22024328968E+01  0.37212565638E+01  0.51100000000E-03 0. -1.
        -11    1    3    3    0    0  0.10196400939E+02 -0.20364982496E+02 -0.12674245446E+02  0.26064067258E+02  0.51100000000E-03 0.  1.
         12    1    3    3    0    0  0.28041584498E+01 -0.16410206555E+02 -0.68492186571E+01  0.18001943784E+02  0.00000000000E+00 0. -1.
</event>
<event>
 7    1  0.2642243E-009  0.4778726E+02  0.7816164E-02  0.1312668E+00
        -11   -1    0    0    0    0  0.00000000000E+00  0.00000000000E+00  0.45593999997E+02  0.45594000000E+02  0.51100000000E-03 0.  1.
         11   -1    0    0    0    0 -0.00000000000E+00 -0.00000000000E+00 -0.45593999997E+02  0.45594000000E+02  0.51100000000E-03 0. -1.
    9900012    2    1    2    0    0  0.38236262929E+02 -0.18203602776E+02 -0.94995443009E+01  0.47787259238E+02  0.19999946169E+02 0.  0.
        -12    1    1    2    0    0 -0.38236262929E+02  0.18203602776E+02  0.94995443009E+01  0.43400740762E+02  0.00000000000E+00 0.  1.
         11    1    3    3    0    0  0.37257077825E+01 -0.87552645485E+01  0.98935017869E+00  0.95663143286E+01  0.51100000000E-03 0. -1.
        -11    1    3    3    0    0  0.13074092349E+02 -0.26668426730E+01 -0.81034071506E+01  0.15611186640E+02  0.51100000000E-03 0.  1.
         12    1    3    3    0    0  0.21436462798E+02 -0.67814955541E+01 -0.23854873290E+01  0.22609758270E+02  0.00000000000E+00 0. -1.
</event>
<event>
 7    1  0.2642243E-009  0.4778728E+02  0.7816164E-02  0.1312668E+00
        -11   -1    0    0    0    0  0.00000000000E+00  0.00000000000E+00  0.45593999997E+02  0.45594000000E+02  0.51100000000E-03 0. -1.
         11   -1    0    0    0    0 -0.00000000000E+00 -0.00000000000E+00 -0.45593999997E+02  0.45594000000E+02  0.51100000000E-03 0.  1.
    9900012    2    1    2    0    0 -0.35413736133E+02  0.24477163788E+02 -0.55098562751E+01  0.47787276847E+02  0.20000026456E+02 0.  0.
        -12    1    1    2    0    0  0.35413736133E+02 -0.24477163788E+02  0.55098562751E+01  0.43400723153E+02  0.00000000000E+00 0.  1.
         11    1    3    3    0    0 -0.90596165816E+01  0.13053013231E+01 -0.67664767721E+01  0.11382691787E+02  0.51100000000E-03 0. -1.
        -11    1    3    3    0    0  0.10084412854E+00 -0.39022175390E+00 -0.82373931290E+00  0.91705467243E+00  0.51100000000E-03 0.  1.
         12    1    3    3    0    0 -0.26454963680E+02  0.23562084219E+02  0.20803598100E+01  0.35487530387E+02  0.00000000000E+00 0. -1.
</event>
<event>
 7    1  0.2642243E-009  0.4778727E+02  0.7816164E-02  0.1312668E+00
        -11   -1    0    0    0    0  0.00000000000E+00  0.00000000000E+00  0.45593999997E+02  0.45594000000E+02  0.51100000000E-03 0. -1.
         11   -1    0    0    0    0 -0.00000000000E+00 -0.00000000000E+00 -0.45593999997E+02  0.45594000000E+02  0.51100000000E-03 0.  1.
    9900012    2    1    2    0    0  0.54298589798E+01  0.23200719618E+01  0.42997181344E+02  0.47787266066E+02  0.19999977301E+02 0.  0.
        -12    1    1    2    0    0 -0.54298589798E+01 -0.23200719618E+01 -0.42997181344E+02  0.43400733934E+02  0.00000000000E+00 0.  1.
         11    1    3    3    0    0  0.83254950122E+01 -0.48986851777E+01  0.28522846589E+02  0.30114178745E+02  0.51100000000E-03 0. -1.
        -11    1    3    3    0    0 -0.53095260947E+00  0.30079764327E+01  0.78047739464E+00  0.31526144892E+01  0.51100000000E-03 0.  1.
         12    1    3    3    0    0 -0.23646834229E+01  0.42107807068E+01  0.13693857361E+02  0.14520472832E+02  0.00000000000E+00 0. -1.
</event>
<event>
 7    1  0.2642243E-009  0.4778726E+02  0.7816164E-02  0.1312668E+00
        -11   -1    0    0    0    0  0.00000000000E+00  0.00000000000E+00  0.45593999997E+02  0.45594000000E+02  0.51100000000E-03 0.  1.
         11   -1    0    0    0    0 -0.00000000000E+00 -0.00000000000E+00 -0.45593999997E+02  0.45594000000E+02  0.51100000000E-03 0. -1.
    9900012    2    1    2    0    0  0.91902225531E+01 -0.29923275774E+02 -0.30062621358E+02  0.47787264677E+02  0.19999970969E+02 0.  0.
        -12    1    1    2    0    0 -0.91902225531E+01  0.29923275774E+02  0.30062621358E+02  0.43400735323E+02  0.00000000000E+00 0.  1.
         11    1    3    3    0    0  0.34178080248E+01 -0.62376430285E+01 -0.14084577130E+02  0.15778622102E+02  0.51100000000E-03 0. -1.
        -11    1    3    3    0    0  0.68254701690E+01 -0.15490235039E+02 -0.38935185362E+01  0.17369338256E+02  0.51100000000E-03 0.  1.
        -12    1    3    3    0    0 -0.10530556407E+01 -0.81953977067E+01 -0.12084525692E+02  0.14639304319E+02  0.00000000000E+00 0.  1.
</event>
<event>
 7    1  0.2642243E-009  0.4778726E+02  0.7816164E-02  0.1312668E+00
        -11   -1    0    0    0    0  0.00000000000E+00  0.00000000000E+00  0.45593999997E+02  0.45594000000E+02  0.51100000000E-03 0. -1.
         11   -1    0    0    0    0 -0.00000000000E+00 -0.00000000000E+00 -0.45593999997E+02  0.45594000000E+02  0.51100000000E-03 0.  1.
    9900012    2    1    2    0    0  0.39511749991E+02  0.17806905031E+02  0.23152439758E+01  0.47787255666E+02  0.19999929883E+02 0.  0.
        -12    1    1    2    0    0 -0.39511749991E+02 -0.17806905031E+02 -0.23152439758E+01  0.43400744334E+02  0.00000000000E+00 0.  1.
         11    1    3    3    0    0  0.22491270107E+02  0.63729183614E+00 -0.73701614109E+00  0.22512364713E+02  0.51100000000E-03 0. -1.
        -11    1    3    3    0    0  0.87908774206E+01  0.13358035185E+02  0.13593228857E+01  0.16048812691E+02  0.51100000000E-03 0.  1.
        -12    1    3    3    0    0  0.82296024630E+01  0.38115780094E+01  0.16929372312E+01  0.92260782616E+01  0.00000000000E+00 0.  1.
</event>
<event>
 7    1  0.2642243E-009  0.4778727E+02  0.7816164E-02  0.1312668E+00
        -11   -1    0    0    0    0  0.00000000000E+00  0.00000000000E+00  0.45593999997E+02  0.45594000000E+02  0.51100000000E-03 0.  1.
         11   -1    0    0    0    0 -0.00000000000E+00 -0.00000000000E+00 -0.45593999997E+02  0.45594000000E+02  0.51100000000E-03 0. -1.
    9900012    2    1    2    0    0  0.21408053822E+01  0.29062055147E+02 -0.32162664364E+02  0.47787273323E+02  0.20000010389E+02 0.  0.
        -12    1    1    2    0    0 -0.21408053822E+01 -0.29062055147E+02  0.32162664364E+02  0.43400726677E+02  0.00000000000E+00 0.  1.
         11    1    3    3    0    0 -0.12632039735E+01 -0.72415601460E+00 -0.95139083452E+01  0.96246838116E+01  0.51100000000E-03 0. -1.
        -11    1    3    3    0    0 -0.15152756410E+00  0.48438935404E+00  0.45292277474E+00  0.68024477211E+00  0.51100000000E-03 0.  1.
         12    1    3    3    0    0  0.35555369198E+01  0.29301821808E+02 -0.23101678794E+02  0.37482344739E+02  0.00000000000E+00 0. -1.
</event>
<event>
 7    1  0.2642243E-009  0.4778729E+02  0.7816164E-02  0.1312668E+00
        -11   -1    0    0    0    0  0.00000000000E+00  0.00000000000E+00  0.45593999997E+02  0.45594000000E+02  0.51100000000E-03 0.  1.
         11   -1    0    0    0    0 -0.00000000000E+00 -0.00000000000E+00 -0.45593999997E+02  0.45594000000E+02  0.51100000000E-03 0. -1.
    9900012    2    1    2    0    0  0.26497422350E+02  0.27482171909E+02 -0.20645546395E+02  0.47787288600E+02  0.20000080045E+02 0.  0.
        -12    1    1    2    0    0 -0.26497422350E+02 -0.27482171909E+02  0.20645546395E+02  0.43400711400E+02  0.00000000000E+00 0.  1.
         11    1    3    3    0    0  0.17074261704E+02  0.75167325057E+01 -0.13701955016E+02  0.23146819475E+02  0.51100000000E-03 0. -1.
        -11    1    3    3    0    0  0.68057411932E+01  0.16810088044E+02 -0.20415441746E+01  0.18250070578E+02  0.51100000000E-03 0.  1.
         12    1    3    3    0    0  0.26174194527E+01  0.31553513596E+01 -0.49020472046E+01  0.63903985470E+01  0.00000000000E+00 0. -1.
</event>
<event>
 7    1  0.2642243E-009  0.4778727E+02  0.7816164E-02  0.1312668E+00
        -11   -1    0    0    0    0  0.00000000000E+00  0.00000000000E+00  0.45593999997E+02  0.45594000000E+02  0.51100000000E-03 0.  1.
         11   -1    0    0    0    0 -0.00000000000E+00 -0.00000000000E+00 -0.45593999997E+02  0.45594000000E+02  0.51100000000E-03 0. -1.
    9900012    2    1    2    0    0 -0.63795191596E+01  0.17849838712E+01 -0.42892179320E+02  0.47787268682E+02  0.19999989230E+02 0.  0.
        -12    1    1    2    0    0  0.63795191596E+01 -0.17849838712E+01  0.42892179320E+02  0.43400731318E+02  0.00000000000E+00 0.  1.
         11    1    3    3    0    0  0.97378369481E+00 -0.56610161836E+01 -0.95651093250E+01  0.11157359705E+02  0.51100000000E-03 0.  1.
        -11    1    3    3    0    0 -0.96374046511E+00 -0.24778369636E+01 -0.11632651563E+02  0.11932604676E+02  0.51100000000E-03 0. -1.
         12    1    3    3    0    0 -0.63895623893E+01  0.99238370185E+01 -0.21694418432E+02  0.24697304302E+02  0.00000000000E+00 0. -1.
</event>
<event>
 7    1  0.2642243E-009  0.4778727E+02  0.7816164E-02  0.1312668E+00
        -11   -1    0    0    0    0  0.00000000000E+00  0.00000000000E+00  0.45593999997E+02  0.45594000000E+02  0.51100000000E-03 0.  1.
         11   -1    0    0    0    0 -0.00000000000E+00 -0.00000000000E+00 -0.45593999997E+02  0.45594000000E+02  0.51100000000E-03 0. -1.
    9900012    2    1    2    0    0  0.29580459022E+02  0.29304692141E+02 -0.12241536226E+02  0.47787265598E+02  0.19999975169E+02 0.  0.
        -12    1    1    2    0    0 -0.29580459022E+02 -0.29304692141E+02  0.12241536226E+02  0.43400734402E+02  0.00000000000E+00 0.  1.
         11    1    3    3    0    0  0.94445623477E+01  0.83912801733E+01  0.12660876278E-01  0.12633823706E+02  0.51100000000E-03 0. -1.
        -11    1    3    3    0    0  0.20854824751E+02  0.21260342556E+02 -0.14241871405E+02  0.33011464408E+02  0.51100000000E-03 0.  1.
        -12    1    3    3    0    0 -0.71892807612E+00 -0.34693058810E+00  0.19876743022E+01  0.21419774843E+01  0.00000000000E+00 0.  1.
</event>
<event>
 7    1  0.2642243E-009  0.4778727E+02  0.7816164E-02  0.1312668E+00
        -11   -1    0    0    0    0  0.00000000000E+00  0.00000000000E+00  0.45593999997E+02  0.45594000000E+02  0.51100000000E-03 0.  1.
         11   -1    0    0    0    0 -0.00000000000E+00 -0.00000000000E+00 -0.45593999997E+02  0.45594000000E+02  0.51100000000E-03 0. -1.
    9900012    2    1    2    0    0 -0.16447540828E+02 -0.10789887934E+02 -0.38686947345E+02  0.47787272174E+02  0.20000005150E+02 0.  0.
        -12    1    1    2    0    0  0.16447540828E+02  0.10789887934E+02  0.38686947345E+02  0.43400727826E+02  0.00000000000E+00 0.  1.
         11    1    3    3    0    0 -0.45907884308E+01 -0.42579947171E+01 -0.21287936919E+02  0.22189684900E+02  0.51100000000E-03 0. -1.
        -11    1    3    3    0    0 -0.34549271159E+01 -0.36076627595E+01  0.10602591593E+01  0.51064568644E+01  0.51100000000E-03 0.  1.
        -12    1    3    3    0    0 -0.84018252815E+01 -0.29242304575E+01 -0.18459269585E+02  0.20491130409E+02  0.00000000000E+00 0.  1.
</event>
<event>
 7    1  0.2642243E-009  0.4778727E+02  0.7816164E-02  0.1312668E+00
        -11   -1    0    0    0    0  0.00000000000E+00  0.00000000000E+00  0.45593999997E+02  0.45594000000E+02  0.51100000000E-03 0. -1.
         11   -1    0    0    0    0 -0.00000000000E+00 -0.00000000000E+00 -0.45593999997E+02  0.45594000000E+02  0.51100000000E-03 0.  1.
    9900012    2    1    2    0    0  0.28263520639E+02  0.32859866549E+02 -0.22418802649E+01  0.47787268951E+02  0.19999990454E+02 0.  0.
        -12    1    1    2    0    0 -0.28263520639E+02 -0.32859866549E+02  0.22418802649E+01  0.43400731049E+02  0.00000000000E+00 0.  1.
         11    1    3    3    0    0  0.20769597526E+02  0.28635842744E+02  0.20082630817E+01  0.35431917700E+02  0.51100000000E-03 0. -1.
        -11    1    3    3    0    0 -0.72639503058E+00  0.26222383454E+01 -0.27094129589E+01  0.38398831393E+01  0.51100000000E-03 0.  1.
         12    1    3    3    0    0  0.82203181427E+01  0.16017854595E+01 -0.15407303877E+01  0.85154681112E+01  0.00000000000E+00 0. -1.
</event>
<event>
 7    1  0.2642243E-009  0.4778731E+02  0.7816164E-02  0.1312668E+00
        -11   -1    0    0    0    0  0.00000000000E+00  0.00000000000E+00  0.45593999997E+02  0.45594000000E+02  0.51100000000E-03 0.  1.
         11   -1    0    0    0    0 -0.00000000000E+00 -0.00000000000E+00 -0.45593999997E+02  0.45594000000E+02  0.51100000000E-03 0. -1.
    9900012    2    1    2    0    0 -0.16657744346E+02 -0.30480952267E+02 -0.26020211342E+02  0.47787305351E+02  0.20000156415E+02 0.  0.
        -12    1    1    2    0    0  0.16657744346E+02  0.30480952267E+02  0.26020211342E+02  0.43400694649E+02  0.00000000000E+00 0.  1.
         11    1    3    3    0    0 -0.29678136378E+01 -0.46904510498E+01 -0.11148902153E+02  0.12454166705E+02  0.51100000000E-03 0. -1.
        -11    1    3    3    0    0 -0.14912393820E+02 -0.18262567486E+02 -0.75388660322E+01  0.24753491914E+02  0.51100000000E-03 0.  1.
        -12    1    3    3    0    0  0.12224631119E+01 -0.75279337314E+01 -0.73324431569E+01  0.10579646732E+02  0.00000000000E+00 0.  1.
</event>
<event>
 7    1  0.2642243E-009  0.4778727E+02  0.7816164E-02  0.1312668E+00
        -11   -1    0    0    0    0  0.00000000000E+00  0.00000000000E+00  0.45593999997E+02  0.45594000000E+02  0.51100000000E-03 0. -1.
         11   -1    0    0    0    0 -0.00000000000E+00 -0.00000000000E+00 -0.45593999997E+02  0.45594000000E+02  0.51100000000E-03 0.  1.
    9900012    2    1    2    0    0 -0.10643406559E+02  0.41271402756E+02  0.81861191503E+01  0.47787270336E+02  0.19999996772E+02 0.  0.
        -12    1    1    2    0    0  0.10643406559E+02 -0.41271402756E+02 -0.81861191503E+01  0.43400729664E+02  0.00000000000E+00 0.  1.
         11    1    3    3    0    0 -0.91806411832E+01  0.67470422096E+01  0.26822921863E+01  0.11704761542E+02  0.51100000000E-03 0. -1.
        -11    1    3    3    0    0  0.16904301438E+01  0.17589022351E+01 -0.80028849449E+00  0.25674409592E+01  0.51100000000E-03 0.  1.
         12    1    3    3    0    0 -0.31531955195E+01  0.32765458311E+02  0.63041154585E+01  0.33515067836E+02  0.00000000000E+00 0. -1.
</event>
<event>
 7    1  0.2642243E-009  0.4778727E+02  0.7816164E-02  0.1312668E+00
        -11   -1    0    0    0    0  0.00000000000E+00  0.00000000000E+00  0.45593999997E+02  0.45594000000E+02  0.51100000000E-03 0. -1.
         11   -1    0    0    0    0 -0.00000000000E+00 -0.00000000000E+00 -0.45593999997E+02  0.45594000000E+02  0.51100000000E-03 0.  1.
    9900012    2    1    2    0    0  0.38464463822E+02 -0.21948389776E+01  0.19982261594E+02  0.47787273351E+02  0.20000010518E+02 0.  0.
        -12    1    1    2    0    0 -0.38464463822E+02  0.21948389776E+01 -0.19982261594E+02  0.43400726649E+02  0.00000000000E+00 0.  1.
         11    1    3    3    0    0  0.12652935399E+01  0.90448236841E+00  0.26777261853E+01  0.30966552733E+01  0.51100000000E-03 0. -1.
        -11    1    3    3    0    0  0.23647425093E+02  0.60633546462E+01  0.13495754706E+02  0.27894450675E+02  0.51100000000E-03 0.  1.
        -12    1    3    3    0    0  0.13551745188E+02 -0.91626759922E+01  0.38087807028E+01  0.16796167403E+02  0.00000000000E+00 0.  1.
</event>
<event>
 7    1  0.2642243E-009  0.4778727E+02  0.7816164E-02  0.1312668E+00
        -11   -1    0    0    0    0  0.00000000000E+00  0.00000000000E+00  0.45593999997E+02  0.45594000000E+02  0.51100000000E-03 0.  1.
         11   -1    0    0    0    0 -0.00000000000E+00 -0.00000000000E+00 -0.45593999997E+02  0.45594000000E+02  0.51100000000E-03 0. -1.
    9900012    2    1    2    0    0  0.17281863625E+02  0.25911285315E+02 -0.30225252142E+02  0.47787269775E+02  0.19999994211E+02 0.  0.
        -12    1    1    2    0    0 -0.17281863625E+02 -0.25911285315E+02  0.30225252142E+02  0.43400730225E+02  0.00000000000E+00 0.  1.
         11    1    3    3    0    0  0.27039216277E+01  0.20222228990E+02 -0.20466387182E+02  0.28898490307E+02  0.51100000000E-03 0. -1.
        -11    1    3    3    0    0  0.69529368966E+01  0.79490324526E+00 -0.31525227136E+01  0.76755196813E+01  0.51100000000E-03 0.  1.
        -12    1    3    3    0    0  0.76250051006E+01  0.48941530793E+01 -0.66063422469E+01  0.11213259786E+02  0.00000000000E+00 0.  1.
</event>
<event>
 7    1  0.2642243E-009  0.4778727E+02  0.7816164E-02  0.1312668E+00
        -11   -1    0    0    0    0  0.00000000000E+00  0.00000000000E+00  0.45593999997E+02  0.45594000000E+02  0.51100000000E-03 0. -1.
         11   -1    0    0    0    0 -0.00000000000E+00 -0.00000000000E+00 -0.45593999997E+02  0.45594000000E+02  0.51100000000E-03 0.  1.
    9900012    2    1    2    0    0 -0.36163568581E+02  0.13202001358E+02  0.20038131181E+02  0.47787271508E+02  0.20000002115E+02 0.  0.
        -12    1    1    2    0    0  0.36163568581E+02 -0.13202001358E+02 -0.20038131181E+02  0.43400728492E+02  0.00000000000E+00 0.  1.
         11    1    3    3    0    0 -0.26466646312E+02  0.20913863549E+01  0.78892887638E+01  0.27696536631E+02  0.51100000000E-03 0. -1.
        -11    1    3    3    0    0 -0.87870638658E+01  0.10620265829E+02  0.82658755138E+01  0.16072561586E+02  0.51100000000E-03 0.  1.
         12    1    3    3    0    0 -0.90985840277E+00  0.49034917488E+00  0.38829669034E+01  0.40181732914E+01  0.00000000000E+00 0. -1.
</event>
<event>
 7    1  0.2642243E-009  0.4778725E+02  0.7816164E-02  0.1312668E+00
        -11   -1    0    0    0    0  0.00000000000E+00  0.00000000000E+00  0.45593999997E+02  0.45594000000E+02  0.51100000000E-03 0. -1.
         11   -1    0    0    0    0 -0.00000000000E+00 -0.00000000000E+00 -0.45593999997E+02  0.45594000000E+02  0.51100000000E-03 0.  1.
    9900012    2    1    2    0    0 -0.23885039860E+02  0.16726504177E+02  0.32145823798E+02  0.47787250482E+02  0.19999906248E+02 0.  0.
        -12    1    1    2    0    0  0.23885039860E+02 -0.16726504177E+02 -0.32145823798E+02  0.43400749518E+02  0.00000000000E+00 0.  1.
         11    1    3    3    0    0 -0.25042403893E+02  0.14499746039E+02  0.29336296043E+02  0.41206587989E+02  0.51100000000E-03 0. -1.
        -11    1    3    3    0    0  0.17203055978E+01  0.36276933912E-01  0.37541188133E+01  0.41296701674E+01  0.51100000000E-03 0.  1.
         12    1    3    3    0    0 -0.56294156458E+00  0.21904812041E+01 -0.94459105892E+00  0.24509923254E+01  0.00000000000E+00 0. -1.
</event>
<event>
 7    1  0.2642243E-009  0.4778727E+02  0.7816164E-02  0.1312668E+00
        -11   -1    0    0    0    0  0.00000000000E+00  0.00000000000E+00  0.45593999997E+02  0.45594000000E+02  0.51100000000E-03 0.  1.
         11   -1    0    0    0    0 -0.00000000000E+00 -0.00000000000E+00 -0.45593999997E+02  0.45594000000E+02  0.51100000000E-03 0. -1.
    9900012    2    1    2    0    0 -0.79074193997E+01 -0.41708786184E+02 -0.90262422812E+01  0.47787272169E+02  0.20000005128E+02 0.  0.
        -12    1    1    2    0    0  0.79074193997E+01  0.41708786184E+02  0.90262422812E+01  0.43400727831E+02  0.00000000000E+00 0.  1.
         11    1    3    3    0    0 -0.93781566530E+01 -0.30244840077E+02 -0.98408034791E+01  0.33159336345E+02  0.51100000000E-03 0. -1.
        -11    1    3    3    0    0  0.25462868817E+00 -0.57871017707E+01  0.48521164379E+01  0.75563494401E+01  0.51100000000E-03 0.  1.
         12    1    3    3    0    0  0.12161085651E+01 -0.56768443366E+01 -0.40375552400E+01  0.70715863835E+01  0.00000000000E+00 0. -1.
</event>
<event>
 7    1  0.2642243E-009  0.4778727E+02  0.7816164E-02  0.1312668E+00
        -11   -1    0    0    0    0  0.00000000000E+00  0.00000000000E+00  0.45593999997E+02  0.45594000000E+02  0.51100000000E-03 0.  1.
         11   -1    0    0    0    0 -0.00000000000E+00 -0.00000000000E+00 -0.45593999997E+02  0.45594000000E+02  0.51100000000E-03 0. -1.
    9900012    2    1    2    0    0 -0.33140367338E+02  0.27676599101E+02 -0.43983318967E+01  0.47787269493E+02  0.19999992925E+02 0.  0.
        -12    1    1    2    0    0  0.33140367338E+02 -0.27676599101E+02  0.43983318967E+01  0.43400730507E+02  0.00000000000E+00 0.  1.
         11    1    3    3    0    0 -0.16774128025E+02  0.16560482104E+02  0.31940927490E+01  0.23787037799E+02  0.51100000000E-03 0. -1.
        -11    1    3    3    0    0 -0.47749899288E+01  0.85026795731E+01 -0.71818033661E+01  0.12110920221E+02  0.51100000000E-03 0.  1.
         12    1    3    3    0    0 -0.11591249384E+02  0.26134374237E+01 -0.41062127964E+00  0.11889311472E+02  0.00000000000E+00 0. -1.
</event>
<event>
 7    1  0.2642243E-009  0.4778726E+02  0.7816164E-02  0.1312668E+00
        -11   -1    0    0    0    0  0.00000000000E+00  0.00000000000E+00  0.45593999997E+02  0.45594000000E+02  0.51100000000E-03 0.  1.
         11   -1    0    0    0    0 -0.00000000000E+00 -0.00000000000E+00 -0.45593999997E+02  0.45594000000E+02  0.51100000000E-03 0. -1.
    9900012    2    1    2    0    0  0.62320785339E+01  0.37395947967E+02 -0.21126486795E+02  0.47787260703E+02  0.19999952851E+02 0.  0.
        -12    1    1    2    0    0 -0.62320785339E+01 -0.37395947967E+02  0.21126486795E+02  0.43400739297E+02  0.00000000000E+00 0.  1.
         11    1    3    3    0    0 -0.50587905902E+00  0.77415597425E+00 -0.86094993635E+00  0.12635134146E+01  0.51100000000E-03 0. -1.
        -11    1    3    3    0    0  0.85667431587E+01  0.37699516655E+02 -0.21324278993E+02  0.44151642316E+02  0.51100000000E-03 0.  1.
        -12    1    3    3    0    0 -0.18287855658E+01 -0.10777246626E+01  0.10587421344E+01  0.23721049727E+01  0.00000000000E+00 0.  1.
</event>
<event>
 7    1  0.2642243E-009  0.4778727E+02  0.7816164E-02  0.1312668E+00
        -11   -1    0    0    0    0  0.00000000000E+00  0.00000000000E+00  0.45593999997E+02  0.45594000000E+02  0.51100000000E-03 0. -1.
         11   -1    0    0    0    0 -0.00000000000E+00 -0.00000000000E+00 -0.45593999997E+02  0.45594000000E+02  0.51100000000E-03 0.  1.
    9900012    2    1    2    0    0  0.18702440111E+01 -0.41011660875E+02  0.14077249071E+02  0.47787273257E+02  0.20000010088E+02 0.  0.
        -12    1    1    2    0    0 -0.18702440111E+01  0.41011660875E+02 -0.14077249071E+02  0.43400726743E+02  0.00000000000E+00 0.  1.
         11    1    3    3    0    0  0.34882145699E+01 -0.14849669182E+02  0.98590114787E+01  0.18162610586E+02  0.51100000000E-03 0. -1.
        -11    1    3    3    0    0 -0.60905452140E+01 -0.19364829262E+02 -0.33073336994E+00  0.20302727358E+02  0.51100000000E-03 0.  1.
        -12    1    3    3    0    0  0.44725746553E+01 -0.67971624314E+01  0.45489709627E+01  0.93219353133E+01  0.00000000000E+00 0.  1.
</event>
<event>
 7    1  0.2642243E-009  0.4778727E+02  0.7816164E-02  0.1312668E+00
        -11   -1    0    0    0    0  0.00000000000E+00  0.00000000000E+00  0.45593999997E+02  0.45594000000E+02  0.51100000000E-03 0.  1.
         11   -1    0    0    0    0 -0.00000000000E+00 -0.00000000000E+00 -0.45593999997E+02  0.45594000000E+02  0.51100000000E-03 0. -1.
    9900012    2    1    2    0    0 -0.11838976549E+02  0.35334954028E+02 -0.22246414013E+02  0.47787270993E+02  0.19999999765E+02 0.  0.
        -12    1    1    2    0    0  0.11838976549E+02 -0.35334954028E+02  0.22246414013E+02  0.43400729007E+02  0.00000000000E+00 0.  1.
         11    1    3    3    0    0 -0.91073280772E+01  0.90114524541E+01 -0.12840572641E+02  0.18139184272E+02  0.51100000000E-03 0. -1.
        -11    1    3    3    0    0 -0.17533897659E+01  0.62557158234E+01  0.16670301607E+01  0.67072606892E+01  0.51100000000E-03 0.  1.
         12    1    3    3    0    0 -0.97825870595E+00  0.20067785751E+02 -0.11072871532E+02  0.22940826032E+02  0.00000000000E+00 0. -1.
</event>
<event>
 7    1  0.2642243E-009  0.4778727E+02  0.7816164E-02  0.1312668E+00
        -11   -1    0    0    0    0  0.00000000000E+00  0.00000000000E+00  0.45593999997E+02  0.45594000000E+02  0.51100000000E-03 0.  1.
         11   -1    0    0    0    0 -0.00000000000E+00 -0.00000000000E+00 -0.45593999997E+02  0.45594000000E+02  0.51100000000E-03 0. -1.
    9900012    2    1    2    0    0 -0.25514236943E+02 -0.95025023921E+01 -0.33798662070E+02  0.47787269635E+02  0.19999993572E+02 0.  0.
        -12    1    1    2    0    0  0.25514236943E+02  0.95025023921E+01  0.33798662070E+02  0.43400730365E+02  0.00000000000E+00 0.  1.
         11    1    3    3    0    0 -0.47057854473E+01  0.63212561671E+00 -0.73356631994E+01  0.87381894181E+01  0.51100000000E-03 0. -1.
        -11    1    3    3    0    0 -0.15163787401E+02 -0.10829487516E+02 -0.27548980675E+02  0.33259052673E+02  0.51100000000E-03 0.  1.
        -12    1    3    3    0    0 -0.56446640952E+01  0.69485950694E+00  0.10859818041E+01  0.57900275440E+01  0.00000000000E+00 0.  1.
</event>
<event>
 7    1  0.2642243E-009  0.4778726E+02  0.7816164E-02  0.1312668E+00
        -11   -1    0    0    0    0  0.00000000000E+00  0.00000000000E+00  0.45593999997E+02  0.45594000000E+02  0.51100000000E-03 0.  1.
         11   -1    0    0    0    0 -0.00000000000E+00 -0.00000000000E+00 -0.45593999997E+02  0.45594000000E+02  0.51100000000E-03 0. -1.
    9900012    2    1    2    0    0  0.17084638527E+02  0.17602574385E+02 -0.35803475329E+02  0.47787258714E+02  0.19999943781E+02 0.  0.
        -12    1    1    2    0    0 -0.17084638527E+02 -0.17602574385E+02  0.35803475329E+02  0.43400741286E+02  0.00000000000E+00 0.  1.
         11    1    3    3    0    0  0.14346580130E+02  0.10633501758E+02 -0.28492107455E+02  0.33625822050E+02  0.51100000000E-03 0. -1.
        -11    1    3    3    0    0  0.24870793010E+01  0.10956477331E+01  0.18417773262E+01  0.32830095012E+01  0.51100000000E-03 0.  1.
        -12    1    3    3    0    0  0.25097909590E+00  0.58734248935E+01 -0.91531451994E+01  0.10878427162E+02  0.00000000000E+00 0.  1.
</event>
<event>
 7    1  0.2642243E-009  0.4778727E+02  0.7816164E-02  0.1312668E+00
        -11   -1    0    0    0    0  0.00000000000E+00  0.00000000000E+00  0.45593999997E+02  0.45594000000E+02  0.51100000000E-03 0.  1.
         11   -1    0    0    0    0 -0.00000000000E+00 -0.00000000000E+00 -0.45593999997E+02  0.45594000000E+02  0.51100000000E-03 0. -1.
    9900012    2    1    2    0    0 -0.78162777815E+00  0.42953318136E+02 -0.61664238507E+01  0.47787271158E+02  0.20000000518E+02 0.  0.
        -12    1    1    2    0    0  0.78162777815E+00 -0.42953318136E+02  0.61664238507E+01  0.43400728842E+02  0.00000000000E+00 0.  1.
         11    1    3    3    0    0  0.19575288538E+01  0.18164012965E+02 -0.79942359268E+01  0.19941692369E+02  0.51100000000E-03 0. -1.
        -11    1    3    3    0    0 -0.74064556723E+01  0.16447667013E+02  0.27331305172E+01  0.18244213835E+02  0.51100000000E-03 0.  1.
        -12    1    3    3    0    0  0.46672990404E+01  0.83416381585E+01 -0.90531844111E+00  0.96013649540E+01  0.00000000000E+00 0.  1.
</event>
<event>
 7    1  0.2642243E-009  0.4778727E+02  0.7816164E-02  0.1312668E+00
        -11   -1    0    0    0    0  0.00000000000E+00  0.00000000000E+00  0.45593999997E+02  0.45594000000E+02  0.51100000000E-03 0. -1.
         11   -1    0    0    0    0 -0.00000000000E+00 -0.00000000000E+00 -0.45593999997E+02  0.45594000000E+02  0.51100000000E-03 0.  1.
    9900012    2    1    2    0    0  0.28630091393E+02 -0.29561401481E+02  0.13786397625E+02  0.47787270166E+02  0.19999995994E+02 0.  0.
        -12    1    1    2    0    0 -0.28630091393E+02  0.29561401481E+02 -0.13786397625E+02  0.43400729834E+02  0.00000000000E+00 0.  1.
         11    1    3    3    0    0  0.12040780511E+02 -0.79427237879E+01  0.81115551932E+01  0.16548854474E+02  0.51100000000E-03 0. -1.
        -11    1    3    3    0    0  0.63319268374E+01 -0.69491268005E+01 -0.47404605345E+01  0.10528799889E+02  0.51100000000E-03 0.  1.
        -12    1    3    3    0    0  0.10257384044E+02 -0.14669550892E+02  0.10415302967E+02  0.20709615803E+02  0.00000000000E+00 0.  1.
</event>
<event>
 7    1  0.2642243E-009  0.4778727E+02  0.7816164E-02  0.1312668E+00
        -11   -1    0    0    0    0  0.00000000000E+00  0.00000000000E+00  0.45593999997E+02  0.45594000000E+02  0.51100000000E-03 0.  1.
         11   -1    0    0    0    0 -0.00000000000E+00 -0.00000000000E+00 -0.45593999997E+02  0.45594000000E+02  0.51100000000E-03 0. -1.
    9900012    2    1    2    0    0 -0.18905364069E+02 -0.15003681498E+02 -0.36070767118E+02  0.47787268560E+02  0.19999988672E+02 0.  0.
        -12    1    1    2    0    0  0.18905364069E+02  0.15003681498E+02  0.36070767118E+02  0.43400731440E+02  0.00000000000E+00 0.  1.
         11    1    3    3    0    0 -0.39206907759E+01  0.26461026107E+01 -0.13115056377E+02  0.13941964683E+02  0.51100000000E-03 0. -1.
        -11    1    3    3    0    0 -0.14103394373E+01 -0.25411283101E+01  0.35434463230E+00  0.29277894044E+01  0.51100000000E-03 0.  1.
         12    1    3    3    0    0 -0.13574333855E+02 -0.15108655799E+02 -0.23310055373E+02  0.30917514473E+02  0.00000000000E+00 0. -1.
</event>
<event>
 7    1  0.2642243E-009  0.4778727E+02  0.7816164E-02  0.1312668E+00
        -11   -1    0    0    0    0  0.00000000000E+00  0.00000000000E+00  0.45593999997E+02  0.45594000000E+02  0.51100000000E-03 0.  1.
         11   -1    0    0    0    0 -0.00000000000E+00 -0.00000000000E+00 -0.45593999997E+02  0.45594000000E+02  0.51100000000E-03 0. -1.
    9900012    2    1    2    0    0  0.43048898739E+02  0.48532505382E+01 -0.26194520378E+01  0.47787271292E+02  0.20000001127E+02 0.  0.
        -12    1    1    2    0    0 -0.43048898739E+02 -0.48532505382E+01  0.26194520378E+01  0.43400728708E+02  0.00000000000E+00 0.  1.
         11    1    3    3    0    0  0.12950345496E+02  0.38958448356E+01 -0.16019376395E+01  0.13618195913E+02  0.51100000000E-03 0. -1.
        -11    1    3    3    0    0  0.21168510167E+02 -0.39347452587E+01 -0.66475784618E+01  0.22533937574E+02  0.51100000000E-03 0.  1.
        -12    1    3    3    0    0  0.89300430763E+01  0.48921509614E+01  0.56300640635E+01  0.11635137805E+02  0.00000000000E+00 0.  1.
</event>
<event>
 7    1  0.2642243E-009  0.4778727E+02  0.7816164E-02  0.1312668E+00
        -11   -1    0    0    0    0  0.00000000000E+00  0.00000000000E+00  0.45593999997E+02  0.45594000000E+02  0.51100000000E-03 0.  1.
         11   -1    0    0    0    0 -0.00000000000E+00 -0.00000000000E+00 -0.45593999997E+02  0.45594000000E+02  0.51100000000E-03 0. -1.
    9900012    2    1    2    0    0  0.23012247338E+02 -0.28003774372E+02 -0.23871507316E+02  0.47787265350E+02  0.19999974037E+02 0.  0.
        -12    1    1    2    0    0 -0.23012247338E+02  0.28003774372E+02  0.23871507316E+02  0.43400734650E+02  0.00000000000E+00 0.  1.
         11    1    3    3    0    0  0.22652679375E+01 -0.13026210791E+02 -0.45550445476E+01  0.13984349734E+02  0.51100000000E-03 0.  1.
        -11    1    3    3    0    0  0.17480091159E+02 -0.16562520054E+02 -0.16253255144E+02  0.29052348623E+02  0.51100000000E-03 0. -1.
         12    1    3    3    0    0  0.32668882410E+01  0.15849564732E+01 -0.30632076241E+01  0.47505669924E+01  0.00000000000E+00 0. -1.
</event>
<event>
 7    1  0.2642243E-009  0.4778727E+02  0.7816164E-02  0.1312668E+00
        -11   -1    0    0    0    0  0.00000000000E+00  0.00000000000E+00  0.45593999997E+02  0.45594000000E+02  0.51100000000E-03 0.  1.
         11   -1    0    0    0    0 -0.00000000000E+00 -0.00000000000E+00 -0.45593999997E+02  0.45594000000E+02  0.51100000000E-03 0. -1.
    9900012    2    1    2    0    0  0.35146992317E+02  0.16641338945E+02  0.19271172850E+02  0.47787270354E+02  0.19999996852E+02 0.  0.
        -12    1    1    2    0    0 -0.35146992317E+02 -0.16641338945E+02 -0.19271172850E+02  0.43400729646E+02  0.00000000000E+00 0.  1.
         11    1    3    3    0    0  0.99139896253E+01  0.12744659283E+01  0.28189252311E+01  0.10385460674E+02  0.51100000000E-03 0. -1.
        -11    1    3    3    0    0  0.27204302369E+02  0.15610277974E+02  0.16447039958E+02  0.35415532884E+02  0.51100000000E-03 0.  1.
        -12    1    3    3    0    0 -0.19712996772E+01 -0.24340495797E+00  0.52076607522E-02  0.19862767961E+01  0.00000000000E+00 0.  1.
</event>
<event>
 7    1  0.2642243E-009  0.4778727E+02  0.7816164E-02  0.1312668E+00
        -11   -1    0    0    0    0  0.00000000000E+00  0.00000000000E+00  0.45593999997E+02  0.45594000000E+02  0.51100000000E-03 0. -1.
         11   -1    0    0    0    0 -0.00000000000E+00 -0.00000000000E+00 -0.45593999997E+02  0.45594000000E+02  0.51100000000E-03 0.  1.
    9900012    2    1    2    0    0 -0.24830334830E+02 -0.11848604184E+02  0.33566179820E+02  0.47787269861E+02  0.19999994604E+02 0.  0.
        -12    1    1    2    0    0  0.24830334830E+02  0.11848604184E+02 -0.33566179820E+02  0.43400730139E+02  0.00000000000E+00 0.  1.
         11    1    3    3    0    0 -0.19506828688E+02 -0.67705239513E+01  0.31389934270E+02  0.37572387917E+02  0.51100000000E-03 0. -1.
        -11    1    3    3    0    0 -0.37275364155E+01 -0.13672735985E+01 -0.19648032177E+01  0.44299454588E+01  0.51100000000E-03 0.  1.
         12    1    3    3    0    0 -0.15959697268E+01 -0.37108066339E+01  0.41410487678E+01  0.57849364855E+01  0.00000000000E+00 0. -1.
</event>
<event>
 7    1  0.2642243E-009  0.4778727E+02  0.7816164E-02  0.1312668E+00
        -11   -1    0    0    0    0  0.00000000000E+00  0.00000000000E+00  0.45593999997E+02  0.45594000000E+02  0.51100000000E-03 0.  1.
         11   -1    0    0    0    0 -0.00000000000E+00 -0.00000000000E+00 -0.45593999997E+02  0.45594000000E+02  0.51100000000E-03 0. -1.
    9900012    2    1    2    0    0 -0.22771412154E+02  0.24181240361E+02 -0.27934812848E+02  0.47787269986E+02  0.19999995176E+02 0.  0.
        -12    1    1    2    0    0  0.22771412154E+02 -0.24181240361E+02  0.27934812848E+02  0.43400730014E+02  0.00000000000E+00 0.  1.
         11    1    3    3    0    0 -0.76984015719E+01  0.16828859876E+01 -0.46315176159E+01  0.91404839968E+01  0.51100000000E-03 0. -1.
        -11    1    3    3    0    0 -0.13076969244E+02  0.24082454673E+02 -0.18067680113E+02  0.32823967045E+02  0.51100000000E-03 0.  1.
        -12    1    3    3    0    0 -0.19960413380E+01 -0.15841002992E+01 -0.52356151191E+01  0.58228189441E+01  0.00000000000E+00 0.  1.
</event>
<event>
 7    1  0.2642243E-009  0.4778727E+02  0.7816164E-02  0.1312668E+00
        -11   -1    0    0    0    0  0.00000000000E+00  0.00000000000E+00  0.45593999997E+02  0.45594000000E+02  0.51100000000E-03 0. -1.
         11   -1    0    0    0    0 -0.00000000000E+00 -0.00000000000E+00 -0.45593999997E+02  0.45594000000E+02  0.51100000000E-03 0.  1.
    9900012    2    1    2    0    0  0.17568132890E+01 -0.42981535471E+02  0.57553644682E+01  0.47787274147E+02  0.20000014146E+02 0.  0.
        -12    1    1    2    0    0 -0.17568132890E+01  0.42981535471E+02 -0.57553644682E+01  0.43400725853E+02  0.00000000000E+00 0.  1.
         11    1    3    3    0    0  0.22481754756E+01 -0.14737620990E+02  0.81235087448E+01  0.16977725407E+02  0.51100000000E-03 0. -1.
        -11    1    3    3    0    0 -0.20017051599E+01 -0.28452216280E+02 -0.67418584287E+00  0.28530509312E+02  0.51100000000E-03 0.  1.
        -12    1    3    3    0    0  0.15103429733E+01  0.20830179907E+00 -0.16939584338E+01  0.22790394274E+01  0.00000000000E+00 0.  1.
</event>
<event>
 7    1  0.2642243E-009  0.4778727E+02  0.7816164E-02  0.1312668E+00
        -11   -1    0    0    0    0  0.00000000000E+00  0.00000000000E+00  0.45593999997E+02  0.45594000000E+02  0.51100000000E-03 0.  1.
         11   -1    0    0    0    0 -0.00000000000E+00 -0.00000000000E+00 -0.45593999997E+02  0.45594000000E+02  0.51100000000E-03 0. -1.
    9900012    2    1    2    0    0  0.39388005313E+02  0.15116583385E+02 -0.10183187904E+02  0.47787269918E+02  0.19999994864E+02 0.  0.
        -12    1    1    2    0    0 -0.39388005313E+02 -0.15116583385E+02  0.10183187904E+02  0.43400730082E+02  0.00000000000E+00 0.  1.
         11    1    3    3    0    0  0.20696570125E+02  0.14953011261E+02 -0.63735272428E+01  0.26316580524E+02  0.51100000000E-03 0. -1.
        -11    1    3    3    0    0  0.44828252616E+01  0.38443279413E+01 -0.33421749144E+01  0.67856254735E+01  0.51100000000E-03 0.  1.
         12    1    3    3    0    0  0.14208609926E+02 -0.36807558174E+01 -0.46748574704E+00  0.14685063921E+02  0.00000000000E+00 0. -1.
</event>
<event>
 7    1  0.2642243E-009  0.4778726E+02  0.7816164E-02  0.1312668E+00
        -11   -1    0    0    0    0  0.00000000000E+00  0.00000000000E+00  0.45593999997E+02  0.45594000000E+02  0.51100000000E-03 0.  1.
         11   -1    0    0    0    0 -0.00000000000E+00 -0.00000000000E+00 -0.45593999997E+02  0.45594000000E+02  0.51100000000E-03 0. -1.
    9900012    2    1    2    0    0 -0.15784628053E+02  0.10683581683E+02 -0.38991419558E+02  0.47787260381E+02  0.19999951379E+02 0.  0.
        -12    1    1    2    0    0  0.15784628053E+02 -0.10683581683E+02  0.38991419558E+02  0.43400739619E+02  0.00000000000E+00 0.  1.
         11    1    3    3    0    0  0.20038224089E+01  0.65974840633E+01 -0.14121762336E+02  0.15715160576E+02  0.51100000000E-03 0.  1.
        -11    1    3    3    0    0 -0.52784537029E+01  0.54770970050E+01 -0.82129029723E+01  0.11194303935E+02  0.51100000000E-03 0. -1.
         12    1    3    3    0    0 -0.12509996759E+02 -0.13909993854E+01 -0.16656754250E+02  0.20877795869E+02  0.00000000000E+00 0. -1.
</event>
<event>
 7    1  0.2642243E-009  0.4778727E+02  0.7816164E-02  0.1312668E+00
        -11   -1    0    0    0    0  0.00000000000E+00  0.00000000000E+00  0.45593999997E+02  0.45594000000E+02  0.51100000000E-03 0.  1.
         11   -1    0    0    0    0 -0.00000000000E+00 -0.00000000000E+00 -0.45593999997E+02  0.45594000000E+02  0.51100000000E-03 0. -1.
    9900012    2    1    2    0    0 -0.33050360761E+02 -0.25499056858E+02 -0.11878345858E+02  0.47787270197E+02  0.19999996138E+02 0.  0.
        -12    1    1    2    0    0  0.33050360761E+02  0.25499056858E+02  0.11878345858E+02  0.43400729803E+02  0.00000000000E+00 0.  1.
         11    1    3    3    0    0 -0.55561837847E+01  0.22975044973E+00 -0.66357897149E+01  0.86578097068E+01  0.51100000000E-03 0.  1.
        -11    1    3    3    0    0 -0.23039306285E+02 -0.18776633056E+02 -0.73311458386E+01  0.30612371397E+02  0.51100000000E-03 0. -1.
         12    1    3    3    0    0 -0.44548706916E+01 -0.69521742516E+01  0.20885896957E+01  0.85170890931E+01  0.00000000000E+00 0. -1.
</event>
<event>
 7    1  0.2642243E-009  0.4778727E+02  0.7816164E-02  0.1312668E+00
        -11   -1    0    0    0    0  0.00000000000E+00  0.00000000000E+00  0.45593999997E+02  0.45594000000E+02  0.51100000000E-03 0.  1.
         11   -1    0    0    0    0 -0.00000000000E+00 -0.00000000000E+00 -0.45593999997E+02  0.45594000000E+02  0.51100000000E-03 0. -1.
    9900012    2    1    2    0    0 -0.10892900612E+02 -0.56305721924E+01 -0.41632496382E+02  0.47787269799E+02  0.19999994321E+02 0.  0.
        -12    1    1    2    0    0  0.10892900612E+02  0.56305721924E+01  0.41632496382E+02  0.43400730201E+02  0.00000000000E+00 0.  1.
         11    1    3    3    0    0 -0.68462675720E+01  0.45927465051E+01 -0.20834368052E+02  0.22406150774E+02  0.51100000000E-03 0. -1.
        -11    1    3    3    0    0  0.18680732934E+01 -0.18988114614E+01 -0.57363689697E+00  0.27247462902E+01  0.51100000000E-03 0.  1.
         12    1    3    3    0    0 -0.59147063338E+01 -0.83245072361E+01 -0.20224491433E+02  0.22656372734E+02  0.00000000000E+00 0. -1.
</event>
<event>
 7    1  0.2642243E-009  0.4778728E+02  0.7816164E-02  0.1312668E+00
        -11   -1    0    0    0    0  0.00000000000E+00  0.00000000000E+00  0.45593999997E+02  0.45594000000E+02  0.51100000000E-03 0.  1.
         11   -1    0    0    0    0 -0.00000000000E+00 -0.00000000000E+00 -0.45593999997E+02  0.45594000000E+02  0.51100000000E-03 0. -1.
    9900012    2    1    2    0    0  0.85762959335E+01  0.11106890541E+02 -0.41069537627E+02  0.47787276615E+02  0.20000025401E+02 0.  0.
        -12    1    1    2    0    0 -0.85762959335E+01 -0.11106890541E+02  0.41069537627E+02  0.43400723385E+02  0.00000000000E+00 0.  1.
         11    1    3    3    0    0  0.52873866169E+00  0.70300527352E+00 -0.79308295069E+00  0.11843824614E+01  0.51100000000E-03 0. -1.
        -11    1    3    3    0    0  0.11249573234E+02  0.71160008440E+01 -0.39825663061E+02  0.41991353925E+02  0.51100000000E-03 0.  1.
        -12    1    3    3    0    0 -0.32020159625E+01  0.32878844231E+01 -0.45079161536E+00  0.46115402291E+01  0.00000000000E+00 0.  1.
</event>
<event>
 7    1  0.2642243E-009  0.4778727E+02  0.7816164E-02  0.1312668E+00
        -11   -1    0    0    0    0  0.00000000000E+00  0.00000000000E+00  0.45593999997E+02  0.45594000000E+02  0.51100000000E-03 0.  1.
         11   -1    0    0    0    0 -0.00000000000E+00 -0.00000000000E+00 -0.45593999997E+02  0.45594000000E+02  0.51100000000E-03 0. -1.
    9900012    2    1    2    0    0 -0.25530291879E+02  0.18786271314E+02 -0.29646305827E+02  0.47787271406E+02  0.20000001649E+02 0.  0.
        -12    1    1    2    0    0  0.25530291879E+02 -0.18786271314E+02  0.29646305827E+02  0.43400728594E+02  0.00000000000E+00 0.  1.
         11    1    3    3    0    0 -0.71076370224E+01  0.18322132124E+01 -0.16355157604E+02  0.17926703261E+02  0.51100000000E-03 0. -1.
        -11    1    3    3    0    0  0.85291722390E+00 -0.14054085994E+00  0.12914772111E-01  0.86451522635E+00  0.51100000000E-03 0.  1.
         12    1    3    3    0    0 -0.19275572080E+02  0.17094598962E+02 -0.13304062994E+02  0.28996052918E+02  0.00000000000E+00 0. -1.
</event>
<event>
 7    1  0.2642243E-009  0.4778727E+02  0.7816164E-02  0.1312668E+00
        -11   -1    0    0    0    0  0.00000000000E+00  0.00000000000E+00  0.45593999997E+02  0.45594000000E+02  0.51100000000E-03 0. -1.
         11   -1    0    0    0    0 -0.00000000000E+00 -0.00000000000E+00 -0.45593999997E+02  0.45594000000E+02  0.51100000000E-03 0.  1.
    9900012    2    1    2    0    0 -0.23980074021E+02 -0.12435911597E+02  0.33969507956E+02  0.47787270536E+02  0.19999997680E+02 0.  0.
        -12    1    1    2    0    0  0.23980074021E+02  0.12435911597E+02 -0.33969507956E+02  0.43400729464E+02  0.00000000000E+00 0.  1.
         11    1    3    3    0    0 -0.52675096260E+00 -0.38018827368E+00  0.97349249021E+01  0.97565758753E+01  0.51100000000E-03 0. -1.
        -11    1    3    3    0    0 -0.21357061964E+02 -0.50273651287E+01  0.18941936154E+02  0.28986124981E+02  0.51100000000E-03 0.  1.
        -12    1    3    3    0    0 -0.20962610945E+01 -0.70283581943E+01  0.52926468997E+01  0.90445696796E+01  0.00000000000E+00 0.  1.
</event>
<event>
 7    1  0.2642243E-009  0.4778727E+02  0.7816164E-02  0.1312668E+00
        -11   -1    0    0    0    0  0.00000000000E+00  0.00000000000E+00  0.45593999997E+02  0.45594000000E+02  0.51100000000E-03 0.  1.
         11   -1    0    0    0    0 -0.00000000000E+00 -0.00000000000E+00 -0.45593999997E+02  0.45594000000E+02  0.51100000000E-03 0. -1.
    9900012    2    1    2    0    0  0.16812291308E+02  0.37391651446E+02 -0.14241999641E+02  0.47787270851E+02  0.19999999117E+02 0.  0.
        -12    1    1    2    0    0 -0.16812291308E+02 -0.37391651446E+02  0.14241999641E+02  0.43400729149E+02  0.00000000000E+00 0.  1.
         11    1    3    3    0    0  0.87519642684E+01  0.67071307075E+01 -0.12032521554E+01  0.11091902312E+02  0.51100000000E-03 0. -1.
        -11    1    3    3    0    0 -0.25105237190E+01  0.16031271440E+02 -0.65082892676E+01  0.17483198299E+02  0.51100000000E-03 0.  1.
        -12    1    3    3    0    0  0.10570850758E+02  0.14653249299E+02 -0.65304582183E+01  0.19212170240E+02  0.00000000000E+00 0.  1.
</event>
<event>
 7    1  0.2642243E-009  0.4778727E+02  0.7816164E-02  0.1312668E+00
        -11   -1    0    0    0    0  0.00000000000E+00  0.00000000000E+00  0.45593999997E+02  0.45594000000E+02  0.51100000000E-03 0.  1.
         11   -1    0    0    0    0 -0.00000000000E+00 -0.00000000000E+00 -0.45593999997E+02  0.45594000000E+02  0.51100000000E-03 0. -1.
    9900012    2    1    2    0    0 -0.18511243771E+02  0.36672080093E+02 -0.14004136360E+02  0.47787269136E+02  0.19999991300E+02 0.  0.
        -12    1    1    2    0    0  0.18511243771E+02 -0.36672080093E+02  0.14004136360E+02  0.43400730864E+02  0.00000000000E+00 0.  1.
         11    1    3    3    0    0 -0.54127575779E+01  0.15338900554E+02 -0.11299411388E+02  0.19805466740E+02  0.51100000000E-03 0. -1.
        -11    1    3    3    0    0 -0.67084224238E+01  0.46875262248E+01 -0.56024397165E+01  0.99178205551E+01  0.51100000000E-03 0.  1.
         12    1    3    3    0    0 -0.63900637691E+01  0.16645653314E+02  0.28977147440E+01  0.18063981841E+02  0.00000000000E+00 0. -1.
</event>
<event>
 7    1  0.2642243E-009  0.4778727E+02  0.7816164E-02  0.1312668E+00
        -11   -1    0    0    0    0  0.00000000000E+00  0.00000000000E+00  0.45593999997E+02  0.45594000000E+02  0.51100000000E-03 0.  1.
         11   -1    0    0    0    0 -0.00000000000E+00 -0.00000000000E+00 -0.45593999997E+02  0.45594000000E+02  0.51100000000E-03 0. -1.
    9900012    2    1    2    0    0  0.41024037490E+02 -0.12258057211E+02 -0.70987044105E+01  0.47787271632E+02  0.20000002680E+02 0.  0.
        -12    1    1    2    0    0 -0.41024037490E+02  0.12258057211E+02  0.70987044105E+01  0.43400728368E+02  0.00000000000E+00 0.  1.
         11    1    3    3    0    0  0.10875812258E+02 -0.48943025487E+01 -0.45343413091E+01  0.12759221806E+02  0.51100000000E-03 0. -1.
        -11    1    3    3    0    0  0.43584915946E+01 -0.94120779838E-01  0.55259503547E+01  0.70385677013E+01  0.51100000000E-03 0.  1.
        -12    1    3    3    0    0  0.25789733637E+02 -0.72696338824E+01 -0.80903134561E+01  0.27989482125E+02  0.00000000000E+00 0.  1.
</event>
<event>
 7    1  0.2642243E-009  0.4778728E+02  0.7816164E-02  0.1312668E+00
        -11   -1    0    0    0    0  0.00000000000E+00  0.00000000000E+00  0.45593999997E+02  0.45594000000E+02  0.51100000000E-03 0.  1.
         11   -1    0    0    0    0 -0.00000000000E+00 -0.00000000000E+00 -0.45593999997E+02  0.45594000000E+02  0.51100000000E-03 0. -1.
    9900012    2    1    2    0    0  0.21266994533E+02  0.43803129569E+01 -0.37578590421E+02  0.47787278162E+02  0.20000032452E+02 0.  0.
        -12    1    1    2    0    0 -0.21266994533E+02 -0.43803129569E+01  0.37578590421E+02  0.43400721838E+02  0.00000000000E+00 0.  1.
         11    1    3    3    0    0  0.10651140792E+02 -0.15963146085E+01 -0.31748806093E+02  0.33525836441E+02  0.51100000000E-03 0. -1.
        -11    1    3    3    0    0  0.37748819052E+01  0.40213298731E+01 -0.85873167515E+00  0.55819573357E+01  0.51100000000E-03 0.  1.
         12    1    3    3    0    0  0.68409718352E+01  0.19552976923E+01 -0.49710526526E+01  0.86794843851E+01  0.00000000000E+00 0. -1.
</event>
<event>
 7    1  0.2642243E-009  0.4778727E+02  0.7816164E-02  0.1312668E+00
        -11   -1    0    0    0    0  0.00000000000E+00  0.00000000000E+00  0.45593999997E+02  0.45594000000E+02  0.51100000000E-03 0.  1.
         11   -1    0    0    0    0 -0.00000000000E+00 -0.00000000000E+00 -0.45593999997E+02  0.45594000000E+02  0.51100000000E-03 0. -1.
    9900012    2    1    2    0    0 -0.38841006535E+02 -0.15678067505E+02  0.11366526854E+02  0.47787268185E+02  0.19999986963E+02 0.  0.
        -12    1    1    2    0    0  0.38841006535E+02  0.15678067505E+02 -0.11366526854E+02  0.43400731815E+02  0.00000000000E+00 0.  1.
         11    1    3    3    0    0 -0.26269970293E+02 -0.60315414654E+01  0.60098750671E+01  0.27615383942E+02  0.51100000000E-03 0. -1.
        -11    1    3    3    0    0 -0.13247811860E+02 -0.54429039556E+01  0.65514863717E+01  0.15749657027E+02  0.51100000000E-03 0.  1.
         12    1    3    3    0    0  0.67677561810E+00 -0.42036220842E+01 -0.11948345852E+01  0.44222272160E+01  0.00000000000E+00 0. -1.
</event>
<event>
 7    1  0.2642243E-009  0.4778727E+02  0.7816164E-02  0.1312668E+00
        -11   -1    0    0    0    0  0.00000000000E+00  0.00000000000E+00  0.45593999997E+02  0.45594000000E+02  0.51100000000E-03 0. -1.
         11   -1    0    0    0    0 -0.00000000000E+00 -0.00000000000E+00 -0.45593999997E+02  0.45594000000E+02  0.51100000000E-03 0.  1.
    9900012    2    1    2    0    0 -0.23301436635E+01  0.24287305446E+02  0.35893181596E+02  0.47787271200E+02  0.20000000710E+02 0.  0.
        -12    1    1    2    0    0  0.23301436635E+01 -0.24287305446E+02 -0.35893181596E+02  0.43400728800E+02  0.00000000000E+00 0.  1.
         11    1    3    3    0    0  0.29905300929E+01  0.18951478654E+02  0.21503647371E+02  0.28818547220E+02  0.51100000000E-03 0. -1.
        -11    1    3    3    0    0 -0.69343289659E+01  0.26527918740E+00  0.93160389801E+01  0.11616534500E+02  0.51100000000E-03 0.  1.
        -12    1    3    3    0    0  0.16136552095E+01  0.50705476044E+01  0.50734952449E+01  0.73521894796E+01  0.00000000000E+00 0.  1.
</event>
<event>
 7    1  0.2642243E-009  0.4778727E+02  0.7816164E-02  0.1312668E+00
        -11   -1    0    0    0    0  0.00000000000E+00  0.00000000000E+00  0.45593999997E+02  0.45594000000E+02  0.51100000000E-03 0.  1.
         11   -1    0    0    0    0 -0.00000000000E+00 -0.00000000000E+00 -0.45593999997E+02  0.45594000000E+02  0.51100000000E-03 0. -1.
    9900012    2    1    2    0    0 -0.26319970092E+02 -0.99443336764E+01 -0.33045311612E+02  0.47787271695E+02  0.20000002965E+02 0.  0.
        -12    1    1    2    0    0  0.26319970092E+02  0.99443336764E+01  0.33045311612E+02  0.43400728305E+02  0.00000000000E+00 0.  1.
         11    1    3    3    0    0 -0.23071392733E-01 -0.61991647113E+01 -0.38611148941E+01  0.73033132134E+01  0.51100000000E-03 0. -1.
        -11    1    3    3    0    0 -0.43697773323E+01 -0.38148403631E+01 -0.37715240315E+01  0.69189850925E+01  0.51100000000E-03 0.  1.
         12    1    3    3    0    0 -0.21927121367E+02  0.69671397998E-01 -0.25412672686E+02  0.33564973389E+02  0.00000000000E+00 0. -1.
</event>
<event>
 7    1  0.2642243E-009  0.4778727E+02  0.7816164E-02  0.1312668E+00
        -11   -1    0    0    0    0  0.00000000000E+00  0.00000000000E+00  0.45593999997E+02  0.45594000000E+02  0.51100000000E-03 0. -1.
         11   -1    0    0    0    0 -0.00000000000E+00 -0.00000000000E+00 -0.45593999997E+02  0.45594000000E+02  0.51100000000E-03 0.  1.
    9900012    2    1    2    0    0 -0.38186632696E+02 -0.12038568338E+02  0.16747463742E+02  0.47787267447E+02  0.19999983600E+02 0.  0.
        -12    1    1    2    0    0  0.38186632696E+02  0.12038568338E+02 -0.16747463742E+02  0.43400732553E+02  0.00000000000E+00 0.  1.
         11    1    3    3    0    0 -0.13968265033E+02 -0.10554922651E+01  0.92027777554E+01  0.16760596966E+02  0.51100000000E-03 0. -1.
        -11    1    3    3    0    0 -0.13195890675E+02 -0.59024812147E+01 -0.32126865970E+01  0.14808516827E+02  0.51100000000E-03 0.  1.
        -12    1    3    3    0    0 -0.11022476988E+02 -0.50805948584E+01  0.10757372584E+02  0.16218153655E+02  0.00000000000E+00 0.  1.
</event>
<event>
 7    1  0.2642243E-009  0.4778728E+02  0.7816164E-02  0.1312668E+00
        -11   -1    0    0    0    0  0.00000000000E+00  0.00000000000E+00  0.45593999997E+02  0.45594000000E+02  0.51100000000E-03 0. -1.
         11   -1    0    0    0    0 -0.00000000000E+00 -0.00000000000E+00 -0.45593999997E+02  0.45594000000E+02  0.51100000000E-03 0.  1.
    9900012    2    1    2    0    0 -0.30311107282E+02  0.27913752982E+02 -0.13626499535E+02  0.47787282036E+02  0.20000050115E+02 0.  0.
        -12    1    1    2    0    0  0.30311107282E+02 -0.27913752982E+02  0.13626499535E+02  0.43400717964E+02  0.00000000000E+00 0.  1.
         11    1    3    3    0    0 -0.27886765692E+02  0.21517877305E+02 -0.87143286088E+01  0.36285400202E+02  0.51100000000E-03 0. -1.
        -11    1    3    3    0    0  0.13586742148E+01 -0.59814231565E+00  0.82340862141E+00  0.16975782370E+01  0.51100000000E-03 0.  1.
        -12    1    3    3    0    0 -0.37830158047E+01  0.69940179931E+01 -0.57355795480E+01  0.98043035968E+01  0.00000000000E+00 0.  1.
</event>
<event>
 7    1  0.2642243E-009  0.4778727E+02  0.7816164E-02  0.1312668E+00
        -11   -1    0    0    0    0  0.00000000000E+00  0.00000000000E+00  0.45593999997E+02  0.45594000000E+02  0.51100000000E-03 0.  1.
         11   -1    0    0    0    0 -0.00000000000E+00 -0.00000000000E+00 -0.45593999997E+02  0.45594000000E+02  0.51100000000E-03 0. -1.
    9900012    2    1    2    0    0 -0.15855170300E+01 -0.42043231431E+02 -0.10652515600E+02  0.47787271181E+02  0.20000000621E+02 0.  0.
        -12    1    1    2    0    0  0.15855170300E+01  0.42043231431E+02  0.10652515600E+02  0.43400728819E+02  0.00000000000E+00 0.  1.
         11    1    3    3    0    0  0.43017806464E+01 -0.15945875547E+02  0.15466806953E+01  0.16588203191E+02  0.51100000000E-03 0. -1.
        -11    1    3    3    0    0 -0.80160802868E+01 -0.13782902789E+02 -0.46920948710E+01  0.16620520659E+02  0.51100000000E-03 0.  1.
        -12    1    3    3    0    0  0.21287826104E+01 -0.12314453096E+02 -0.75071014247E+01  0.14578547330E+02  0.00000000000E+00 0.  1.
</event>
<event>
 7    1  0.2642243E-009  0.4778728E+02  0.7816164E-02  0.1312668E+00
        -11   -1    0    0    0    0  0.00000000000E+00  0.00000000000E+00  0.45593999997E+02  0.45594000000E+02  0.51100000000E-03 0. -1.
         11   -1    0    0    0    0 -0.00000000000E+00 -0.00000000000E+00 -0.45593999997E+02  0.45594000000E+02  0.51100000000E-03 0.  1.
    9900012    2    1    2    0    0  0.24850037081E+02 -0.35581398930E+02  0.25010995312E+00  0.47787275954E+02  0.20000022384E+02 0.  0.
        -12    1    1    2    0    0 -0.24850037081E+02  0.35581398930E+02 -0.25010995312E+00  0.43400724046E+02  0.00000000000E+00 0.  1.
         11    1    3    3    0    0  0.12883939127E+02 -0.28396546721E+02  0.68889744474E+01  0.31934585050E+02  0.51100000000E-03 0. -1.
        -11    1    3    3    0    0  0.10309777392E+02 -0.67680398568E+01 -0.45288567655E+01  0.13138052262E+02  0.51100000000E-03 0.  1.
         12    1    3    3    0    0  0.16563205622E+01 -0.41681235225E+00 -0.21100077288E+01  0.27146386421E+01  0.00000000000E+00 0. -1.
</event>
<event>
 7    1  0.2642243E-009  0.4778727E+02  0.7816164E-02  0.1312668E+00
        -11   -1    0    0    0    0  0.00000000000E+00  0.00000000000E+00  0.45593999997E+02  0.45594000000E+02  0.51100000000E-03 0.  1.
         11   -1    0    0    0    0 -0.00000000000E+00 -0.00000000000E+00 -0.45593999997E+02  0.45594000000E+02  0.51100000000E-03 0. -1.
    9900012    2    1    2    0    0 -0.80636327048E+01  0.28704290110E+02 -0.31538305342E+02  0.47787272507E+02  0.20000006667E+02 0.  0.
        -12    1    1    2    0    0  0.80636327048E+01 -0.28704290110E+02  0.31538305342E+02  0.43400727493E+02  0.00000000000E+00 0.  1.
         11    1    3    3    0    0  0.54786400193E+01  0.96078002750E+01 -0.12725075073E+02  0.16859800072E+02  0.51100000000E-03 0. -1.
        -11    1    3    3    0    0 -0.91429175396E+01  0.12748181613E+02 -0.79194856079E+01  0.17573483665E+02  0.51100000000E-03 0.  1.
         12    1    3    3    0    0 -0.43993551845E+01  0.63483082216E+01 -0.10893744661E+02  0.13353988769E+02  0.00000000000E+00 0. -1.
</event>
<event>
 7    1  0.2642243E-009  0.4778727E+02  0.7816164E-02  0.1312668E+00
        -11   -1    0    0    0    0  0.00000000000E+00  0.00000000000E+00  0.45593999997E+02  0.45594000000E+02  0.51100000000E-03 0.  1.
         11   -1    0    0    0    0 -0.00000000000E+00 -0.00000000000E+00 -0.45593999997E+02  0.45594000000E+02  0.51100000000E-03 0. -1.
    9900012    2    1    2    0    0 -0.10453741070E+02  0.36117719548E+02 -0.21676101318E+02  0.47787265720E+02  0.19999975722E+02 0.  0.
        -12    1    1    2    0    0  0.10453741070E+02 -0.36117719548E+02  0.21676101318E+02  0.43400734280E+02  0.00000000000E+00 0.  1.
         11    1    3    3    0    0 -0.10222610829E+02  0.14356721956E+02 -0.58974649361E+01  0.18584868319E+02  0.51100000000E-03 0. -1.
        -11    1    3    3    0    0 -0.17545689982E+01  0.17991453438E+02 -0.17143907971E+02  0.24913540293E+02  0.51100000000E-03 0.  1.
        -12    1    3    3    0    0  0.15234387574E+01  0.37695441541E+01  0.13652715887E+01  0.42888571075E+01  0.00000000000E+00 0.  1.
</event>
<event>
 7    1  0.2642243E-009  0.4778730E+02  0.7816164E-02  0.1312668E+00
        -11   -1    0    0    0    0  0.00000000000E+00  0.00000000000E+00  0.45593999997E+02  0.45594000000E+02  0.51100000000E-03 0.  1.
         11   -1    0    0    0    0 -0.00000000000E+00 -0.00000000000E+00 -0.45593999997E+02  0.45594000000E+02  0.51100000000E-03 0. -1.
    9900012    2    1    2    0    0  0.78466667063E+01  0.18048419177E+01 -0.42647307009E+02  0.47787303832E+02  0.20000149493E+02 0.  0.
        -12    1    1    2    0    0 -0.78466667063E+01 -0.18048419177E+01  0.42647307009E+02  0.43400696168E+02  0.00000000000E+00 0.  1.
         11    1    3    3    0    0 -0.25965474282E+01  0.57489695075E+01 -0.19708628012E+02  0.20693543131E+02  0.51100000000E-03 0. -1.
        -11    1    3    3    0    0  0.28978193296E+01 -0.16267101414E+01 -0.16714636188E+02  0.17041789986E+02  0.51100000000E-03 0.  1.
         12    1    3    3    0    0  0.75453948048E+01 -0.23174174484E+01 -0.62240428090E+01  0.10051970716E+02  0.00000000000E+00 0. -1.
</event>
<event>
 7    1  0.2642243E-009  0.4778727E+02  0.7816164E-02  0.1312668E+00
        -11   -1    0    0    0    0  0.00000000000E+00  0.00000000000E+00  0.45593999997E+02  0.45594000000E+02  0.51100000000E-03 0. -1.
         11   -1    0    0    0    0 -0.00000000000E+00 -0.00000000000E+00 -0.45593999997E+02  0.45594000000E+02  0.51100000000E-03 0.  1.
    9900012    2    1    2    0    0 -0.40071842504E+02  0.16254789929E+02  0.36949139502E+01  0.47787272513E+02  0.20000006695E+02 0.  0.
        -12    1    1    2    0    0  0.40071842504E+02 -0.16254789929E+02 -0.36949139502E+01  0.43400727487E+02  0.00000000000E+00 0.  1.
         11    1    3    3    0    0 -0.98509482516E+01  0.47829398901E+01  0.10006961974E+02  0.14834317769E+02  0.51100000000E-03 0. -1.
        -11    1    3    3    0    0 -0.22977075451E+02  0.88826367548E+01 -0.52477807138E+01  0.25187029096E+02  0.51100000000E-03 0.  1.
         12    1    3    3    0    0 -0.72438188015E+01  0.25892132836E+01 -0.10642673105E+01  0.77659256476E+01  0.00000000000E+00 0. -1.
</event>
<event>
 7    1  0.2642243E-009  0.4778727E+02  0.7816164E-02  0.1312668E+00
        -11   -1    0    0    0    0  0.00000000000E+00  0.00000000000E+00  0.45593999997E+02  0.45594000000E+02  0.51100000000E-03 0. -1.
         11   -1    0    0    0    0 -0.00000000000E+00 -0.00000000000E+00 -0.45593999997E+02  0.45594000000E+02  0.51100000000E-03 0.  1.
    9900012    2    1    2    0    0  0.23779827564E+02 -0.20234462237E+02  0.30144806016E+02  0.47787274307E+02  0.20000014874E+02 0.  0.
        -12    1    1    2    0    0 -0.23779827564E+02  0.20234462237E+02 -0.30144806016E+02  0.43400725693E+02  0.00000000000E+00 0.  1.
         11    1    3    3    0    0 -0.10616780553E+00 -0.12746640878E+00  0.10729074725E+02  0.10730357124E+02  0.51100000000E-03 0.  1.
        -11    1    3    3    0    0  0.21141343339E+02 -0.17960494268E+02  0.18819918323E+02  0.33522008867E+02  0.51100000000E-03 0. -1.
        -12    1    3    3    0    0  0.27446520299E+01 -0.21465015597E+01  0.59581296845E+00  0.35349083162E+01  0.00000000000E+00 0.  1.
</event>
<event>
 7    1  0.2642243E-009  0.4778727E+02  0.7816164E-02  0.1312668E+00
        -11   -1    0    0    0    0  0.00000000000E+00  0.00000000000E+00  0.45593999997E+02  0.45594000000E+02  0.51100000000E-03 0. -1.
         11   -1    0    0    0    0 -0.00000000000E+00 -0.00000000000E+00 -0.45593999997E+02  0.45594000000E+02  0.51100000000E-03 0.  1.
    9900012    2    1    2    0    0 -0.53471063544E+00  0.41086518673E+02 -0.13972661654E+02  0.47787271828E+02  0.20000003575E+02 0.  0.
        -12    1    1    2    0    0  0.53471063544E+00 -0.41086518673E+02  0.13972661654E+02  0.43400728172E+02  0.00000000000E+00 0.  1.
         11    1    3    3    0    0  0.80317920853E+00  0.37134198004E+01  0.93387030244E+00  0.39123774687E+01  0.51100000000E-03 0. -1.
        -11    1    3    3    0    0 -0.33600557040E+01  0.94935521939E+01  0.32039643901E+01  0.10568012853E+02  0.51100000000E-03 0.  1.
        -12    1    3    3    0    0  0.20221658600E+01  0.27879546679E+02 -0.18110496347E+02  0.33306881506E+02  0.00000000000E+00 0.  1.
</event>
<event>
 7    1  0.2642243E-009  0.4778727E+02  0.7816164E-02  0.1312668E+00
        -11   -1    0    0    0    0  0.00000000000E+00  0.00000000000E+00  0.45593999997E+02  0.45594000000E+02  0.51100000000E-03 0.  1.
         11   -1    0    0    0    0 -0.00000000000E+00 -0.00000000000E+00 -0.45593999997E+02  0.45594000000E+02  0.51100000000E-03 0. -1.
    9900012    2    1    2    0    0  0.48061823425E+01  0.26587061715E+02 -0.33965451567E+02  0.47787272593E+02  0.20000007060E+02 0.  0.
        -12    1    1    2    0    0 -0.48061823425E+01 -0.26587061715E+02  0.33965451567E+02  0.43400727407E+02  0.00000000000E+00 0.  1.
         11    1    3    3    0    0  0.80319232540E+01  0.21658208201E+02 -0.24484423481E+02  0.33661205669E+02  0.51100000000E-03 0. -1.
        -11    1    3    3    0    0 -0.58610185673E+01  0.35862168609E+01 -0.41432004417E+01  0.80236276198E+01  0.51100000000E-03 0.  1.
         12    1    3    3    0    0  0.26352776558E+01  0.13426366532E+01 -0.53378276439E+01  0.61024393042E+01  0.00000000000E+00 0. -1.
</event>
<event>
 7    1  0.2642243E-009  0.4778727E+02  0.7816164E-02  0.1312668E+00
        -11   -1    0    0    0    0  0.00000000000E+00  0.00000000000E+00  0.45593999997E+02  0.45594000000E+02  0.51100000000E-03 0.  1.
         11   -1    0    0    0    0 -0.00000000000E+00 -0.00000000000E+00 -0.45593999997E+02  0.45594000000E+02  0.51100000000E-03 0. -1.
    9900012    2    1    2    0    0 -0.33987608072E+00  0.28574921704E+01 -0.43305227424E+02  0.47787268445E+02  0.19999988148E+02 0.  0.
        -12    1    1    2    0    0  0.33987608072E+00 -0.28574921704E+01  0.43305227424E+02  0.43400731555E+02  0.00000000000E+00 0.  1.
         11    1    3    3    0    0 -0.56218786263E+01  0.63826365191E+01 -0.12877036682E+02  0.15432486585E+02  0.51100000000E-03 0. -1.
        -11    1    3    3    0    0  0.14800977673E+01  0.90352778540E+00 -0.42000145520E+00  0.17842234566E+01  0.51100000000E-03 0.  1.
         12    1    3    3    0    0  0.38019047783E+01 -0.44286721341E+01 -0.30008189287E+02  0.30570558403E+02  0.00000000000E+00 0. -1.
</event>
<event>
 7    1  0.2642243E-009  0.4778728E+02  0.7816164E-02  0.1312668E+00
        -11   -1    0    0    0    0  0.00000000000E+00  0.00000000000E+00  0.45593999997E+02  0.45594000000E+02  0.51100000000E-03 0.  1.
         11   -1    0    0    0    0 -0.00000000000E+00 -0.00000000000E+00 -0.45593999997E+02  0.45594000000E+02  0.51100000000E-03 0. -1.
    9900012    2    1    2    0    0  0.12277326827E+01 -0.12910531654E+02 -0.41417788735E+02  0.47787281356E+02  0.20000047015E+02 0.  0.
        -12    1    1    2    0    0 -0.12277326827E+01  0.12910531654E+02  0.41417788735E+02  0.43400718644E+02  0.00000000000E+00 0.  1.
         11    1    3    3    0    0 -0.39005853003E+01 -0.49118908257E+01 -0.13670602979E+02  0.15040831867E+02  0.51100000000E-03 0. -1.
        -11    1    3    3    0    0  0.56521254390E+01 -0.11003640961E+02 -0.14076757553E+02  0.18739843645E+02  0.51100000000E-03 0.  1.
        -12    1    3    3    0    0 -0.52380745607E+00  0.30050001323E+01 -0.13670428202E+02  0.14006605844E+02  0.00000000000E+00 0.  1.
</event>
<event>
 7    1  0.2642243E-009  0.4778728E+02  0.7816164E-02  0.1312668E+00
        -11   -1    0    0    0    0  0.00000000000E+00  0.00000000000E+00  0.45593999997E+02  0.45594000000E+02  0.51100000000E-03 0.  1.
         11   -1    0    0    0    0 -0.00000000000E+00 -0.00000000000E+00 -0.45593999997E+02  0.45594000000E+02  0.51100000000E-03 0. -1.
    9900012    2    1    2    0    0  0.61929188228E+01  0.35940284329E+02 -0.23527993534E+02  0.47787276954E+02  0.20000026945E+02 0.  0.
        -12    1    1    2    0    0 -0.61929188228E+01 -0.35940284329E+02  0.23527993534E+02  0.43400723046E+02  0.00000000000E+00 0.  1.
         11    1    3    3    0    0  0.14448726366E+01 -0.14921892464E+01 -0.52365888840E+00  0.21420794980E+01  0.51100000000E-03 0.  1.
        -11    1    3    3    0    0  0.51057001859E+01  0.37914940459E+02 -0.21189021821E+02  0.43733117090E+02  0.51100000000E-03 0. -1.
         12    1    3    3    0    0 -0.35765399976E+00 -0.48246688405E+00 -0.18153128241E+01  0.19120803663E+01  0.00000000000E+00 0. -1.
</event>
<event>
 7    1  0.2642243E-009  0.4778727E+02  0.7816164E-02  0.1312668E+00
        -11   -1    0    0    0    0  0.00000000000E+00  0.00000000000E+00  0.45593999997E+02  0.45594000000E+02  0.51100000000E-03 0. -1.
         11   -1    0    0    0    0 -0.00000000000E+00 -0.00000000000E+00 -0.45593999997E+02  0.45594000000E+02  0.51100000000E-03 0.  1.
    9900012    2    1    2    0    0 -0.36754553140E+02 -0.11011179255E+02  0.20284974194E+02  0.47787269324E+02  0.19999992157E+02 0.  0.
        -12    1    1    2    0    0  0.36754553140E+02  0.11011179255E+02 -0.20284974194E+02  0.43400730676E+02  0.00000000000E+00 0.  1.
         11    1    3    3    0    0 -0.17199473008E+02  0.59916332878E+00  0.14169127468E+02  0.22292264172E+02  0.51100000000E-03 0. -1.
        -11    1    3    3    0    0 -0.20278633529E+02 -0.10476155182E+02  0.70130640766E+01  0.23877936955E+02  0.51100000000E-03 0.  1.
        -12    1    3    3    0    0  0.72355339678E+00 -0.11341874018E+01 -0.89721735072E+00  0.16170681973E+01  0.00000000000E+00 0.  1.
</event>
<event>
 7    1  0.2642243E-009  0.4778729E+02  0.7816164E-02  0.1312668E+00
        -11   -1    0    0    0    0  0.00000000000E+00  0.00000000000E+00  0.45593999997E+02  0.45594000000E+02  0.51100000000E-03 0.  1.
         11   -1    0    0    0    0 -0.00000000000E+00 -0.00000000000E+00 -0.45593999997E+02  0.45594000000E+02  0.51100000000E-03 0. -1.
    9900012    2    1    2    0    0  0.53607677888E+01  0.21805093037E+02 -0.37140568625E+02  0.47787288584E+02  0.20000079971E+02 0.  0.
        -12    1    1    2    0    0 -0.53607677888E+01 -0.21805093037E+02  0.37140568625E+02  0.43400711416E+02  0.00000000000E+00 0.  1.
         11    1    3    3    0    0  0.60109994810E+01  0.11956131946E+02 -0.29357625940E+02  0.32263778560E+02  0.51100000000E-03 0. -1.
        -11    1    3    3    0    0  0.11170729627E+01  0.89103335582E+00  0.17926699363E+01  0.22924786164E+01  0.51100000000E-03 0.  1.
        -12    1    3    3    0    0 -0.17673046549E+01  0.89579277354E+01 -0.95756126207E+01  0.13231031408E+02  0.00000000000E+00 0.  1.
</event>
<event>
 7    1  0.2642243E-009  0.4778728E+02  0.7816164E-02  0.1312668E+00
        -11   -1    0    0    0    0  0.00000000000E+00  0.00000000000E+00  0.45593999997E+02  0.45594000000E+02  0.51100000000E-03 0. -1.
         11   -1    0    0    0    0 -0.00000000000E+00 -0.00000000000E+00 -0.45593999997E+02  0.45594000000E+02  0.51100000000E-03 0.  1.
    9900012    2    1    2    0    0 -0.14672904316E+02  0.65175090755E+01  0.40321840873E+02  0.47787275386E+02  0.20000019796E+02 0.  0.
        -12    1    1    2    0    0  0.14672904316E+02 -0.65175090755E+01 -0.40321840873E+02  0.43400724614E+02  0.00000000000E+00 0.  1.
         11    1    3    3    0    0  0.46409147444E+00 -0.20498546596E+01  0.16169329741E+02  0.16305352175E+02  0.51100000000E-03 0. -1.
        -11    1    3    3    0    0 -0.62062363529E+00 -0.16491620186E+01  0.36221222561E+00  0.17989182910E+01  0.51100000000E-03 0.  1.
         12    1    3    3    0    0 -0.14516372155E+02  0.10216525754E+02  0.23790298907E+02  0.29683004920E+02  0.00000000000E+00 0. -1.
</event>
<event>
 7    1  0.2642243E-009  0.4778727E+02  0.7816164E-02  0.1312668E+00
        -11   -1    0    0    0    0  0.00000000000E+00  0.00000000000E+00  0.45593999997E+02  0.45594000000E+02  0.51100000000E-03 0.  1.
         11   -1    0    0    0    0 -0.00000000000E+00 -0.00000000000E+00 -0.45593999997E+02  0.45594000000E+02  0.51100000000E-03 0. -1.
    9900012    2    1    2    0    0 -0.36493054467E+02 -0.55491916138E+00 -0.23485578084E+02  0.47787270311E+02  0.19999996656E+02 0.  0.
        -12    1    1    2    0    0  0.36493054467E+02  0.55491916138E+00  0.23485578084E+02  0.43400729689E+02  0.00000000000E+00 0.  1.
         11    1    3    3    0    0 -0.22709196296E+02  0.48324473920E+01 -0.10023830476E+02  0.25289075149E+02  0.51100000000E-03 0. -1.
        -11    1    3    3    0    0  0.11258168519E+01 -0.25641066887E+01 -0.15064867099E+01  0.31798756522E+01  0.51100000000E-03 0.  1.
         12    1    3    3    0    0 -0.14909675023E+02 -0.28232598646E+01 -0.11955260898E+02  0.19318319510E+02  0.00000000000E+00 0. -1.
</event>
<event>
 7    1  0.2642243E-009  0.4778728E+02  0.7816164E-02  0.1312668E+00
        -11   -1    0    0    0    0  0.00000000000E+00  0.00000000000E+00  0.45593999997E+02  0.45594000000E+02  0.51100000000E-03 0.  1.
         11   -1    0    0    0    0 -0.00000000000E+00 -0.00000000000E+00 -0.45593999997E+02  0.45594000000E+02  0.51100000000E-03 0. -1.
    9900012    2    1    2    0    0 -0.42325430942E+02 -0.29277517413E+01  0.91437834476E+01  0.47787278687E+02  0.20000034847E+02 0.  0.
        -12    1    1    2    0    0  0.42325430942E+02  0.29277517413E+01 -0.91437834476E+01  0.43400721313E+02  0.00000000000E+00 0.  1.
         11    1    3    3    0    0 -0.15014550733E+02  0.24993005863E+01 -0.56492834750E+01  0.16235690351E+02  0.51100000000E-03 0. -1.
        -11    1    3    3    0    0 -0.21600044021E+02 -0.47527429062E+01  0.11872811647E+02  0.25102074088E+02  0.51100000000E-03 0.  1.
         12    1    3    3    0    0 -0.57108361886E+01 -0.67430942135E+00  0.29202552754E+01  0.64495142485E+01  0.00000000000E+00 0. -1.
</event>
<event>
 7    1  0.2642243E-009  0.4778727E+02  0.7816164E-02  0.1312668E+00
        -11   -1    0    0    0    0  0.00000000000E+00  0.00000000000E+00  0.45593999997E+02  0.45594000000E+02  0.51100000000E-03 0.  1.
         11   -1    0    0    0    0 -0.00000000000E+00 -0.00000000000E+00 -0.45593999997E+02  0.45594000000E+02  0.51100000000E-03 0. -1.
    9900012    2    1    2    0    0 -0.41564004036E+02  0.49957526411E+01 -0.11449864012E+02  0.47787270031E+02  0.19999995379E+02 0.  0.
        -12    1    1    2    0    0  0.41564004036E+02 -0.49957526411E+01  0.11449864012E+02  0.43400729969E+02  0.00000000000E+00 0.  1.
         11    1    3    3    0    0 -0.13379879574E+02  0.94044160342E+01 -0.82041499763E+01  0.18296783746E+02  0.51100000000E-03 0. -1.
        -11    1    3    3    0    0 -0.19182891579E+02 -0.33211226529E+01 -0.53353336818E+01  0.20186108361E+02  0.51100000000E-03 0.  1.
        -12    1    3    3    0    0 -0.90012328831E+01 -0.10875407402E+01  0.20896196465E+01  0.93043779236E+01  0.00000000000E+00 0.  1.
</event>
<event>
 7    1  0.2642243E-009  0.4778727E+02  0.7816164E-02  0.1312668E+00
        -11   -1    0    0    0    0  0.00000000000E+00  0.00000000000E+00  0.45593999997E+02  0.45594000000E+02  0.51100000000E-03 0.  1.
         11   -1    0    0    0    0 -0.00000000000E+00 -0.00000000000E+00 -0.45593999997E+02  0.45594000000E+02  0.51100000000E-03 0. -1.
    9900012    2    1    2    0    0  0.73370650758E+01 -0.33872359247E+02 -0.26123823454E+02  0.47787269629E+02  0.19999993546E+02 0.  0.
        -12    1    1    2    0    0 -0.73370650758E+01  0.33872359247E+02  0.26123823454E+02  0.43400730371E+02  0.00000000000E+00 0.  1.
         11    1    3    3    0    0  0.71218366800E+01 -0.41919373739E+01 -0.24574672274E+01  0.86216032197E+01  0.51100000000E-03 0. -1.
        -11    1    3    3    0    0 -0.15325707825E+01 -0.93169606738E+00 -0.37247737575E+01  0.41340985198E+01  0.51100000000E-03 0.  1.
         12    1    3    3    0    0  0.17477991784E+01 -0.28748725806E+02 -0.19941582469E+02  0.35031567889E+02  0.00000000000E+00 0. -1.
</event>
<event>
 7    1  0.2642243E-009  0.4778727E+02  0.7816164E-02  0.1312668E+00
        -11   -1    0    0    0    0  0.00000000000E+00  0.00000000000E+00  0.45593999997E+02  0.45594000000E+02  0.51100000000E-03 0. -1.
         11   -1    0    0    0    0 -0.00000000000E+00 -0.00000000000E+00 -0.45593999997E+02  0.45594000000E+02  0.51100000000E-03 0.  1.
    9900012    2    1    2    0    0 -0.19356830319E+02  0.38698717712E+02  0.33682970980E+01  0.47787273533E+02  0.20000011347E+02 0.  0.
        -12    1    1    2    0    0  0.19356830319E+02 -0.38698717712E+02 -0.33682970980E+01  0.43400726467E+02  0.00000000000E+00 0.  1.
         11    1    3    3    0    0  0.19926989434E+01  0.18480648468E+01  0.23837080607E+01  0.36150044449E+01  0.51100000000E-03 0. -1.
        -11    1    3    3    0    0 -0.20212029153E+02  0.30123053190E+02 -0.27755280541E+01  0.36381698864E+02  0.51100000000E-03 0.  1.
        -12    1    3    3    0    0 -0.11375001089E+01  0.67275996748E+01  0.37601170914E+01  0.77905702245E+01  0.00000000000E+00 0.  1.
</event>
<event>
 7    1  0.2642243E-009  0.4778728E+02  0.7816164E-02  0.1312668E+00
        -11   -1    0    0    0    0  0.00000000000E+00  0.00000000000E+00  0.45593999997E+02  0.45594000000E+02  0.51100000000E-03 0. -1.
         11   -1    0    0    0    0 -0.00000000000E+00 -0.00000000000E+00 -0.45593999997E+02  0.45594000000E+02  0.51100000000E-03 0.  1.
    9900012    2    1    2    0    0 -0.82787819424E+01 -0.41804083944E+02  0.82160361160E+01  0.47787275186E+02  0.20000018885E+02 0.  0.
        -12    1    1    2    0    0  0.82787819424E+01  0.41804083944E+02 -0.82160361160E+01  0.43400724814E+02  0.00000000000E+00 0.  1.
         11    1    3    3    0    0 -0.12018443983E+01 -0.35381785592E+02  0.26711300631E+01  0.35502818447E+02  0.51100000000E-03 0. -1.
        -11    1    3    3    0    0 -0.36932576253E+01 -0.42633853119E+01  0.60117486401E+01  0.82436477471E+01  0.51100000000E-03 0.  1.
         12    1    3    3    0    0 -0.33836799188E+01 -0.21589130407E+01 -0.46684258722E+00  0.40408089922E+01  0.00000000000E+00 0. -1.
</event>
<event>
 7    1  0.2642243E-009  0.4778727E+02  0.7816164E-02  0.1312668E+00
        -11   -1    0    0    0    0  0.00000000000E+00  0.00000000000E+00  0.45593999997E+02  0.45594000000E+02  0.51100000000E-03 0. -1.
         11   -1    0    0    0    0 -0.00000000000E+00 -0.00000000000E+00 -0.45593999997E+02  0.45594000000E+02  0.51100000000E-03 0.  1.
    9900012    2    1    2    0    0 -0.15249382414E+02  0.34236702619E+02  0.21884418008E+02  0.47787271644E+02  0.20000002736E+02 0.  0.
        -12    1    1    2    0    0  0.15249382414E+02 -0.34236702619E+02 -0.21884418008E+02  0.43400728356E+02  0.00000000000E+00 0.  1.
         11    1    3    3    0    0 -0.11895825025E+02  0.26651755893E+02  0.93593049391E+01  0.30650013612E+02  0.51100000000E-03 0. -1.
        -11    1    3    3    0    0  0.35705172046E+00  0.78946366161E+01  0.93625206772E+01  0.12251920948E+02  0.51100000000E-03 0.  1.
         12    1    3    3    0    0 -0.37106091088E+01 -0.30968989005E+00  0.31625923917E+01  0.48853370838E+01  0.00000000000E+00 0. -1.
</event>
<event>
 7    1  0.2642243E-009  0.4778727E+02  0.7816164E-02  0.1312668E+00
        -11   -1    0    0    0    0  0.00000000000E+00  0.00000000000E+00  0.45593999997E+02  0.45594000000E+02  0.51100000000E-03 0.  1.
         11   -1    0    0    0    0 -0.00000000000E+00 -0.00000000000E+00 -0.45593999997E+02  0.45594000000E+02  0.51100000000E-03 0. -1.
    9900012    2    1    2    0    0  0.54729105270E+01 -0.34836637233E+02 -0.25299785475E+02  0.47787272029E+02  0.20000004488E+02 0.  0.
        -12    1    1    2    0    0 -0.54729105270E+01  0.34836637233E+02  0.25299785475E+02  0.43400727971E+02  0.00000000000E+00 0.  1.
         11    1    3    3    0    0  0.12710792965E+01 -0.31743910211E+02 -0.21423762798E+02  0.38317999566E+02  0.51100000000E-03 0. -1.
        -11    1    3    3    0    0 -0.12997881826E+01  0.28737284594E-01  0.86736179798E+00  0.15628793623E+01  0.51100000000E-03 0.  1.
         12    1    3    3    0    0  0.55016194130E+01 -0.31214643071E+01 -0.47433844747E+01  0.79063931006E+01  0.00000000000E+00 0. -1.
</event>
<event>
 7    1  0.2642243E-009  0.4778727E+02  0.7816164E-02  0.1312668E+00
        -11   -1    0    0    0    0  0.00000000000E+00  0.00000000000E+00  0.45593999997E+02  0.45594000000E+02  0.51100000000E-03 0.  1.
         11   -1    0    0    0    0 -0.00000000000E+00 -0.00000000000E+00 -0.45593999997E+02  0.45594000000E+02  0.51100000000E-03 0. -1.
    9900012    2    1    2    0    0 -0.29687786739E+02  0.21884541375E+02 -0.22876313402E+02  0.47787267892E+02  0.19999985626E+02 0.  0.
        -12    1    1    2    0    0  0.29687786739E+02 -0.21884541375E+02  0.22876313402E+02  0.43400732108E+02  0.00000000000E+00 0.  1.
         11    1    3    3    0    0 -0.17765008140E+02  0.13907294193E+02 -0.19500302158E+02  0.29820632631E+02  0.51100000000E-03 0. -1.
        -11    1    3    3    0    0 -0.40305929876E+01 -0.28238849169E+00 -0.49992163308E+01  0.64278757980E+01  0.51100000000E-03 0.  1.
         12    1    3    3    0    0 -0.78921856114E+01  0.82596356739E+01  0.16232050869E+01  0.11538759463E+02  0.00000000000E+00 0. -1.
</event>
<event>
 7    1  0.2642243E-009  0.4778727E+02  0.7816164E-02  0.1312668E+00
        -11   -1    0    0    0    0  0.00000000000E+00  0.00000000000E+00  0.45593999997E+02  0.45594000000E+02  0.51100000000E-03 0.  1.
         11   -1    0    0    0    0 -0.00000000000E+00 -0.00000000000E+00 -0.45593999997E+02  0.45594000000E+02  0.51100000000E-03 0. -1.
    9900012    2    1    2    0    0 -0.17860649044E+02 -0.27706434029E+02 -0.28230734486E+02  0.47787266821E+02  0.19999980744E+02 0.  0.
        -12    1    1    2    0    0  0.17860649044E+02  0.27706434029E+02  0.28230734486E+02  0.43400733179E+02  0.00000000000E+00 0.  1.
         11    1    3    3    0    0  0.16769548249E+01  0.76388334461E+00 -0.18217076312E+01  0.25911993755E+01  0.51100000000E-03 0.  1.
        -11    1    3    3    0    0 -0.13641766032E+02 -0.25936808435E+02 -0.17227095204E+02  0.33993949780E+02  0.51100000000E-03 0. -1.
        -12    1    3    3    0    0 -0.58958378373E+01 -0.25335089385E+01 -0.91819316506E+01  0.11202117665E+02  0.00000000000E+00 0.  1.
</event>
<event>
 7    1  0.2642243E-009  0.4778727E+02  0.7816164E-02  0.1312668E+00
        -11   -1    0    0    0    0  0.00000000000E+00  0.00000000000E+00  0.45593999997E+02  0.45594000000E+02  0.51100000000E-03 0.  1.
         11   -1    0    0    0    0 -0.00000000000E+00 -0.00000000000E+00 -0.45593999997E+02  0.45594000000E+02  0.51100000000E-03 0. -1.
    9900012    2    1    2    0    0 -0.39737527925E+02  0.34094308861E+01 -0.17115133359E+02  0.47787272651E+02  0.20000007324E+02 0.  0.
        -12    1    1    2    0    0  0.39737527925E+02 -0.34094308861E+01  0.17115133359E+02  0.43400727349E+02  0.00000000000E+00 0.  1.
         11    1    3    3    0    0 -0.20207561443E+02 -0.56021356521E+01 -0.97409071554E+01  0.23121737301E+02  0.51100000000E-03 0. -1.
        -11    1    3    3    0    0 -0.44445578465E+01  0.69132242034E+01 -0.36103034884E+01  0.89766950977E+01  0.51100000000E-03 0.  1.
        -12    1    3    3    0    0 -0.15085408635E+02  0.20983423348E+01 -0.37639227151E+01  0.15688840252E+02  0.00000000000E+00 0.  1.
</event>
<event>
 7    1  0.2642243E-009  0.4778727E+02  0.7816164E-02  0.1312668E+00
        -11   -1    0    0    0    0  0.00000000000E+00  0.00000000000E+00  0.45593999997E+02  0.45594000000E+02  0.51100000000E-03 0.  1.
         11   -1    0    0    0    0 -0.00000000000E+00 -0.00000000000E+00 -0.45593999997E+02  0.45594000000E+02  0.51100000000E-03 0. -1.
    9900012    2    1    2    0    0  0.90991062168E+01 -0.91101992707E+01 -0.41446760246E+02  0.47787269596E+02  0.19999993396E+02 0.  0.
        -12    1    1    2    0    0 -0.90991062168E+01  0.91101992707E+01  0.41446760246E+02  0.43400730404E+02  0.00000000000E+00 0.  1.
         11    1    3    3    0    0  0.30142261760E+01 -0.76868113468E+00 -0.10090041342E+02  0.10558663015E+02  0.51100000000E-03 0.  1.
        -11    1    3    3    0    0  0.59710638040E+01 -0.27359976277E+01 -0.30914499373E+02  0.31604517995E+02  0.51100000000E-03 0. -1.
        -12    1    3    3    0    0  0.11381623679E+00 -0.56055205084E+01 -0.44221953123E+00  0.56240885856E+01  0.00000000000E+00 0.  1.
</event>
<event>
 7    1  0.2642243E-009  0.4778727E+02  0.7816164E-02  0.1312668E+00
        -11   -1    0    0    0    0  0.00000000000E+00  0.00000000000E+00  0.45593999997E+02  0.45594000000E+02  0.51100000000E-03 0.  1.
         11   -1    0    0    0    0 -0.00000000000E+00 -0.00000000000E+00 -0.45593999997E+02  0.45594000000E+02  0.51100000000E-03 0. -1.
    9900012    2    1    2    0    0  0.11340493325E+02 -0.37331220989E+02 -0.19010433339E+02  0.47787269302E+02  0.19999992055E+02 0.  0.
        -12    1    1    2    0    0 -0.11340493325E+02  0.37331220989E+02  0.19010433339E+02  0.43400730698E+02  0.00000000000E+00 0.  1.
         11    1    3    3    0    0  0.51334562401E+01 -0.14524649717E+02 -0.11441363503E+02  0.19189127688E+02  0.51100000000E-03 0. -1.
        -11    1    3    3    0    0 -0.32912176874E+01 -0.64777740111E+00 -0.18083179444E+01  0.38107405418E+01  0.51100000000E-03 0.  1.
        -12    1    3    3    0    0  0.94982547725E+01 -0.22158793871E+02 -0.57607518921E+01  0.24787401072E+02  0.00000000000E+00 0.  1.
</event>
<event>
 7    1  0.2642243E-009  0.4778727E+02  0.7816164E-02  0.1312668E+00
        -11   -1    0    0    0    0  0.00000000000E+00  0.00000000000E+00  0.45593999997E+02  0.45594000000E+02  0.51100000000E-03 0.  1.
         11   -1    0    0    0    0 -0.00000000000E+00 -0.00000000000E+00 -0.45593999997E+02  0.45594000000E+02  0.51100000000E-03 0. -1.
    9900012    2    1    2    0    0 -0.17199257881E+02  0.11572713123E+02 -0.38129792955E+02  0.47787271072E+02  0.20000000127E+02 0.  0.
        -12    1    1    2    0    0  0.17199257881E+02 -0.11572713123E+02  0.38129792955E+02  0.43400728928E+02  0.00000000000E+00 0.  1.
         11    1    3    3    0    0 -0.11490297172E+02  0.56235239162E+01 -0.37218267724E+02  0.39355436765E+02  0.51100000000E-03 0. -1.
        -11    1    3    3    0    0 -0.40851078198E+01  0.50449443978E+01 -0.10147135225E+01  0.65703282772E+01  0.51100000000E-03 0.  1.
         12    1    3    3    0    0 -0.16238528885E+01  0.90424480860E+00  0.10318829118E+00  0.18615060303E+01  0.00000000000E+00 0. -1.
</event>
<event>
 7    1  0.2642243E-009  0.4778727E+02  0.7816164E-02  0.1312668E+00
        -11   -1    0    0    0    0  0.00000000000E+00  0.00000000000E+00  0.45593999997E+02  0.45594000000E+02  0.51100000000E-03 0. -1.
         11   -1    0    0    0    0 -0.00000000000E+00 -0.00000000000E+00 -0.45593999997E+02  0.45594000000E+02  0.51100000000E-03 0.  1.
    9900012    2    1    2    0    0 -0.39525586455E+02  0.17102504369E+02 -0.53717536199E+01  0.47787269854E+02  0.19999994571E+02 0.  0.
        -12    1    1    2    0    0  0.39525586455E+02 -0.17102504369E+02  0.53717536199E+01  0.43400730146E+02  0.00000000000E+00 0.  1.
         11    1    3    3    0    0 -0.24569337463E+02  0.82908941227E+01 -0.10776118198E+02  0.28080526925E+02  0.51100000000E-03 0. -1.
        -11    1    3    3    0    0 -0.66189621435E+01  0.63834930005E+01  0.60367294672E+01  0.11000079348E+02  0.51100000000E-03 0.  1.
        -12    1    3    3    0    0 -0.83372868482E+01  0.24281172460E+01 -0.63236488899E+00  0.87066635804E+01  0.00000000000E+00 0.  1.
</event>
<event>
 7    1  0.2642243E-009  0.4778727E+02  0.7816164E-02  0.1312668E+00
        -11   -1    0    0    0    0  0.00000000000E+00  0.00000000000E+00  0.45593999997E+02  0.45594000000E+02  0.51100000000E-03 0.  1.
         11   -1    0    0    0    0 -0.00000000000E+00 -0.00000000000E+00 -0.45593999997E+02  0.45594000000E+02  0.51100000000E-03 0. -1.
    9900012    2    1    2    0    0  0.15352675609E+02  0.37971745139E+02  0.14354974317E+02  0.47787269996E+02  0.19999995219E+02 0.  0.
        -12    1    1    2    0    0 -0.15352675609E+02 -0.37971745139E+02 -0.14354974317E+02  0.43400730004E+02  0.00000000000E+00 0.  1.
         11    1    3    3    0    0 -0.11704083087E+01  0.55533492139E-01  0.42287219413E+01  0.43880552749E+01  0.51100000000E-03 0. -1.
        -11    1    3    3    0    0  0.90294560845E+00  0.49866455668E+01 -0.12479817164E+01  0.52191381862E+01  0.51100000000E-03 0.  1.
         12    1    3    3    0    0  0.15620138309E+02  0.32929566080E+02  0.11374234093E+02  0.38180076535E+02  0.00000000000E+00 0. -1.
</event>
<event>
 7    1  0.2642243E-009  0.4778727E+02  0.7816164E-02  0.1312668E+00
        -11   -1    0    0    0    0  0.00000000000E+00  0.00000000000E+00  0.45593999997E+02  0.45594000000E+02  0.51100000000E-03 0.  1.
         11   -1    0    0    0    0 -0.00000000000E+00 -0.00000000000E+00 -0.45593999997E+02  0.45594000000E+02  0.51100000000E-03 0. -1.
    9900012    2    1    2    0    0 -0.41692245658E+02 -0.40448244584E+01 -0.11358662743E+02  0.47787272215E+02  0.20000005339E+02 0.  0.
        -12    1    1    2    0    0  0.41692245658E+02  0.40448244584E+01  0.11358662743E+02  0.43400727785E+02  0.00000000000E+00 0.  1.
         11    1    3    3    0    0 -0.36363430584E+00  0.32558204199E+01  0.11726086450E+01  0.34795988002E+01  0.51100000000E-03 0. -1.
        -11    1    3    3    0    0 -0.22560618136E+01  0.29006169850E+00  0.67212729980E+00  0.23718570918E+01  0.51100000000E-03 0.  1.
         12    1    3    3    0    0 -0.39072549539E+02 -0.75907065768E+01 -0.13203398688E+02  0.41935816323E+02  0.00000000000E+00 0. -1.
</event>
<event>
 7    1  0.2642243E-009  0.4778727E+02  0.7816164E-02  0.1312668E+00
        -11   -1    0    0    0    0  0.00000000000E+00  0.00000000000E+00  0.45593999997E+02  0.45594000000E+02  0.51100000000E-03 0.  1.
         11   -1    0    0    0    0 -0.00000000000E+00 -0.00000000000E+00 -0.45593999997E+02  0.45594000000E+02  0.51100000000E-03 0. -1.
    9900012    2    1    2    0    0  0.40170217203E+02  0.12608145785E+02  0.10536215341E+02  0.47787268163E+02  0.19999986863E+02 0.  0.
        -12    1    1    2    0    0 -0.40170217203E+02 -0.12608145785E+02 -0.10536215341E+02  0.43400731837E+02  0.00000000000E+00 0.  1.
         11    1    3    3    0    0 -0.15811363251E+01  0.28856115221E+00  0.82132602437E+00  0.18049477324E+01  0.51100000000E-03 0. -1.
        -11    1    3    3    0    0  0.23748663187E+02  0.12129535375E+02  0.33019186978E+01  0.26870565660E+02  0.51100000000E-03 0.  1.
        -12    1    3    3    0    0  0.18002690341E+02  0.19004925765E+00  0.64129706188E+01  0.19111754770E+02  0.00000000000E+00 0.  1.
</event>
<event>
 7    1  0.2642243E-009  0.4778727E+02  0.7816164E-02  0.1312668E+00
        -11   -1    0    0    0    0  0.00000000000E+00  0.00000000000E+00  0.45593999997E+02  0.45594000000E+02  0.51100000000E-03 0. -1.
         11   -1    0    0    0    0 -0.00000000000E+00 -0.00000000000E+00 -0.45593999997E+02  0.45594000000E+02  0.51100000000E-03 0.  1.
    9900012    2    1    2    0    0 -0.42668662270E+01 -0.33940483688E+02  0.26710693411E+02  0.47787265872E+02  0.19999976416E+02 0.  0.
        -12    1    1    2    0    0  0.42668662270E+01  0.33940483688E+02 -0.26710693411E+02  0.43400734128E+02  0.00000000000E+00 0.  1.
         11    1    3    3    0    0 -0.40725248846E+01 -0.93209767914E+01  0.18291972065E+02  0.20929938116E+02  0.51100000000E-03 0. -1.
        -11    1    3    3    0    0 -0.17436414752E+01 -0.23757627983E+01  0.22918631491E+01  0.37332521242E+01  0.51100000000E-03 0.  1.
         12    1    3    3    0    0  0.15493001328E+01 -0.22243744099E+02  0.61268581968E+01  0.23124075631E+02  0.00000000000E+00 0. -1.
</event>
<event>
 7    1  0.2642243E-009  0.4778727E+02  0.7816164E-02  0.1312668E+00
        -11   -1    0    0    0    0  0.00000000000E+00  0.00000000000E+00  0.45593999997E+02  0.45594000000E+02  0.51100000000E-03 0.  1.
         11   -1    0    0    0    0 -0.00000000000E+00 -0.00000000000E+00 -0.45593999997E+02  0.45594000000E+02  0.51100000000E-03 0. -1.
    9900012    2    1    2    0    0  0.26328485603E+02 -0.19230437623E+02 -0.28646549482E+02  0.47787266336E+02  0.19999978531E+02 0.  0.
        -12    1    1    2    0    0 -0.26328485603E+02  0.19230437623E+02  0.28646549482E+02  0.43400733664E+02  0.00000000000E+00 0.  1.
         11    1    3    3    0    0  0.11284082032E+02 -0.17294841721E+02 -0.12790048732E+02  0.24290479704E+02  0.51100000000E-03 0.  1.
        -11    1    3    3    0    0  0.15723103113E+02 -0.12400949762E+01 -0.16053918663E+02  0.22505157448E+02  0.51100000000E-03 0. -1.
        -12    1    3    3    0    0 -0.67869954152E+00 -0.69550092644E+00  0.19741791215E+00  0.99162918391E+00  0.00000000000E+00 0.  1.
</event>
<event>
 7    1  0.2642243E-009  0.4778727E+02  0.7816164E-02  0.1312668E+00
        -11   -1    0    0    0    0  0.00000000000E+00  0.00000000000E+00  0.45593999997E+02  0.45594000000E+02  0.51100000000E-03 0.  1.
         11   -1    0    0    0    0 -0.00000000000E+00 -0.00000000000E+00 -0.45593999997E+02  0.45594000000E+02  0.51100000000E-03 0. -1.
    9900012    2    1    2    0    0 -0.32083741371E+02  0.28501571789E+02  0.64743618821E+01  0.47787269400E+02  0.19999992503E+02 0.  0.
        -12    1    1    2    0    0  0.32083741371E+02 -0.28501571789E+02 -0.64743618821E+01  0.43400730600E+02  0.00000000000E+00 0.  1.
         11    1    3    3    0    0 -0.16917183844E+02  0.18542825519E+02  0.94317418916E+01  0.26813900179E+02  0.51100000000E-03 0. -1.
        -11    1    3    3    0    0 -0.66136977123E+01  0.62190619319E+01 -0.63088168044E+01  0.11055265645E+02  0.51100000000E-03 0.  1.
        -12    1    3    3    0    0 -0.85528598148E+01  0.37396843384E+01  0.33514367950E+01  0.99181035765E+01  0.00000000000E+00 0.  1.
</event>
<event>
 7    1  0.2642243E-009  0.4778727E+02  0.7816164E-02  0.1312668E+00
        -11   -1    0    0    0    0  0.00000000000E+00  0.00000000000E+00  0.45593999997E+02  0.45594000000E+02  0.51100000000E-03 0. -1.
         11   -1    0    0    0    0 -0.00000000000E+00 -0.00000000000E+00 -0.45593999997E+02  0.45594000000E+02  0.51100000000E-03 0.  1.
    9900012    2    1    2    0    0  0.14457626551E+02 -0.98018815976E+01  0.39730635631E+02  0.47787271250E+02  0.20000000938E+02 0.  0.
        -12    1    1    2    0    0 -0.14457626551E+02  0.98018815976E+01 -0.39730635631E+02  0.43400728750E+02  0.00000000000E+00 0.  1.
         11    1    3    3    0    0 -0.20144967363E+01 -0.41285254810E+01  0.18848492425E+02  0.19400221305E+02  0.51100000000E-03 0. -1.
        -11    1    3    3    0    0  0.14849854688E+02 -0.18931043800E+01  0.17729624942E+02  0.23204345052E+02  0.51100000000E-03 0.  1.
         12    1    3    3    0    0  0.16222685990E+01 -0.37802517365E+01  0.31525182648E+01  0.51827048931E+01  0.00000000000E+00 0. -1.
</event>
<event>
 7    1  0.2642243E-009  0.4778728E+02  0.7816164E-02  0.1312668E+00
        -11   -1    0    0    0    0  0.00000000000E+00  0.00000000000E+00  0.45593999997E+02  0.45594000000E+02  0.51100000000E-03 0. -1.
         11   -1    0    0    0    0 -0.00000000000E+00 -0.00000000000E+00 -0.45593999997E+02  0.45594000000E+02  0.51100000000E-03 0.  1.
    9900012    2    1    2    0    0 -0.31027210971E+02 -0.30138881420E+02  0.35472349485E+01  0.47787275701E+02  0.20000021230E+02 0.  0.
        -12    1    1    2    0    0  0.31027210971E+02  0.30138881420E+02 -0.35472349485E+01  0.43400724299E+02  0.00000000000E+00 0.  1.
         11    1    3    3    0    0 -0.29116536656E+02 -0.17206451733E+02  0.61936955406E+01  0.34383085272E+02  0.51100000000E-03 0. -1.
        -11    1    3    3    0    0 -0.89932444256E+00 -0.82356428765E+01 -0.22428371156E+01  0.85828268438E+01  0.51100000000E-03 0.  1.
         12    1    3    3    0    0 -0.10113498722E+01 -0.46967868109E+01 -0.40362347648E+00  0.48213635854E+01  0.00000000000E+00 0. -1.
</event>
<event>
 7    1  0.2642243E-009  0.4778727E+02  0.7816164E-02  0.1312668E+00
        -11   -1    0    0    0    0  0.00000000000E+00  0.00000000000E+00  0.45593999997E+02  0.45594000000E+02  0.51100000000E-03 0.  1.
         11   -1    0    0    0    0 -0.00000000000E+00 -0.00000000000E+00 -0.45593999997E+02  0.45594000000E+02  0.51100000000E-03 0. -1.
    9900012    2    1    2    0    0 -0.31657209429E+02 -0.20012209891E+01 -0.29621606589E+02  0.47787269924E+02  0.19999994890E+02 0.  0.
        -12    1    1    2    0    0  0.31657209429E+02  0.20012209891E+01  0.29621606589E+02  0.43400730076E+02  0.00000000000E+00 0.  1.
         11    1    3    3    0    0 -0.63587111850E+01 -0.29444800207E+01 -0.38018788086E+01  0.79722928486E+01  0.51100000000E-03 0. -1.
        -11    1    3    3    0    0 -0.15047530947E+02 -0.27419844427E+01 -0.24444281212E+02  0.28835213724E+02  0.51100000000E-03 0.  1.
        -12    1    3    3    0    0 -0.10250967297E+02  0.36852434743E+01 -0.13754465679E+01  0.10979763351E+02  0.00000000000E+00 0.  1.
</event>
<event>
 7    1  0.2642243E-009  0.4778727E+02  0.7816164E-02  0.1312668E+00
        -11   -1    0    0    0    0  0.00000000000E+00  0.00000000000E+00  0.45593999997E+02  0.45594000000E+02  0.51100000000E-03 0.  1.
         11   -1    0    0    0    0 -0.00000000000E+00 -0.00000000000E+00 -0.45593999997E+02  0.45594000000E+02  0.51100000000E-03 0. -1.
    9900012    2    1    2    0    0  0.41729564327E+02  0.10959604212E+02 -0.47067920944E+01  0.47787270107E+02  0.19999995725E+02 0.  0.
        -12    1    1    2    0    0 -0.41729564327E+02 -0.10959604212E+02  0.47067920944E+01  0.43400729893E+02  0.00000000000E+00 0.  1.
         11    1    3    3    0    0  0.81332575266E+01  0.93550845518E+01 -0.52023046208E+01  0.13443640080E+02  0.51100000000E-03 0. -1.
        -11    1    3    3    0    0  0.23294103348E+02 -0.19844046891E+01 -0.54381144233E+00  0.23384799420E+02  0.51100000000E-03 0.  1.
        -12    1    3    3    0    0  0.10302203453E+02  0.35889243494E+01  0.10393239687E+01  0.10958830608E+02  0.00000000000E+00 0.  1.
</event>
<event>
 7    1  0.2642243E-009  0.4778727E+02  0.7816164E-02  0.1312668E+00
        -11   -1    0    0    0    0  0.00000000000E+00  0.00000000000E+00  0.45593999997E+02  0.45594000000E+02  0.51100000000E-03 0.  1.
         11   -1    0    0    0    0 -0.00000000000E+00 -0.00000000000E+00 -0.45593999997E+02  0.45594000000E+02  0.51100000000E-03 0. -1.
    9900012    2    1    2    0    0  0.34934300896E+02 -0.25686489282E+02  0.18499538081E+01  0.47787269133E+02  0.19999991283E+02 0.  0.
        -12    1    1    2    0    0 -0.34934300896E+02  0.25686489282E+02 -0.18499538081E+01  0.43400730867E+02  0.00000000000E+00 0.  1.
         11    1    3    3    0    0  0.96295431296E+01 -0.13787777018E+02  0.19599325471E+01  0.16931397811E+02  0.51100000000E-03 0. -1.
        -11    1    3    3    0    0  0.18496516208E+02 -0.37317783113E+01  0.42869147873E+01  0.19350062528E+02  0.51100000000E-03 0.  1.
        -12    1    3    3    0    0  0.68082415584E+01 -0.81669339532E+01 -0.43968935264E+01  0.11505808794E+02  0.00000000000E+00 0.  1.
</event>
<event>
 7    1  0.2642243E-009  0.4778727E+02  0.7816164E-02  0.1312668E+00
        -11   -1    0    0    0    0  0.00000000000E+00  0.00000000000E+00  0.45593999997E+02  0.45594000000E+02  0.51100000000E-03 0.  1.
         11   -1    0    0    0    0 -0.00000000000E+00 -0.00000000000E+00 -0.45593999997E+02  0.45594000000E+02  0.51100000000E-03 0. -1.
    9900012    2    1    2    0    0 -0.18652388822E+02  0.84048795620E+01 -0.38276224952E+02  0.47787274133E+02  0.20000014084E+02 0.  0.
        -12    1    1    2    0    0  0.18652388822E+02 -0.84048795620E+01  0.38276224952E+02  0.43400725867E+02  0.00000000000E+00 0.  1.
         11    1    3    3    0    0 -0.17322817876E+02 -0.11338820939E+01 -0.21956544108E+02  0.27990275761E+02  0.51100000000E-03 0.  1.
        -11    1    3    3    0    0 -0.92683966956E+00  0.72754579546E+01 -0.67927649443E+01  0.99966482419E+01  0.51100000000E-03 0. -1.
        -12    1    3    3    0    0 -0.40273127669E+00  0.22633037013E+01 -0.95269158995E+01  0.98003501306E+01  0.00000000000E+00 0.  1.
</event>
<event>
 7    1  0.2642243E-009  0.4778727E+02  0.7816164E-02  0.1312668E+00
        -11   -1    0    0    0    0  0.00000000000E+00  0.00000000000E+00  0.45593999997E+02  0.45594000000E+02  0.51100000000E-03 0. -1.
         11   -1    0    0    0    0 -0.00000000000E+00 -0.00000000000E+00 -0.45593999997E+02  0.45594000000E+02  0.51100000000E-03 0.  1.
    9900012    2    1    2    0    0  0.23507342916E+02  0.42030289385E+01  0.36240343352E+02  0.47787272938E+02  0.20000008634E+02 0.  0.
        -12    1    1    2    0    0 -0.23507342916E+02 -0.42030289385E+01 -0.36240343352E+02  0.43400727062E+02  0.00000000000E+00 0.  1.
         11    1    3    3    0    0  0.11857037368E+02 -0.54289282257E+01  0.24241580007E+02  0.27526656141E+02  0.51100000000E-03 0. -1.
        -11    1    3    3    0    0  0.72393839555E+01  0.65434825231E+01  0.38434305933E+01  0.10487983723E+02  0.51100000000E-03 0.  1.
         12    1    3    3    0    0  0.44109215920E+01  0.30884746412E+01  0.81553327519E+01  0.97726330738E+01  0.00000000000E+00 0. -1.
</event>
<event>
 7    1  0.2642243E-009  0.4778728E+02  0.7816164E-02  0.1312668E+00
        -11   -1    0    0    0    0  0.00000000000E+00  0.00000000000E+00  0.45593999997E+02  0.45594000000E+02  0.51100000000E-03 0.  1.
         11   -1    0    0    0    0 -0.00000000000E+00 -0.00000000000E+00 -0.45593999997E+02  0.45594000000E+02  0.51100000000E-03 0. -1.
    9900012    2    1    2    0    0 -0.62082816146E+01  0.21795893347E+02 -0.37013766815E+02  0.47787278102E+02  0.20000032177E+02 0.  0.
        -12    1    1    2    0    0  0.62082816146E+01 -0.21795893347E+02  0.37013766815E+02  0.43400721898E+02  0.00000000000E+00 0.  1.
         11    1    3    3    0    0  0.44892731383E+00  0.57689856680E+00 -0.41353269727E+00  0.83985548895E+00  0.51100000000E-03 0. -1.
        -11    1    3    3    0    0 -0.54740814414E+01  0.18038382277E+02 -0.12520833004E+02  0.22630069867E+02  0.51100000000E-03 0.  1.
        -12    1    3    3    0    0 -0.11831274871E+01  0.31806125032E+01 -0.24079401114E+02  0.24317352746E+02  0.00000000000E+00 0.  1.
</event>
<event>
 7    1  0.2642243E-009  0.4778727E+02  0.7816164E-02  0.1312668E+00
        -11   -1    0    0    0    0  0.00000000000E+00  0.00000000000E+00  0.45593999997E+02  0.45594000000E+02  0.51100000000E-03 0.  1.
         11   -1    0    0    0    0 -0.00000000000E+00 -0.00000000000E+00 -0.45593999997E+02  0.45594000000E+02  0.51100000000E-03 0. -1.
    9900012    2    1    2    0    0 -0.22685116903E+02 -0.35992241590E+02  0.85771259351E+01  0.47787273360E+02  0.20000010556E+02 0.  0.
        -12    1    1    2    0    0  0.22685116903E+02  0.35992241590E+02 -0.85771259351E+01  0.43400726640E+02  0.00000000000E+00 0.  1.
         11    1    3    3    0    0 -0.19975571481E+02 -0.20467104941E+02  0.87705965426E+01  0.29914030230E+02  0.51100000000E-03 0. -1.
        -11    1    3    3    0    0  0.14904648118E+01  0.21472449230E+00 -0.47884689216E+00  0.15801539703E+01  0.51100000000E-03 0.  1.
         12    1    3    3    0    0 -0.42000102346E+01 -0.15739861142E+02  0.28537628466E+00  0.16293089159E+02  0.00000000000E+00 0. -1.
</event>
<event>
 7    1  0.2642243E-009  0.4778727E+02  0.7816164E-02  0.1312668E+00
        -11   -1    0    0    0    0  0.00000000000E+00  0.00000000000E+00  0.45593999997E+02  0.45594000000E+02  0.51100000000E-03 0. -1.
         11   -1    0    0    0    0 -0.00000000000E+00 -0.00000000000E+00 -0.45593999997E+02  0.45594000000E+02  0.51100000000E-03 0.  1.
    9900012    2    1    2    0    0 -0.11256647283E+02 -0.16968434732E+02  0.38327318777E+02  0.47787271320E+02  0.20000001256E+02 0.  0.
        -12    1    1    2    0    0  0.11256647283E+02  0.16968434732E+02 -0.38327318777E+02  0.43400728680E+02  0.00000000000E+00 0.  1.
         11    1    3    3    0    0 -0.10497394205E+01 -0.27068718677E-03  0.87601992979E+01  0.88228705603E+01  0.51100000000E-03 0. -1.
        -11    1    3    3    0    0 -0.29689145641E+01  0.24863714641E+01  0.17331220524E+01  0.42426653246E+01  0.51100000000E-03 0.  1.
        -12    1    3    3    0    0 -0.72379932979E+01 -0.19454535509E+02  0.27833997427E+02  0.34721735435E+02  0.00000000000E+00 0.  1.
</event>
<event>
 7    1  0.2642243E-009  0.4778727E+02  0.7816164E-02  0.1312668E+00
        -11   -1    0    0    0    0  0.00000000000E+00  0.00000000000E+00  0.45593999997E+02  0.45594000000E+02  0.51100000000E-03 0. -1.
         11   -1    0    0    0    0 -0.00000000000E+00 -0.00000000000E+00 -0.45593999997E+02  0.45594000000E+02  0.51100000000E-03 0.  1.
    9900012    2    1    2    0    0 -0.10998284997E+02  0.27239349521E+02  0.31948065868E+02  0.47787270191E+02  0.19999996110E+02 0.  0.
        -12    1    1    2    0    0  0.10998284997E+02 -0.27239349521E+02 -0.31948065868E+02  0.43400729809E+02  0.00000000000E+00 0.  1.
         11    1    3    3    0    0  0.39525826068E+01  0.22477516964E+01  0.15280816834E+01  0.47969084673E+01  0.51100000000E-03 0. -1.
        -11    1    3    3    0    0 -0.99046689361E+01  0.16311168736E+02  0.25385817487E+02  0.31758407108E+02  0.51100000000E-03 0.  1.
        -12    1    3    3    0    0 -0.50461986678E+01  0.86804290888E+01  0.50341666976E+01  0.11231954616E+02  0.00000000000E+00 0.  1.
</event>
<event>
 7    1  0.2642243E-009  0.4778727E+02  0.7816164E-02  0.1312668E+00
        -11   -1    0    0    0    0  0.00000000000E+00  0.00000000000E+00  0.45593999997E+02  0.45594000000E+02  0.51100000000E-03 0.  1.
         11   -1    0    0    0    0 -0.00000000000E+00 -0.00000000000E+00 -0.45593999997E+02  0.45594000000E+02  0.51100000000E-03 0. -1.
    9900012    2    1    2    0    0  0.29503572179E+02  0.24959117046E+02 -0.19753609937E+02  0.47787269585E+02  0.19999993345E+02 0.  0.
        -12    1    1    2    0    0 -0.29503572179E+02 -0.24959117046E+02  0.19753609937E+02  0.43400730415E+02  0.00000000000E+00 0.  1.
         11    1    3    3    0    0  0.20609729790E+02  0.17265367652E+02 -0.14813949096E+02  0.30697018915E+02  0.51100000000E-03 0. -1.
        -11    1    3    3    0    0 -0.19709043929E+01  0.71796698085E+00  0.15800573503E+01  0.26261230365E+01  0.51100000000E-03 0.  1.
        -12    1    3    3    0    0  0.10864746782E+02  0.69757824137E+01 -0.65197181907E+01  0.14464127634E+02  0.00000000000E+00 0.  1.
</event>
<event>
 7    1  0.2642243E-009  0.4778727E+02  0.7816164E-02  0.1312668E+00
        -11   -1    0    0    0    0  0.00000000000E+00  0.00000000000E+00  0.45593999997E+02  0.45594000000E+02  0.51100000000E-03 0.  1.
         11   -1    0    0    0    0 -0.00000000000E+00 -0.00000000000E+00 -0.45593999997E+02  0.45594000000E+02  0.51100000000E-03 0. -1.
    9900012    2    1    2    0    0  0.20213831168E+01 -0.14027627944E+02 -0.41021494211E+02  0.47787270482E+02  0.19999997434E+02 0.  0.
        -12    1    1    2    0    0 -0.20213831168E+01  0.14027627944E+02  0.41021494211E+02  0.43400729518E+02  0.00000000000E+00 0.  1.
         11    1    3    3    0    0  0.11679928456E+01  0.89591281585E+00 -0.13575367746E+02  0.13654943309E+02  0.51100000000E-03 0. -1.
        -11    1    3    3    0    0 -0.19242750887E+01 -0.11140077707E+02 -0.73242663328E+01  0.13470302280E+02  0.51100000000E-03 0.  1.
        -12    1    3    3    0    0  0.27776653599E+01 -0.37834630532E+01 -0.20121860132E+02  0.20662024893E+02  0.00000000000E+00 0.  1.
</event>
<event>
 7    1  0.2642243E-009  0.4778726E+02  0.7816164E-02  0.1312668E+00
        -11   -1    0    0    0    0  0.00000000000E+00  0.00000000000E+00  0.45593999997E+02  0.45594000000E+02  0.51100000000E-03 0.  1.
         11   -1    0    0    0    0 -0.00000000000E+00 -0.00000000000E+00 -0.45593999997E+02  0.45594000000E+02  0.51100000000E-03 0. -1.
    9900012    2    1    2    0    0 -0.15199062114E+02  0.21594517681E+02 -0.34442548936E+02  0.47787264289E+02  0.19999969200E+02 0.  0.
        -12    1    1    2    0    0  0.15199062114E+02 -0.21594517681E+02  0.34442548936E+02  0.43400735711E+02  0.00000000000E+00 0.  1.
         11    1    3    3    0    0 -0.35237602586E+00  0.28087140377E+01  0.22305029774E+01  0.36039127629E+01  0.51100000000E-03 0.  1.
        -11    1    3    3    0    0 -0.66813590460E+01  0.55436836063E+01 -0.17128109798E+02  0.19202737621E+02  0.51100000000E-03 0. -1.
        -12    1    3    3    0    0 -0.81653270423E+01  0.13242120037E+02 -0.19544942115E+02  0.24980613905E+02  0.00000000000E+00 0.  1.
</event>
<event>
 7    1  0.2642243E-009  0.4778723E+02  0.7816164E-02  0.1312668E+00
        -11   -1    0    0    0    0  0.00000000000E+00  0.00000000000E+00  0.45593999997E+02  0.45594000000E+02  0.51100000000E-03 0. -1.
         11   -1    0    0    0    0 -0.00000000000E+00 -0.00000000000E+00 -0.45593999997E+02  0.45594000000E+02  0.51100000000E-03 0.  1.
    9900012    2    1    2    0    0 -0.14385458871E+02  0.40946450870E+02 -0.27136745333E+00  0.47787229200E+02  0.19999809211E+02 0.  0.
        -12    1    1    2    0    0  0.14385458871E+02 -0.40946450870E+02  0.27136745333E+00  0.43400770800E+02  0.00000000000E+00 0.  1.
         11    1    3    3    0    0 -0.42259168448E+01  0.16625680447E+02  0.54465715045E+01  0.17998243385E+02  0.51100000000E-03 0. -1.
        -11    1    3    3    0    0 -0.13032994479E+02  0.21867237117E+02 -0.50047264425E+01  0.25943829541E+02  0.51100000000E-03 0.  1.
        -12    1    3    3    0    0  0.28734524528E+01  0.24535333059E+01 -0.71321251537E+00  0.38451562743E+01  0.00000000000E+00 0.  1.
</event>
<event>
 7    1  0.2642243E-009  0.4778727E+02  0.7816164E-02  0.1312668E+00
        -11   -1    0    0    0    0  0.00000000000E+00  0.00000000000E+00  0.45593999997E+02  0.45594000000E+02  0.51100000000E-03 0.  1.
         11   -1    0    0    0    0 -0.00000000000E+00 -0.00000000000E+00 -0.45593999997E+02  0.45594000000E+02  0.51100000000E-03 0. -1.
    9900012    2    1    2    0    0  0.94474600102E+01  0.15795784007E+02 -0.39304730269E+02  0.47787272880E+02  0.20000008370E+02 0.  0.
        -12    1    1    2    0    0 -0.94474600102E+01 -0.15795784007E+02  0.39304730269E+02  0.43400727120E+02  0.00000000000E+00 0.  1.
         11    1    3    3    0    0  0.62014236476E+01 -0.19611376569E+01 -0.17985780133E+02  0.19125689620E+02  0.51100000000E-03 0. -1.
        -11    1    3    3    0    0  0.34255039799E+01  0.15781765641E+02 -0.21232834925E+02  0.26676421864E+02  0.51100000000E-03 0.  1.
         12    1    3    3    0    0 -0.17946761730E+00  0.19751560229E+01 -0.86115210694E-01  0.19851613965E+01  0.00000000000E+00 0. -1.
</event>
<event>
 7    1  0.2642243E-009  0.4778727E+02  0.7816164E-02  0.1312668E+00
        -11   -1    0    0    0    0  0.00000000000E+00  0.00000000000E+00  0.45593999997E+02  0.45594000000E+02  0.51100000000E-03 0.  1.
         11   -1    0    0    0    0 -0.00000000000E+00 -0.00000000000E+00 -0.45593999997E+02  0.45594000000E+02  0.51100000000E-03 0. -1.
    9900012    2    1    2    0    0  0.40835012793E+02  0.13153387171E+02  0.65660848163E+01  0.47787270355E+02  0.19999996857E+02 0.  0.
        -12    1    1    2    0    0 -0.40835012793E+02 -0.13153387171E+02 -0.65660848163E+01  0.43400729645E+02  0.00000000000E+00 0.  1.
         11    1    3    3    0    0  0.32978634154E+02  0.13841477427E+02  0.30126121070E+01  0.35892236486E+02  0.51100000000E-03 0. -1.
        -11    1    3    3    0    0  0.44736114995E+01 -0.33090021031E+01  0.48943130637E+01  0.74106002047E+01  0.51100000000E-03 0.  1.
        -12    1    3    3    0    0  0.33827671400E+01  0.26209118473E+01 -0.13408403544E+01  0.44844336645E+01  0.00000000000E+00 0.  1.
</event>
<event>
 7    1  0.2642243E-009  0.4778728E+02  0.7816164E-02  0.1312668E+00
        -11   -1    0    0    0    0  0.00000000000E+00  0.00000000000E+00  0.45593999997E+02  0.45594000000E+02  0.51100000000E-03 0.  1.
         11   -1    0    0    0    0 -0.00000000000E+00 -0.00000000000E+00 -0.45593999997E+02  0.45594000000E+02  0.51100000000E-03 0. -1.
    9900012    2    1    2    0    0 -0.19963990401E+02 -0.30969518014E+02 -0.22933620871E+02  0.47787275064E+02  0.20000018326E+02 0.  0.
        -12    1    1    2    0    0  0.19963990401E+02  0.30969518014E+02  0.22933620871E+02  0.43400724936E+02  0.00000000000E+00 0.  1.
         11    1    3    3    0    0  0.45433890630E+00 -0.10968186650E+02 -0.13054084153E+02  0.17056279066E+02  0.51100000000E-03 0. -1.
        -11    1    3    3    0    0 -0.13125563236E+02 -0.15979311454E+02 -0.59220628921E+01  0.21510221616E+02  0.51100000000E-03 0.  1.
         12    1    3    3    0    0 -0.72927660716E+01 -0.40220199099E+01 -0.39574738258E+01  0.92207743824E+01  0.00000000000E+00 0. -1.
</event>
<event>
 7    1  0.2642243E-009  0.4778727E+02  0.7816164E-02  0.1312668E+00
        -11   -1    0    0    0    0  0.00000000000E+00  0.00000000000E+00  0.45593999997E+02  0.45594000000E+02  0.51100000000E-03 0.  1.
         11   -1    0    0    0    0 -0.00000000000E+00 -0.00000000000E+00 -0.45593999997E+02  0.45594000000E+02  0.51100000000E-03 0. -1.
    9900012    2    1    2    0    0  0.28614684729E+02 -0.11634617541E+02 -0.30487028326E+02  0.47787269550E+02  0.19999993184E+02 0.  0.
        -12    1    1    2    0    0 -0.28614684729E+02  0.11634617541E+02  0.30487028326E+02  0.43400730450E+02  0.00000000000E+00 0.  1.
         11    1    3    3    0    0  0.13468534504E+02 -0.66370905627E+01 -0.27252032895E+02  0.31114718222E+02  0.51100000000E-03 0. -1.
        -11    1    3    3    0    0  0.83410249357E+01 -0.14156745166E+01 -0.30075116163E+01  0.89789730870E+01  0.51100000000E-03 0.  1.
         12    1    3    3    0    0  0.68051252893E+01 -0.35818524616E+01 -0.22748381453E+00  0.76935782407E+01  0.00000000000E+00 0. -1.
</event>
<event>
 7    1  0.2642243E-009  0.4778726E+02  0.7816164E-02  0.1312668E+00
        -11   -1    0    0    0    0  0.00000000000E+00  0.00000000000E+00  0.45593999997E+02  0.45594000000E+02  0.51100000000E-03 0. -1.
         11   -1    0    0    0    0 -0.00000000000E+00 -0.00000000000E+00 -0.45593999997E+02  0.45594000000E+02  0.51100000000E-03 0.  1.
    9900012    2    1    2    0    0  0.20341909679E+01  0.42541393165E+02 -0.83496001898E+01  0.47787263962E+02  0.19999967707E+02 0.  0.
        -12    1    1    2    0    0 -0.20341909679E+01 -0.42541393165E+02  0.83496001898E+01  0.43400736038E+02  0.00000000000E+00 0.  1.
         11    1    3    3    0    0 -0.52022898327E+01  0.28461374875E+02  0.22532111891E+00  0.28933794241E+02  0.51100000000E-03 0. -1.
        -11    1    3    3    0    0  0.62275301418E+01  0.13061152119E+02 -0.55349672604E+01  0.15492310647E+02  0.51100000000E-03 0.  1.
        -12    1    3    3    0    0  0.10089506587E+01  0.10188661712E+01 -0.30399540484E+01  0.33611590743E+01  0.00000000000E+00 0.  1.
</event>
<event>
 7    1  0.2642243E-009  0.4778727E+02  0.7816164E-02  0.1312668E+00
        -11   -1    0    0    0    0  0.00000000000E+00  0.00000000000E+00  0.45593999997E+02  0.45594000000E+02  0.51100000000E-03 0.  1.
         11   -1    0    0    0    0 -0.00000000000E+00 -0.00000000000E+00 -0.45593999997E+02  0.45594000000E+02  0.51100000000E-03 0. -1.
    9900012    2    1    2    0    0  0.28565726226E+02  0.29904841867E+02 -0.13165227760E+02  0.47787268395E+02  0.19999987918E+02 0.  0.
        -12    1    1    2    0    0 -0.28565726226E+02 -0.29904841867E+02  0.13165227760E+02  0.43400731605E+02  0.00000000000E+00 0.  1.
         11    1    3    3    0    0  0.42562714724E+01  0.94281549187E+01  0.15428240959E+01  0.10458788576E+02  0.51100000000E-03 0. -1.
        -11    1    3    3    0    0  0.10717377602E+02  0.17703807466E+01 -0.71377496586E+01  0.12997842171E+02  0.51100000000E-03 0.  1.
        -12    1    3    3    0    0  0.13592077152E+02  0.18706306201E+02 -0.75703021976E+01  0.24330637648E+02  0.00000000000E+00 0.  1.
</event>
<event>
 7    1  0.2642243E-009  0.4778726E+02  0.7816164E-02  0.1312668E+00
        -11   -1    0    0    0    0  0.00000000000E+00  0.00000000000E+00  0.45593999997E+02  0.45594000000E+02  0.51100000000E-03 0.  1.
         11   -1    0    0    0    0 -0.00000000000E+00 -0.00000000000E+00 -0.45593999997E+02  0.45594000000E+02  0.51100000000E-03 0. -1.
    9900012    2    1    2    0    0  0.22685349768E+02 -0.11686708553E+02 -0.35105842277E+02  0.47787257922E+02  0.19999940170E+02 0.  0.
        -12    1    1    2    0    0 -0.22685349768E+02  0.11686708553E+02  0.35105842277E+02  0.43400742078E+02  0.00000000000E+00 0.  1.
         11    1    3    3    0    0  0.18172974308E+02 -0.10222815092E+02 -0.14968707574E+02  0.25667589492E+02  0.51100000000E-03 0. -1.
        -11    1    3    3    0    0 -0.17686314590E+01 -0.21616513433E+01 -0.71623890259E+01  0.76876921497E+01  0.51100000000E-03 0.  1.
         12    1    3    3    0    0  0.62810069188E+01  0.69775788225E+00 -0.12974745677E+02  0.14431976281E+02  0.00000000000E+00 0. -1.
</event>
<event>
 7    1  0.2642243E-009  0.4778727E+02  0.7816164E-02  0.1312668E+00
        -11   -1    0    0    0    0  0.00000000000E+00  0.00000000000E+00  0.45593999997E+02  0.45594000000E+02  0.51100000000E-03 0.  1.
         11   -1    0    0    0    0 -0.00000000000E+00 -0.00000000000E+00 -0.45593999997E+02  0.45594000000E+02  0.51100000000E-03 0. -1.
    9900012    2    1    2    0    0 -0.70635054695E+01  0.10651669347E+02 -0.41476162484E+02  0.47787271621E+02  0.20000002629E+02 0.  0.
        -12    1    1    2    0    0  0.70635054695E+01 -0.10651669347E+02  0.41476162484E+02  0.43400728379E+02  0.00000000000E+00 0.  1.
         11    1    3    3    0    0 -0.40257512376E+01  0.15721905533E+02 -0.31664646567E+02  0.35581383182E+02  0.51100000000E-03 0. -1.
        -11    1    3    3    0    0 -0.46943897218E-01 -0.36649899192E+01 -0.34316245178E+01  0.50209961093E+01  0.51100000000E-03 0.  1.
         12    1    3    3    0    0 -0.29908103347E+01 -0.14052462668E+01 -0.63798913991E+01  0.71848923299E+01  0.00000000000E+00 0. -1.
</event>
<event>
 7    1  0.2642243E-009  0.4778727E+02  0.7816164E-02  0.1312668E+00
        -11   -1    0    0    0    0  0.00000000000E+00  0.00000000000E+00  0.45593999997E+02  0.45594000000E+02  0.51100000000E-03 0.  1.
         11   -1    0    0    0    0 -0.00000000000E+00 -0.00000000000E+00 -0.45593999997E+02  0.45594000000E+02  0.51100000000E-03 0. -1.
    9900012    2    1    2    0    0 -0.36325202138E+02 -0.17086532201E+02 -0.16497072855E+02  0.47787270677E+02  0.19999998323E+02 0.  0.
        -12    1    1    2    0    0  0.36325202138E+02  0.17086532201E+02  0.16497072855E+02  0.43400729323E+02  0.00000000000E+00 0.  1.
         11    1    3    3    0    0 -0.28780207716E+02 -0.10006821143E+02 -0.18982514796E+02  0.35899480411E+02  0.51100000000E-03 0. -1.
        -11    1    3    3    0    0 -0.99963409718E-01 -0.20301253506E+01  0.20416368500E+01  0.28809170260E+01  0.51100000000E-03 0.  1.
        -12    1    3    3    0    0 -0.74450310123E+01 -0.50495857080E+01  0.44380509115E+00  0.90068732397E+01  0.00000000000E+00 0.  1.
</event>
<event>
 7    1  0.2642243E-009  0.4778727E+02  0.7816164E-02  0.1312668E+00
        -11   -1    0    0    0    0  0.00000000000E+00  0.00000000000E+00  0.45593999997E+02  0.45594000000E+02  0.51100000000E-03 0.  1.
         11   -1    0    0    0    0 -0.00000000000E+00 -0.00000000000E+00 -0.45593999997E+02  0.45594000000E+02  0.51100000000E-03 0. -1.
    9900012    2    1    2    0    0 -0.63464754874E+01 -0.20790588051E+02 -0.37564566501E+02  0.47787274672E+02  0.20000016538E+02 0.  0.
        -12    1    1    2    0    0  0.63464754874E+01  0.20790588051E+02  0.37564566501E+02  0.43400725328E+02  0.00000000000E+00 0.  1.
         11    1    3    3    0    0 -0.17299995421E+01 -0.52011394975E+01 -0.63038828464E+01  0.83536632497E+01  0.51100000000E-03 0. -1.
        -11    1    3    3    0    0  0.21932883068E+01 -0.13171430957E+02 -0.91890478041E+01  0.16209124186E+02  0.51100000000E-03 0.  1.
        -12    1    3    3    0    0 -0.68097642520E+01 -0.24180175964E+01 -0.22071635851E+02  0.23224487236E+02  0.00000000000E+00 0.  1.
</event>
<event>
 7    1  0.2642243E-009  0.4778727E+02  0.7816164E-02  0.1312668E+00
        -11   -1    0    0    0    0  0.00000000000E+00  0.00000000000E+00  0.45593999997E+02  0.45594000000E+02  0.51100000000E-03 0.  1.
         11   -1    0    0    0    0 -0.00000000000E+00 -0.00000000000E+00 -0.45593999997E+02  0.45594000000E+02  0.51100000000E-03 0. -1.
    9900012    2    1    2    0    0 -0.19324472881E+02 -0.16681649720E+02 -0.35098589536E+02  0.47787266401E+02  0.19999978829E+02 0.  0.
        -12    1    1    2    0    0  0.19324472881E+02  0.16681649720E+02  0.35098589536E+02  0.43400733599E+02  0.00000000000E+00 0.  1.
         11    1    3    3    0    0 -0.13789937657E+02 -0.64619966668E+01 -0.31845076122E+02  0.35299131080E+02  0.51100000000E-03 0. -1.
        -11    1    3    3    0    0 -0.14698831855E+01 -0.46225260805E+01 -0.15867939483E-01  0.48506242894E+01  0.51100000000E-03 0.  1.
         12    1    3    3    0    0 -0.40646520390E+01 -0.55971269727E+01 -0.32376454739E+01  0.76375110318E+01  0.00000000000E+00 0. -1.
</event>
<event>
 7    1  0.2642243E-009  0.4778727E+02  0.7816164E-02  0.1312668E+00
        -11   -1    0    0    0    0  0.00000000000E+00  0.00000000000E+00  0.45593999997E+02  0.45594000000E+02  0.51100000000E-03 0. -1.
         11   -1    0    0    0    0 -0.00000000000E+00 -0.00000000000E+00 -0.45593999997E+02  0.45594000000E+02  0.51100000000E-03 0.  1.
    9900012    2    1    2    0    0  0.11858204763E+02  0.41509688573E+02 -0.44667868516E+01  0.47787269011E+02  0.19999990728E+02 0.  0.
        -12    1    1    2    0    0 -0.11858204763E+02 -0.41509688573E+02  0.44667868516E+01  0.43400730989E+02  0.00000000000E+00 0.  1.
         11    1    3    3    0    0  0.12180427320E+02  0.33473352208E+02 -0.67643751047E+00  0.35627035882E+02  0.51100000000E-03 0. -1.
        -11    1    3    3    0    0 -0.34419042850E+01  0.71366533178E+01 -0.40587123486E+01  0.89023408087E+01  0.51100000000E-03 0.  1.
        -12    1    3    3    0    0  0.31196817274E+01  0.89968304677E+00  0.26836300748E+00  0.32578923200E+01  0.00000000000E+00 0.  1.
</event>
<event>
 7    1  0.2642243E-009  0.4778727E+02  0.7816164E-02  0.1312668E+00
        -11   -1    0    0    0    0  0.00000000000E+00  0.00000000000E+00  0.45593999997E+02  0.45594000000E+02  0.51100000000E-03 0.  1.
         11   -1    0    0    0    0 -0.00000000000E+00 -0.00000000000E+00 -0.45593999997E+02  0.45594000000E+02  0.51100000000E-03 0. -1.
    9900012    2    1    2    0    0 -0.70729527585E+01  0.15776861332E+02 -0.39808127775E+02  0.47787273611E+02  0.20000011700E+02 0.  0.
        -12    1    1    2    0    0  0.70729527585E+01 -0.15776861332E+02  0.39808127775E+02  0.43400726389E+02  0.00000000000E+00 0.  1.
         11    1    3    3    0    0 -0.61486069579E+01  0.93457098953E+01 -0.23915861160E+02  0.26402955824E+02  0.51100000000E-03 0. -1.
        -11    1    3    3    0    0  0.46631450003E+01  0.69807136237E+00 -0.11085465080E+02  0.12046566366E+02  0.51100000000E-03 0.  1.
        -12    1    3    3    0    0 -0.55874908010E+01  0.57330800742E+01 -0.48068015345E+01  0.93377514199E+01  0.00000000000E+00 0.  1.
</event>
<event>
 7    1  0.2642243E-009  0.4778730E+02  0.7816164E-02  0.1312668E+00
        -11   -1    0    0    0    0  0.00000000000E+00  0.00000000000E+00  0.45593999997E+02  0.45594000000E+02  0.51100000000E-03 0. -1.
         11   -1    0    0    0    0 -0.00000000000E+00 -0.00000000000E+00 -0.45593999997E+02  0.45594000000E+02  0.51100000000E-03 0.  1.
    9900012    2    1    2    0    0  0.33825285826E+02  0.19317202389E+02 -0.19139395317E+02  0.47787300438E+02  0.20000134017E+02 0.  0.
        -12    1    1    2    0    0 -0.33825285826E+02 -0.19317202389E+02  0.19139395317E+02  0.43400699562E+02  0.00000000000E+00 0.  1.
         11    1    3    3    0    0  0.30000184589E+02  0.20314339762E+02 -0.16359477431E+02  0.39753188267E+02  0.51100000000E-03 0. -1.
        -11    1    3    3    0    0  0.65929628797E+00 -0.20493459882E+01  0.14880428247E+01  0.26170140015E+01  0.51100000000E-03 0.  1.
         12    1    3    3    0    0  0.31658049495E+01  0.10522086143E+01 -0.42679607110E+01  0.54170981694E+01  0.00000000000E+00 0. -1.
</event>
<event>
 7    1  0.2642243E-009  0.4778727E+02  0.7816164E-02  0.1312668E+00
        -11   -1    0    0    0    0  0.00000000000E+00  0.00000000000E+00  0.45593999997E+02  0.45594000000E+02  0.51100000000E-03 0.  1.
         11   -1    0    0    0    0 -0.00000000000E+00 -0.00000000000E+00 -0.45593999997E+02  0.45594000000E+02  0.51100000000E-03 0. -1.
    9900012    2    1    2    0    0  0.34749525954E+02 -0.56540253843E+01 -0.25379632087E+02  0.47787270951E+02  0.19999999575E+02 0.  0.
        -12    1    1    2    0    0 -0.34749525954E+02  0.56540253843E+01  0.25379632087E+02  0.43400729049E+02  0.00000000000E+00 0.  1.
         11    1    3    3    0    0  0.15623511560E+00 -0.21864559596E+01 -0.57303894199E+01  0.61353371740E+01  0.51100000000E-03 0. -1.
        -11    1    3    3    0    0  0.13631326536E+02  0.16944196973E+01 -0.22377907998E+01  0.13917321192E+02  0.51100000000E-03 0.  1.
        -12    1    3    3    0    0  0.20961964303E+02 -0.51619891220E+01 -0.17411451867E+02  0.27734612585E+02  0.00000000000E+00 0.  1.
</event>
<event>
 7    1  0.2642243E-009  0.4778727E+02  0.7816164E-02  0.1312668E+00
        -11   -1    0    0    0    0  0.00000000000E+00  0.00000000000E+00  0.45593999997E+02  0.45594000000E+02  0.51100000000E-03 0. -1.
         11   -1    0    0    0    0 -0.00000000000E+00 -0.00000000000E+00 -0.45593999997E+02  0.45594000000E+02  0.51100000000E-03 0.  1.
    9900012    2    1    2    0    0 -0.36503290556E+02 -0.22379769705E+02  0.70907723579E+01  0.47787269982E+02  0.19999995155E+02 0.  0.
        -12    1    1    2    0    0  0.36503290556E+02  0.22379769705E+02 -0.70907723579E+01  0.43400730018E+02  0.00000000000E+00 0.  1.
         11    1    3    3    0    0 -0.29264544238E+02 -0.22091230092E+02  0.23095853241E+01  0.36739218569E+02  0.51100000000E-03 0. -1.
        -11    1    3    3    0    0 -0.21773202516E+01  0.13957144179E+01  0.50852113000E+01  0.57050956557E+01  0.51100000000E-03 0.  1.
         12    1    3    3    0    0 -0.50614260669E+01 -0.16842540309E+01 -0.30402426621E+00  0.53429557574E+01  0.00000000000E+00 0. -1.
</event>
<event>
 7    1  0.2642243E-009  0.4778724E+02  0.7816164E-02  0.1312668E+00
        -11   -1    0    0    0    0  0.00000000000E+00  0.00000000000E+00  0.45593999997E+02  0.45594000000E+02  0.51100000000E-03 0.  1.
         11   -1    0    0    0    0 -0.00000000000E+00 -0.00000000000E+00 -0.45593999997E+02  0.45594000000E+02  0.51100000000E-03 0. -1.
    9900012    2    1    2    0    0 -0.23090488530E+02 -0.19859932152E+02 -0.30919866882E+02  0.47787242706E+02  0.19999870795E+02 0.  0.
        -12    1    1    2    0    0  0.23090488530E+02  0.19859932152E+02  0.30919866882E+02  0.43400757294E+02  0.00000000000E+00 0.  1.
         11    1    3    3    0    0  0.57992532431E+00 -0.88585130625E+01 -0.78399730546E+01  0.11843763963E+02  0.51100000000E-03 0. -1.
        -11    1    3    3    0    0 -0.12232122093E+02 -0.21846058978E+01 -0.67395182236E+01  0.14135714342E+02  0.51100000000E-03 0.  1.
         12    1    3    3    0    0 -0.11438291761E+02 -0.88168131918E+01 -0.16340375604E+02  0.21807764401E+02  0.00000000000E+00 0. -1.
</event>
<event>
 7    1  0.2642243E-009  0.4778727E+02  0.7816164E-02  0.1312668E+00
        -11   -1    0    0    0    0  0.00000000000E+00  0.00000000000E+00  0.45593999997E+02  0.45594000000E+02  0.51100000000E-03 0.  1.
         11   -1    0    0    0    0 -0.00000000000E+00 -0.00000000000E+00 -0.45593999997E+02  0.45594000000E+02  0.51100000000E-03 0. -1.
    9900012    2    1    2    0    0 -0.21551813656E+02 -0.10864158786E+02 -0.36070946274E+02  0.47787265178E+02  0.19999973252E+02 0.  0.
        -12    1    1    2    0    0  0.21551813656E+02  0.10864158786E+02  0.36070946274E+02  0.43400734822E+02  0.00000000000E+00 0.  1.
         11    1    3    3    0    0  0.17706891080E+01 -0.27811945668E+01 -0.32518055128E+01  0.46308338871E+01  0.51100000000E-03 0. -1.
        -11    1    3    3    0    0 -0.21428832630E+02 -0.94661988362E+01 -0.33346476874E+02  0.40752807369E+02  0.51100000000E-03 0.  1.
        -12    1    3    3    0    0 -0.18936701334E+01  0.13832346169E+01  0.52733611283E+00  0.24036239214E+01  0.00000000000E+00 0.  1.
</event>
<event>
 7    1  0.2642243E-009  0.4778728E+02  0.7816164E-02  0.1312668E+00
        -11   -1    0    0    0    0  0.00000000000E+00  0.00000000000E+00  0.45593999997E+02  0.45594000000E+02  0.51100000000E-03 0.  1.
         11   -1    0    0    0    0 -0.00000000000E+00 -0.00000000000E+00 -0.45593999997E+02  0.45594000000E+02  0.51100000000E-03 0. -1.
    9900012    2    1    2    0    0  0.23501705567E+02  0.92114686418E+00 -0.36475247703E+02  0.47787281445E+02  0.20000047422E+02 0.  0.
        -12    1    1    2    0    0 -0.23501705567E+02 -0.92114686418E+00  0.36475247703E+02  0.43400718555E+02  0.00000000000E+00 0.  1.
         11    1    3    3    0    0  0.10509209916E+02  0.63186646613E+01 -0.25811518383E+02  0.28576275083E+02  0.51100000000E-03 0. -1.
        -11    1    3    3    0    0  0.13378824507E+02 -0.50213601112E+01 -0.77669209584E+01  0.16264441706E+02  0.51100000000E-03 0.  1.
        -12    1    3    3    0    0 -0.38632885661E+00 -0.37615768591E+00 -0.28968083616E+01  0.29465646563E+01  0.00000000000E+00 0.  1.
</event>
<event>
 7    1  0.2642243E-009  0.4778727E+02  0.7816164E-02  0.1312668E+00
        -11   -1    0    0    0    0  0.00000000000E+00  0.00000000000E+00  0.45593999997E+02  0.45594000000E+02  0.51100000000E-03 0.  1.
         11   -1    0    0    0    0 -0.00000000000E+00 -0.00000000000E+00 -0.45593999997E+02  0.45594000000E+02  0.51100000000E-03 0. -1.
    9900012    2    1    2    0    0  0.27698361021E+02 -0.16895453941E+01 -0.33370186118E+02  0.47787273180E+02  0.20000009739E+02 0.  0.
        -12    1    1    2    0    0 -0.27698361021E+02  0.16895453941E+01  0.33370186118E+02  0.43400726820E+02  0.00000000000E+00 0.  1.
         11    1    3    3    0    0  0.44194319686E+01 -0.51835887955E+01 -0.11934794478E+02  0.13741917305E+02  0.51100000000E-03 0. -1.
        -11    1    3    3    0    0  0.20816737207E+02  0.71141459236E+01 -0.18782148395E+02  0.28926056052E+02  0.51100000000E-03 0.  1.
        -12    1    3    3    0    0  0.24621918460E+01 -0.36201025222E+01 -0.26532432453E+01  0.51192998228E+01  0.00000000000E+00 0.  1.
</event>
<event>
 7    1  0.2642243E-009  0.4778727E+02  0.7816164E-02  0.1312668E+00
        -11   -1    0    0    0    0  0.00000000000E+00  0.00000000000E+00  0.45593999997E+02  0.45594000000E+02  0.51100000000E-03 0.  1.
         11   -1    0    0    0    0 -0.00000000000E+00 -0.00000000000E+00 -0.45593999997E+02  0.45594000000E+02  0.51100000000E-03 0. -1.
    9900012    2    1    2    0    0  0.14834895013E+02  0.36768788703E+02  0.17652351520E+02  0.47787269051E+02  0.19999990910E+02 0.  0.
        -12    1    1    2    0    0 -0.14834895013E+02 -0.36768788703E+02 -0.17652351520E+02  0.43400730949E+02  0.00000000000E+00 0.  1.
         11    1    3    3    0    0 -0.32994501006E+00  0.80028531135E+01 -0.31532659372E+01  0.86079967471E+01  0.51100000000E-03 0. -1.
        -11    1    3    3    0    0  0.11328587594E+02  0.15235081095E+02  0.13771204098E+02  0.23454011499E+02  0.51100000000E-03 0.  1.
         12    1    3    3    0    0  0.38362524295E+01  0.13530854494E+02  0.70344133595E+01  0.15725260804E+02  0.00000000000E+00 0. -1.
</event>
<event>
 7    1  0.2642243E-009  0.4778727E+02  0.7816164E-02  0.1312668E+00
        -11   -1    0    0    0    0  0.00000000000E+00  0.00000000000E+00  0.45593999997E+02  0.45594000000E+02  0.51100000000E-03 0. -1.
         11   -1    0    0    0    0 -0.00000000000E+00 -0.00000000000E+00 -0.45593999997E+02  0.45594000000E+02  0.51100000000E-03 0.  1.
    9900012    2    1    2    0    0 -0.27869654128E+02 -0.79492933848E+00  0.33260696072E+02  0.47787269165E+02  0.19999991429E+02 0.  0.
        -12    1    1    2    0    0  0.27869654128E+02  0.79492933848E+00 -0.33260696072E+02  0.43400730835E+02  0.00000000000E+00 0.  1.
         11    1    3    3    0    0 -0.71152592347E+00  0.46499343110E+01  0.56188573639E+01  0.73280090457E+01  0.51100000000E-03 0. -1.
        -11    1    3    3    0    0 -0.20111844200E+01  0.20195879784E+01  0.52352468718E+01  0.59608227992E+01  0.51100000000E-03 0.  1.
         12    1    3    3    0    0 -0.25146943784E+02 -0.74644516279E+01  0.22406591836E+02  0.34498437320E+02  0.00000000000E+00 0. -1.
</event>
<event>
 7    1  0.2642243E-009  0.4778727E+02  0.7816164E-02  0.1312668E+00
        -11   -1    0    0    0    0  0.00000000000E+00  0.00000000000E+00  0.45593999997E+02  0.45594000000E+02  0.51100000000E-03 0. -1.
         11   -1    0    0    0    0 -0.00000000000E+00 -0.00000000000E+00 -0.45593999997E+02  0.45594000000E+02  0.51100000000E-03 0.  1.
    9900012    2    1    2    0    0 -0.35224034249E+02  0.21696964571E+02  0.13119923142E+02  0.47787271393E+02  0.20000001588E+02 0.  0.
        -12    1    1    2    0    0  0.35224034249E+02 -0.21696964571E+02 -0.13119923142E+02  0.43400728607E+02  0.00000000000E+00 0.  1.
         11    1    3    3    0    0 -0.32245294799E+02  0.15658637236E+02  0.67568333343E+01  0.36477482831E+02  0.51100000000E-03 0. -1.
        -11    1    3    3    0    0  0.20545223342E+01  0.22732497033E+01  0.21226880972E+01  0.37275368884E+01  0.51100000000E-03 0.  1.
         12    1    3    3    0    0 -0.50332617847E+01  0.37650776317E+01  0.42404017104E+01  0.75822516730E+01  0.00000000000E+00 0. -1.
</event>
<event>
 7    1  0.2642243E-009  0.4778727E+02  0.7816164E-02  0.1312668E+00
        -11   -1    0    0    0    0  0.00000000000E+00  0.00000000000E+00  0.45593999997E+02  0.45594000000E+02  0.51100000000E-03 0. -1.
         11   -1    0    0    0    0 -0.00000000000E+00 -0.00000000000E+00 -0.45593999997E+02  0.45594000000E+02  0.51100000000E-03 0.  1.
    9900012    2    1    2    0    0  0.81275052675E+01 -0.28884410167E+02  0.31356939253E+02  0.47787272680E+02  0.20000007459E+02 0.  0.
        -12    1    1    2    0    0 -0.81275052675E+01  0.28884410167E+02 -0.31356939253E+02  0.43400727320E+02  0.00000000000E+00 0.  1.
         11    1    3    3    0    0  0.65296365978E+01 -0.17156737621E+02  0.98904607926E+01  0.20852122550E+02  0.51100000000E-03 0. -1.
        -11    1    3    3    0    0 -0.17707085418E+01 -0.11735953284E+02  0.20010014075E+02  0.23265181533E+02  0.51100000000E-03 0.  1.
        -12    1    3    3    0    0  0.33685772115E+01  0.82807377974E-02  0.14564643852E+01  0.36699685973E+01  0.00000000000E+00 0.  1.
</event>
<event>
 7    1  0.2642243E-009  0.4778728E+02  0.7816164E-02  0.1312668E+00
        -11   -1    0    0    0    0  0.00000000000E+00  0.00000000000E+00  0.45593999997E+02  0.45594000000E+02  0.51100000000E-03 0.  1.
         11   -1    0    0    0    0 -0.00000000000E+00 -0.00000000000E+00 -0.45593999997E+02  0.45594000000E+02  0.51100000000E-03 0. -1.
    9900012    2    1    2    0    0 -0.79814662215E+01  0.42489570544E+02  0.38151579795E+01  0.47787276060E+02  0.20000022870E+02 0.  0.
        -12    1    1    2    0    0  0.79814662215E+01 -0.42489570544E+02 -0.38151579795E+01  0.43400723940E+02  0.00000000000E+00 0.  1.
         11    1    3    3    0    0 -0.69034731780E+01  0.14384519442E+02  0.32698906883E+01  0.16286943448E+02  0.51100000000E-03 0.  1.
        -11    1    3    3    0    0 -0.28098108494E+01  0.24723713968E+02 -0.43952308729E+01  0.25268065301E+02  0.51100000000E-03 0. -1.
        -12    1    3    3    0    0  0.17318178059E+01  0.33813371337E+01  0.49404981641E+01  0.62322673109E+01  0.00000000000E+00 0.  1.
</event>
<event>
 7    1  0.2642243E-009  0.4778729E+02  0.7816164E-02  0.1312668E+00
        -11   -1    0    0    0    0  0.00000000000E+00  0.00000000000E+00  0.45593999997E+02  0.45594000000E+02  0.51100000000E-03 0. -1.
         11   -1    0    0    0    0 -0.00000000000E+00 -0.00000000000E+00 -0.45593999997E+02  0.45594000000E+02  0.51100000000E-03 0.  1.
    9900012    2    1    2    0    0  0.13448234892E+02 -0.27927386757E+02  0.30378075346E+02  0.47787292466E+02  0.20000097668E+02 0.  0.
        -12    1    1    2    0    0 -0.13448234892E+02  0.27927386757E+02 -0.30378075346E+02  0.43400707534E+02  0.00000000000E+00 0.  1.
         11    1    3    3    0    0 -0.20384489950E+01 -0.93559045004E+01  0.15868160118E+02  0.18533394970E+02  0.51100000000E-03 0. -1.
        -11    1    3    3    0    0 -0.11021505109E+00 -0.38241396511E+01  0.12558588282E+01  0.40265833018E+01  0.51100000000E-03 0.  1.
         12    1    3    3    0    0  0.15596898938E+02 -0.14747342605E+02  0.13254056400E+02  0.25227314194E+02  0.00000000000E+00 0. -1.
</event>
<event>
 7    1  0.2642243E-009  0.4778727E+02  0.7816164E-02  0.1312668E+00
        -11   -1    0    0    0    0  0.00000000000E+00  0.00000000000E+00  0.45593999997E+02  0.45594000000E+02  0.51100000000E-03 0. -1.
         11   -1    0    0    0    0 -0.00000000000E+00 -0.00000000000E+00 -0.45593999997E+02  0.45594000000E+02  0.51100000000E-03 0.  1.
    9900012    2    1    2    0    0 -0.29605697366E+01  0.43214025220E+01  0.43083447502E+02  0.47787274873E+02  0.20000017456E+02 0.  0.
        -12    1    1    2    0    0  0.29605697366E+01 -0.43214025220E+01 -0.43083447502E+02  0.43400725127E+02  0.00000000000E+00 0.  1.
         11    1    3    3    0    0 -0.64786431759E+01  0.56349483793E-02  0.17668091920E+02  0.18818456938E+02  0.51100000000E-03 0. -1.
        -11    1    3    3    0    0  0.38536172852E+01  0.32559715043E+00  0.69876300135E+00  0.39299681524E+01  0.51100000000E-03 0.  1.
        -12    1    3    3    0    0 -0.33554384596E+00  0.39901704232E+01  0.24716592580E+02  0.25038849783E+02  0.00000000000E+00 0.  1.
</event>
<event>
 7    1  0.2642243E-009  0.4778726E+02  0.7816164E-02  0.1312668E+00
        -11   -1    0    0    0    0  0.00000000000E+00  0.00000000000E+00  0.45593999997E+02  0.45594000000E+02  0.51100000000E-03 0. -1.
         11   -1    0    0    0    0 -0.00000000000E+00 -0.00000000000E+00 -0.45593999997E+02  0.45594000000E+02  0.51100000000E-03 0.  1.
    9900012    2    1    2    0    0 -0.42102921628E+02 -0.12445399648E+01 -0.10460375738E+02  0.47787258648E+02  0.19999943478E+02 0.  0.
        -12    1    1    2    0    0  0.42102921628E+02  0.12445399648E+01  0.10460375738E+02  0.43400741352E+02  0.00000000000E+00 0.  1.
         11    1    3    3    0    0  0.14193936428E+01  0.10852553981E+01  0.18541748148E+00  0.17963400279E+01  0.51100000000E-03 0. -1.
        -11    1    3    3    0    0 -0.26069537672E+01  0.33791704321E+00 -0.34894823730E+01  0.43688537816E+01  0.51100000000E-03 0.  1.
         12    1    3    3    0    0 -0.40915361504E+02 -0.26677124061E+01 -0.71563108467E+01  0.41622064838E+02  0.00000000000E+00 0. -1.
</event>
<event>
 7    1  0.2642243E-009  0.4778727E+02  0.7816164E-02  0.1312668E+00
        -11   -1    0    0    0    0  0.00000000000E+00  0.00000000000E+00  0.45593999997E+02  0.45594000000E+02  0.51100000000E-03 0. -1.
         11   -1    0    0    0    0 -0.00000000000E+00 -0.00000000000E+00 -0.45593999997E+02  0.45594000000E+02  0.51100000000E-03 0.  1.
    9900012    2    1    2    0    0 -0.17480939019E+02  0.89878925604E+01  0.38694417171E+02  0.47787270031E+02  0.19999995379E+02 0.  0.
        -12    1    1    2    0    0  0.17480939019E+02 -0.89878925604E+01 -0.38694417171E+02  0.43400729969E+02  0.00000000000E+00 0.  1.
         11    1    3    3    0    0 -0.15854416032E+01  0.33935256207E+01  0.21436303697E+02  0.21761083559E+02  0.51100000000E-03 0. -1.
        -11    1    3    3    0    0 -0.75176017650E+01 -0.10619416046E+01  0.29175399973E+01  0.81335168387E+01  0.51100000000E-03 0.  1.
        -12    1    3    3    0    0 -0.83778956504E+01  0.66563085443E+01  0.14340573477E+02  0.17892669634E+02  0.00000000000E+00 0.  1.
</event>
<event>
 7    1  0.2642243E-009  0.4778727E+02  0.7816164E-02  0.1312668E+00
        -11   -1    0    0    0    0  0.00000000000E+00  0.00000000000E+00  0.45593999997E+02  0.45594000000E+02  0.51100000000E-03 0. -1.
         11   -1    0    0    0    0 -0.00000000000E+00 -0.00000000000E+00 -0.45593999997E+02  0.45594000000E+02  0.51100000000E-03 0.  1.
    9900012    2    1    2    0    0  0.17300546863E+02 -0.36289698252E+02  0.16351526103E+02  0.47787268130E+02  0.19999986712E+02 0.  0.
        -12    1    1    2    0    0 -0.17300546863E+02  0.36289698252E+02 -0.16351526103E+02  0.43400731870E+02  0.00000000000E+00 0.  1.
         11    1    3    3    0    0  0.61067893569E+01 -0.94274877494E+01  0.50116860873E+01  0.12299894277E+02  0.51100000000E-03 0. -1.
        -11    1    3    3    0    0  0.74507202236E+01 -0.38477507309E+01  0.85975038528E+01  0.12009808087E+02  0.51100000000E-03 0.  1.
        -12    1    3    3    0    0  0.37430372821E+01 -0.23014459771E+02  0.27423361631E+01  0.23477565766E+02  0.00000000000E+00 0.  1.
</event>
<event>
 7    1  0.2642243E-009  0.4778727E+02  0.7816164E-02  0.1312668E+00
        -11   -1    0    0    0    0  0.00000000000E+00  0.00000000000E+00  0.45593999997E+02  0.45594000000E+02  0.51100000000E-03 0.  1.
         11   -1    0    0    0    0 -0.00000000000E+00 -0.00000000000E+00 -0.45593999997E+02  0.45594000000E+02  0.51100000000E-03 0. -1.
    9900012    2    1    2    0    0  0.84175006353E+01  0.26176590925E+02 -0.33579084939E+02  0.47787272186E+02  0.20000005207E+02 0.  0.
        -12    1    1    2    0    0 -0.84175006353E+01 -0.26176590925E+02  0.33579084939E+02  0.43400727814E+02  0.00000000000E+00 0.  1.
         11    1    3    3    0    0  0.12343115680E+02  0.15737497186E+02 -0.22947817556E+02  0.30440493642E+02  0.51100000000E-03 0. -1.
        -11    1    3    3    0    0 -0.63482106886E+01  0.84302811737E+01 -0.84178485103E+01  0.13499244180E+02  0.51100000000E-03 0.  1.
        -12    1    3    3    0    0  0.24225956442E+01  0.20088125658E+01 -0.22134188730E+01  0.38475343646E+01  0.00000000000E+00 0.  1.
</event>
<event>
 7    1  0.2642243E-009  0.4778727E+02  0.7816164E-02  0.1312668E+00
        -11   -1    0    0    0    0  0.00000000000E+00  0.00000000000E+00  0.45593999997E+02  0.45594000000E+02  0.51100000000E-03 0. -1.
         11   -1    0    0    0    0 -0.00000000000E+00 -0.00000000000E+00 -0.45593999997E+02  0.45594000000E+02  0.51100000000E-03 0.  1.
    9900012    2    1    2    0    0  0.19785703573E+02  0.35370837244E+02 -0.15525880422E+02  0.47787272401E+02  0.20000006184E+02 0.  0.
        -12    1    1    2    0    0 -0.19785703573E+02 -0.35370837244E+02  0.15525880422E+02  0.43400727599E+02  0.00000000000E+00 0.  1.
         11    1    3    3    0    0  0.15731173004E+02  0.22229623057E+02 -0.53153982193E+01  0.27746700774E+02  0.51100000000E-03 0. -1.
        -11    1    3    3    0    0  0.12302009601E+01  0.12828411772E+02 -0.11156642340E+02  0.17045592145E+02  0.51100000000E-03 0.  1.
         12    1    3    3    0    0  0.28243296097E+01  0.31280241493E+00  0.94616013710E+00  0.29949794824E+01  0.00000000000E+00 0. -1.
</event>
<event>
 7    1  0.2642243E-009  0.4778727E+02  0.7816164E-02  0.1312668E+00
        -11   -1    0    0    0    0  0.00000000000E+00  0.00000000000E+00  0.45593999997E+02  0.45594000000E+02  0.51100000000E-03 0.  1.
         11   -1    0    0    0    0 -0.00000000000E+00 -0.00000000000E+00 -0.45593999997E+02  0.45594000000E+02  0.51100000000E-03 0. -1.
    9900012    2    1    2    0    0 -0.35804708232E+02  0.66274158064E+01 -0.23616170841E+02  0.47787270777E+02  0.19999998783E+02 0.  0.
        -12    1    1    2    0    0  0.35804708232E+02 -0.66274158064E+01  0.23616170841E+02  0.43400729223E+02  0.00000000000E+00 0.  1.
         11    1    3    3    0    0 -0.97086538772E+01  0.64357408641E+01 -0.74732824597E+01  0.13839316152E+02  0.51100000000E-03 0. -1.
        -11    1    3    3    0    0 -0.60355550055E+01 -0.53447063970E+01 -0.86634118091E+01  0.11834209527E+02  0.51100000000E-03 0.  1.
        -12    1    3    3    0    0 -0.20060499349E+02  0.55363813392E+01 -0.74794765726E+01  0.22113745098E+02  0.00000000000E+00 0.  1.
</event>
<event>
 7    1  0.2642243E-009  0.4778727E+02  0.7816164E-02  0.1312668E+00
        -11   -1    0    0    0    0  0.00000000000E+00  0.00000000000E+00  0.45593999997E+02  0.45594000000E+02  0.51100000000E-03 0.  1.
         11   -1    0    0    0    0 -0.00000000000E+00 -0.00000000000E+00 -0.45593999997E+02  0.45594000000E+02  0.51100000000E-03 0. -1.
    9900012    2    1    2    0    0  0.19080189489E+01  0.14558740213E+02 -0.40841472138E+02  0.47787270752E+02  0.19999998665E+02 0.  0.
        -12    1    1    2    0    0 -0.19080189489E+01 -0.14558740213E+02  0.40841472138E+02  0.43400729248E+02  0.00000000000E+00 0.  1.
         11    1    3    3    0    0  0.44475380890E+01  0.70754429840E-01 -0.23054236108E+02  0.23479425121E+02  0.51100000000E-03 0. -1.
        -11    1    3    3    0    0 -0.28185853036E+01  0.14831898630E+02 -0.14306917514E+02  0.20799459828E+02  0.51100000000E-03 0.  1.
        -12    1    3    3    0    0  0.27906616351E+00 -0.34391284779E+00 -0.34803185160E+01  0.35083858031E+01  0.00000000000E+00 0.  1.
</event>
<event>
 7    1  0.2642243E-009  0.4778728E+02  0.7816164E-02  0.1312668E+00
        -11   -1    0    0    0    0  0.00000000000E+00  0.00000000000E+00  0.45593999997E+02  0.45594000000E+02  0.51100000000E-03 0.  1.
         11   -1    0    0    0    0 -0.00000000000E+00 -0.00000000000E+00 -0.45593999997E+02  0.45594000000E+02  0.51100000000E-03 0. -1.
    9900012    2    1    2    0    0 -0.16168580245E+02 -0.23706689173E+02 -0.32560593021E+02  0.47787282073E+02  0.20000050285E+02 0.  0.
        -12    1    1    2    0    0  0.16168580245E+02  0.23706689173E+02  0.32560593021E+02  0.43400717927E+02  0.00000000000E+00 0.  1.
         11    1    3    3    0    0 -0.99347567826E+01 -0.64238728954E+01 -0.24253187526E+02  0.26984859472E+02  0.51100000000E-03 0. -1.
        -11    1    3    3    0    0 -0.32393647027E+01 -0.62644685014E+01 -0.71069692771E+00  0.70881689925E+01  0.51100000000E-03 0.  1.
        -12    1    3    3    0    0 -0.29944587596E+01 -0.11018347776E+02 -0.75967085671E+01  0.13714253608E+02  0.00000000000E+00 0.  1.
</event>
<event>
 7    1  0.2642243E-009  0.4778727E+02  0.7816164E-02  0.1312668E+00
        -11   -1    0    0    0    0  0.00000000000E+00  0.00000000000E+00  0.45593999997E+02  0.45594000000E+02  0.51100000000E-03 0.  1.
         11   -1    0    0    0    0 -0.00000000000E+00 -0.00000000000E+00 -0.45593999997E+02  0.45594000000E+02  0.51100000000E-03 0. -1.
    9900012    2    1    2    0    0  0.22275152122E+02 -0.34213343007E+02  0.14727115318E+02  0.47787272271E+02  0.20000005592E+02 0.  0.
        -12    1    1    2    0    0 -0.22275152122E+02  0.34213343007E+02 -0.14727115318E+02  0.43400727729E+02  0.00000000000E+00 0.  1.
         11    1    3    3    0    0  0.15303477029E+02 -0.22273650866E+02  0.16349008646E+02  0.31584838390E+02  0.51100000000E-03 0. -1.
        -11    1    3    3    0    0  0.48850532813E+01 -0.10048717474E+01 -0.60700601046E+00  0.50241386673E+01  0.51100000000E-03 0.  1.
         12    1    3    3    0    0  0.20866218116E+01 -0.10934820394E+02 -0.10148873175E+01  0.11178295214E+02  0.00000000000E+00 0. -1.
</event>
<event>
 7    1  0.2642243E-009  0.4778727E+02  0.7816164E-02  0.1312668E+00
        -11   -1    0    0    0    0  0.00000000000E+00  0.00000000000E+00  0.45593999997E+02  0.45594000000E+02  0.51100000000E-03 0. -1.
         11   -1    0    0    0    0 -0.00000000000E+00 -0.00000000000E+00 -0.45593999997E+02  0.45594000000E+02  0.51100000000E-03 0.  1.
    9900012    2    1    2    0    0 -0.39449553048E+02 -0.17915922292E+02  0.25250293240E+01  0.47787270970E+02  0.19999999660E+02 0.  0.
        -12    1    1    2    0    0  0.39449553048E+02  0.17915922292E+02 -0.25250293240E+01  0.43400729030E+02  0.00000000000E+00 0.  1.
         11    1    3    3    0    0 -0.29297297426E+02 -0.17071850339E+02  0.56471036712E+01  0.34375419861E+02  0.51100000000E-03 0. -1.
        -11    1    3    3    0    0  0.12926487612E+01  0.64304319378E+00 -0.75969588873E+00  0.16314360157E+01  0.51100000000E-03 0.  1.
         12    1    3    3    0    0 -0.11444904383E+02 -0.14871151472E+01 -0.23623784585E+01  0.11780415093E+02  0.00000000000E+00 0. -1.
</event>
<event>
 7    1  0.2642243E-009  0.4778728E+02  0.7816164E-02  0.1312668E+00
        -11   -1    0    0    0    0  0.00000000000E+00  0.00000000000E+00  0.45593999997E+02  0.45594000000E+02  0.51100000000E-03 0.  1.
         11   -1    0    0    0    0 -0.00000000000E+00 -0.00000000000E+00 -0.45593999997E+02  0.45594000000E+02  0.51100000000E-03 0. -1.
    9900012    2    1    2    0    0  0.69668437421E+01 -0.42047774033E+02  0.81896553321E+01  0.47787278033E+02  0.20000031862E+02 0.  0.
        -12    1    1    2    0    0 -0.69668437421E+01  0.42047774033E+02 -0.81896553321E+01  0.43400721967E+02  0.00000000000E+00 0.  1.
         11    1    3    3    0    0 -0.61640125965E+00 -0.34802877271E+02  0.61590091775E+00  0.34813783923E+02  0.51100000000E-03 0. -1.
        -11    1    3    3    0    0  0.48846717829E+01 -0.47706716670E+01  0.43539032669E+01  0.80978886446E+01  0.51100000000E-03 0.  1.
         12    1    3    3    0    0  0.26985732188E+01 -0.24742250945E+01  0.32198511475E+01  0.48756054647E+01  0.00000000000E+00 0. -1.
</event>
<event>
 7    1  0.2642243E-009  0.4778727E+02  0.7816164E-02  0.1312668E+00
        -11   -1    0    0    0    0  0.00000000000E+00  0.00000000000E+00  0.45593999997E+02  0.45594000000E+02  0.51100000000E-03 0.  1.
         11   -1    0    0    0    0 -0.00000000000E+00 -0.00000000000E+00 -0.45593999997E+02  0.45594000000E+02  0.51100000000E-03 0. -1.
    9900012    2    1    2    0    0  0.23935587005E+02 -0.22088487268E+02 -0.28684664366E+02  0.47787267692E+02  0.19999984716E+02 0.  0.
        -12    1    1    2    0    0 -0.23935587005E+02  0.22088487268E+02  0.28684664366E+02  0.43400732308E+02  0.00000000000E+00 0.  1.
         11    1    3    3    0    0  0.12885735385E+01 -0.20071339942E+01 -0.17499886660E+01  0.29582882259E+01  0.51100000000E-03 0. -1.
        -11    1    3    3    0    0  0.45124023564E+01  0.31638689589E+01 -0.10800681888E+01  0.56159050356E+01  0.51100000000E-03 0.  1.
        -12    1    3    3    0    0  0.18134611110E+02 -0.23245222232E+02 -0.25854607511E+02  0.39213074431E+02  0.00000000000E+00 0.  1.
</event>
<event>
 7    1  0.2642243E-009  0.4778727E+02  0.7816164E-02  0.1312668E+00
        -11   -1    0    0    0    0  0.00000000000E+00  0.00000000000E+00  0.45593999997E+02  0.45594000000E+02  0.51100000000E-03 0.  1.
         11   -1    0    0    0    0 -0.00000000000E+00 -0.00000000000E+00 -0.45593999997E+02  0.45594000000E+02  0.51100000000E-03 0. -1.
    9900012    2    1    2    0    0 -0.39499327917E+02 -0.53764715734E+01 -0.17161584003E+02  0.47787270536E+02  0.19999997683E+02 0.  0.
        -12    1    1    2    0    0  0.39499327917E+02  0.53764715734E+01  0.17161584003E+02  0.43400729464E+02  0.00000000000E+00 0.  1.
         11    1    3    3    0    0 -0.87903663302E+01 -0.89034337455E+01 -0.69018290898E+01  0.14289048874E+02  0.51100000000E-03 0.  1.
        -11    1    3    3    0    0 -0.97834275724E+01  0.38898621265E+01 -0.88404751625E+00  0.10565416352E+02  0.51100000000E-03 0. -1.
         12    1    3    3    0    0 -0.20925534015E+02 -0.36289995436E+00 -0.93757073966E+01  0.22932805310E+02  0.00000000000E+00 0. -1.
</event>
<event>
 7    1  0.2642243E-009  0.4778726E+02  0.7816164E-02  0.1312668E+00
        -11   -1    0    0    0    0  0.00000000000E+00  0.00000000000E+00  0.45593999997E+02  0.45594000000E+02  0.51100000000E-03 0.  1.
         11   -1    0    0    0    0 -0.00000000000E+00 -0.00000000000E+00 -0.45593999997E+02  0.45594000000E+02  0.51100000000E-03 0. -1.
    9900012    2    1    2    0    0  0.10412705559E+01 -0.30245624622E+02 -0.31108557107E+02  0.47787258319E+02  0.19999941979E+02 0.  0.
        -12    1    1    2    0    0 -0.10412705559E+01  0.30245624622E+02  0.31108557107E+02  0.43400741681E+02  0.00000000000E+00 0.  1.
         11    1    3    3    0    0  0.51722010397E+01 -0.72201233176E+00 -0.53802131421E+01  0.74979770017E+01  0.51100000000E-03 0. -1.
        -11    1    3    3    0    0 -0.76359525825E+00 -0.40506903713E+01 -0.28967702447E+00  0.41322007747E+01  0.51100000000E-03 0.  1.
         12    1    3    3    0    0 -0.33673352256E+01 -0.25472921919E+02 -0.25438666941E+02  0.36157080542E+02  0.00000000000E+00 0. -1.
</event>
<event>
 7    1  0.2642243E-009  0.4778728E+02  0.7816164E-02  0.1312668E+00
        -11   -1    0    0    0    0  0.00000000000E+00  0.00000000000E+00  0.45593999997E+02  0.45594000000E+02  0.51100000000E-03 0.  1.
         11   -1    0    0    0    0 -0.00000000000E+00 -0.00000000000E+00 -0.45593999997E+02  0.45594000000E+02  0.51100000000E-03 0. -1.
    9900012    2    1    2    0    0 -0.24754414120E+02 -0.33855732146E+02 -0.11163811038E+02  0.47787282328E+02  0.20000051446E+02 0.  0.
        -12    1    1    2    0    0  0.24754414120E+02  0.33855732146E+02  0.11163811038E+02  0.43400717672E+02  0.00000000000E+00 0.  1.
         11    1    3    3    0    0 -0.86712805172E+01 -0.63686190559E+01  0.39276571701E+01  0.11453248692E+02  0.51100000000E-03 0. -1.
        -11    1    3    3    0    0 -0.25892669204E+01 -0.36995639069E+01 -0.60097799955E+01  0.75172157174E+01  0.51100000000E-03 0.  1.
         12    1    3    3    0    0 -0.13493866682E+02 -0.23787549183E+02 -0.90816882128E+01  0.28816817919E+02  0.00000000000E+00 0. -1.
</event>
<event>
 7    1  0.2642243E-009  0.4778725E+02  0.7816164E-02  0.1312668E+00
        -11   -1    0    0    0    0  0.00000000000E+00  0.00000000000E+00  0.45593999997E+02  0.45594000000E+02  0.51100000000E-03 0.  1.
         11   -1    0    0    0    0 -0.00000000000E+00 -0.00000000000E+00 -0.45593999997E+02  0.45594000000E+02  0.51100000000E-03 0. -1.
    9900012    2    1    2    0    0 -0.25399436030E+02  0.14547120964E+02 -0.32044888622E+02  0.47787251553E+02  0.19999911130E+02 0.  0.
        -12    1    1    2    0    0  0.25399436030E+02 -0.14547120964E+02  0.32044888622E+02  0.43400748447E+02  0.00000000000E+00 0.  1.
         11    1    3    3    0    0 -0.12979159996E+02  0.15497496730E+02 -0.22062804883E+02  0.29923207694E+02  0.51100000000E-03 0. -1.
        -11    1    3    3    0    0 -0.27922233061E+00 -0.15751633160E+01  0.63726943571E+00  0.17219805971E+01  0.51100000000E-03 0.  1.
         12    1    3    3    0    0 -0.12141053704E+02  0.62478755030E+00 -0.10619353174E+02  0.16142063262E+02  0.00000000000E+00 0. -1.
</event>
<event>
 7    1  0.2642243E-009  0.4778729E+02  0.7816164E-02  0.1312668E+00
        -11   -1    0    0    0    0  0.00000000000E+00  0.00000000000E+00  0.45593999997E+02  0.45594000000E+02  0.51100000000E-03 0.  1.
         11   -1    0    0    0    0 -0.00000000000E+00 -0.00000000000E+00 -0.45593999997E+02  0.45594000000E+02  0.51100000000E-03 0. -1.
    9900012    2    1    2    0    0  0.88985842837E+01 -0.40393624091E+02 -0.13145042244E+02  0.47787287966E+02  0.20000077151E+02 0.  0.
        -12    1    1    2    0    0 -0.88985842837E+01  0.40393624091E+02  0.13145042244E+02  0.43400712034E+02  0.00000000000E+00 0.  1.
         11    1    3    3    0    0  0.36393215330E+01 -0.19758624818E+02 -0.59712140094E+01  0.20959563758E+02  0.51100000000E-03 0. -1.
        -11    1    3    3    0    0 -0.45741192663E+01 -0.24980137426E+01 -0.17128912798E+01  0.54860401492E+01  0.51100000000E-03 0.  1.
        -12    1    3    3    0    0  0.98333820170E+01 -0.18136985530E+02 -0.54609369550E+01  0.21341684058E+02  0.00000000000E+00 0.  1.
</event>
<event>
 7    1  0.2642243E-009  0.4778723E+02  0.7816164E-02  0.1312668E+00
        -11   -1    0    0    0    0  0.00000000000E+00  0.00000000000E+00  0.45593999997E+02  0.45594000000E+02  0.51100000000E-03 0.  1.
         11   -1    0    0    0    0 -0.00000000000E+00 -0.00000000000E+00 -0.45593999997E+02  0.45594000000E+02  0.51100000000E-03 0. -1.
    9900012    2    1    2    0    0  0.31738413601E+02  0.44390776933E+01 -0.29267631045E+02  0.47787233467E+02  0.19999828670E+02 0.  0.
        -12    1    1    2    0    0 -0.31738413601E+02 -0.44390776933E+01  0.29267631045E+02  0.43400766533E+02  0.00000000000E+00 0.  1.
         11    1    3    3    0    0  0.17751845127E+02  0.59660602142E+01 -0.21015351208E+02  0.28149011822E+02  0.51100000000E-03 0. -1.
        -11    1    3    3    0    0 -0.16493706516E+01  0.75610646839E+00 -0.65300176808E-02  0.18144319883E+01  0.51100000000E-03 0.  1.
        -12    1    3    3    0    0  0.15635939125E+02 -0.22830889894E+01 -0.82457498194E+01  0.17823789657E+02  0.00000000000E+00 0.  1.
</event>
<event>
 7    1  0.2642243E-009  0.4778727E+02  0.7816164E-02  0.1312668E+00
        -11   -1    0    0    0    0  0.00000000000E+00  0.00000000000E+00  0.45593999997E+02  0.45594000000E+02  0.51100000000E-03 0.  1.
         11   -1    0    0    0    0 -0.00000000000E+00 -0.00000000000E+00 -0.45593999997E+02  0.45594000000E+02  0.51100000000E-03 0. -1.
    9900012    2    1    2    0    0  0.25937148439E+02 -0.31629409467E+02  0.14507530858E+02  0.47787266550E+02  0.19999979509E+02 0.  0.
        -12    1    1    2    0    0 -0.25937148439E+02  0.31629409467E+02 -0.14507530858E+02  0.43400733450E+02  0.00000000000E+00 0.  1.
         11    1    3    3    0    0  0.24327200771E+02 -0.31301640605E+02  0.15545046837E+02  0.42582318906E+02  0.51100000000E-03 0. -1.
        -11    1    3    3    0    0  0.61516660293E+00 -0.79170010444E+00 -0.28859642389E+01  0.30551610194E+01  0.51100000000E-03 0.  1.
        -12    1    3    3    0    0  0.99478106553E+00  0.46393124283E+00  0.18484482594E+01  0.21497866253E+01  0.00000000000E+00 0.  1.
</event>
<event>
 7    1  0.2642243E-009  0.4778727E+02  0.7816164E-02  0.1312668E+00
        -11   -1    0    0    0    0  0.00000000000E+00  0.00000000000E+00  0.45593999997E+02  0.45594000000E+02  0.51100000000E-03 0.  1.
         11   -1    0    0    0    0 -0.00000000000E+00 -0.00000000000E+00 -0.45593999997E+02  0.45594000000E+02  0.51100000000E-03 0. -1.
    9900012    2    1    2    0    0 -0.36683431101E+01  0.39672956847E+02 -0.17211126398E+02  0.47787272839E+02  0.20000008183E+02 0.  0.
        -12    1    1    2    0    0  0.36683431101E+01 -0.39672956847E+02  0.17211126398E+02  0.43400727161E+02  0.00000000000E+00 0.  1.
         11    1    3    3    0    0  0.51458208815E+01  0.26332227377E+02 -0.49822344510E+01  0.27288978207E+02  0.51100000000E-03 0. -1.
        -11    1    3    3    0    0 -0.63446219653E+01  0.81682235076E+01 -0.56967048210E+01  0.11807901983E+02  0.51100000000E-03 0.  1.
         12    1    3    3    0    0 -0.24695420263E+01  0.51725059628E+01 -0.65321871263E+01  0.86903926498E+01  0.00000000000E+00 0. -1.
</event>
<event>
 7    1  0.2642243E-009  0.4778727E+02  0.7816164E-02  0.1312668E+00
        -11   -1    0    0    0    0  0.00000000000E+00  0.00000000000E+00  0.45593999997E+02  0.45594000000E+02  0.51100000000E-03 0.  1.
         11   -1    0    0    0    0 -0.00000000000E+00 -0.00000000000E+00 -0.45593999997E+02  0.45594000000E+02  0.51100000000E-03 0. -1.
    9900012    2    1    2    0    0 -0.26941672026E+02  0.13929160518E+02 -0.31044289299E+02  0.47787273020E+02  0.20000009007E+02 0.  0.
        -12    1    1    2    0    0  0.26941672026E+02 -0.13929160518E+02  0.31044289299E+02  0.43400726980E+02  0.00000000000E+00 0.  1.
         11    1    3    3    0    0 -0.15022528105E+02 -0.46500049050E+00 -0.13301782296E+02  0.20070625018E+02  0.51100000000E-03 0. -1.
        -11    1    3    3    0    0 -0.11593251270E+02  0.12660283195E+02 -0.10194763335E+02  0.19965456301E+02  0.51100000000E-03 0.  1.
         12    1    3    3    0    0 -0.32589265173E+00  0.17338778135E+01 -0.75477436688E+01  0.77511917008E+01  0.00000000000E+00 0. -1.
</event>
<event>
 7    1  0.2642243E-009  0.4778728E+02  0.7816164E-02  0.1312668E+00
        -11   -1    0    0    0    0  0.00000000000E+00  0.00000000000E+00  0.45593999997E+02  0.45594000000E+02  0.51100000000E-03 0. -1.
         11   -1    0    0    0    0 -0.00000000000E+00 -0.00000000000E+00 -0.45593999997E+02  0.45594000000E+02  0.51100000000E-03 0.  1.
    9900012    2    1    2    0    0 -0.37852577337E+01 -0.14139875795E+02  0.40857784344E+02  0.47787276445E+02  0.20000024622E+02 0.  0.
        -12    1    1    2    0    0  0.37852577337E+01  0.14139875795E+02 -0.40857784344E+02  0.43400723555E+02  0.00000000000E+00 0.  1.
         11    1    3    3    0    0 -0.41010564040E+01 -0.66032384307E+01  0.27594243005E+02  0.28668164725E+02  0.51100000000E-03 0. -1.
        -11    1    3    3    0    0 -0.44792884055E+01 -0.48142549283E+01  0.25179930769E+01  0.70414035910E+01  0.51100000000E-03 0.  1.
        -12    1    3    3    0    0  0.47950870759E+01 -0.27223824360E+01  0.10745548262E+02  0.12077708129E+02  0.00000000000E+00 0.  1.
</event>
<event>
 7    1  0.2642243E-009  0.4778727E+02  0.7816164E-02  0.1312668E+00
        -11   -1    0    0    0    0  0.00000000000E+00  0.00000000000E+00  0.45593999997E+02  0.45594000000E+02  0.51100000000E-03 0. -1.
         11   -1    0    0    0    0 -0.00000000000E+00 -0.00000000000E+00 -0.45593999997E+02  0.45594000000E+02  0.51100000000E-03 0.  1.
    9900012    2    1    2    0    0 -0.31991951933E+02 -0.14567928151E+02 -0.25454146773E+02  0.47787272966E+02  0.20000008762E+02 0.  0.
        -12    1    1    2    0    0  0.31991951933E+02  0.14567928151E+02  0.25454146773E+02  0.43400727034E+02  0.00000000000E+00 0.  1.
         11    1    3    3    0    0 -0.11079554698E+02 -0.91924251454E+01 -0.59204028114E+01  0.15566257806E+02  0.51100000000E-03 0. -1.
        -11    1    3    3    0    0 -0.90917398833E+01 -0.47348376087E-01 -0.16600766805E+02  0.18927425465E+02  0.51100000000E-03 0.  1.
        -12    1    3    3    0    0 -0.11820657352E+02 -0.53281546297E+01 -0.29329771573E+01  0.13293589695E+02  0.00000000000E+00 0.  1.
</event>
<event>
 7    1  0.2642243E-009  0.4778726E+02  0.7816164E-02  0.1312668E+00
        -11   -1    0    0    0    0  0.00000000000E+00  0.00000000000E+00  0.45593999997E+02  0.45594000000E+02  0.51100000000E-03 0.  1.
         11   -1    0    0    0    0 -0.00000000000E+00 -0.00000000000E+00 -0.45593999997E+02  0.45594000000E+02  0.51100000000E-03 0. -1.
    9900012    2    1    2    0    0  0.25483700997E+02 -0.13320002917E+02 -0.32508200818E+02  0.47787255599E+02  0.19999929576E+02 0.  0.
        -12    1    1    2    0    0 -0.25483700997E+02  0.13320002917E+02  0.32508200818E+02  0.43400744401E+02  0.00000000000E+00 0.  1.
         11    1    3    3    0    0  0.17760236312E+01  0.47352113814E+00  0.19685233686E+01  0.26932446455E+01  0.51100000000E-03 0. -1.
        -11    1    3    3    0    0  0.28452273563E+01 -0.56085484901E+01 -0.48283879618E+01  0.79287114619E+01  0.51100000000E-03 0.  1.
         12    1    3    3    0    0  0.20862450009E+02 -0.81849755646E+01 -0.29648336225E+02  0.37165299491E+02  0.00000000000E+00 0. -1.
</event>
<event>
 7    1  0.2642243E-009  0.4778728E+02  0.7816164E-02  0.1312668E+00
        -11   -1    0    0    0    0  0.00000000000E+00  0.00000000000E+00  0.45593999997E+02  0.45594000000E+02  0.51100000000E-03 0. -1.
         11   -1    0    0    0    0 -0.00000000000E+00 -0.00000000000E+00 -0.45593999997E+02  0.45594000000E+02  0.51100000000E-03 0.  1.
    9900012    2    1    2    0    0  0.38345972218E+02 -0.10117940068E+02  0.17630558521E+02  0.47787275464E+02  0.20000020149E+02 0.  0.
        -12    1    1    2    0    0 -0.38345972218E+02  0.10117940068E+02 -0.17630558521E+02  0.43400724536E+02  0.00000000000E+00 0.  1.
         11    1    3    3    0    0  0.23551521221E+02 -0.26154468567E+01  0.74301906271E+01  0.24833897139E+02  0.51100000000E-03 0. -1.
        -11    1    3    3    0    0  0.73246118603E+01 -0.22400075571E+01  0.11403520537E+02  0.13737097716E+02  0.51100000000E-03 0.  1.
        -12    1    3    3    0    0  0.74698391366E+01 -0.52624856539E+01 -0.12031526433E+01  0.92162806092E+01  0.00000000000E+00 0.  1.
</event>
<event>
 7    1  0.2642243E-009  0.4778727E+02  0.7816164E-02  0.1312668E+00
        -11   -1    0    0    0    0  0.00000000000E+00  0.00000000000E+00  0.45593999997E+02  0.45594000000E+02  0.51100000000E-03 0.  1.
         11   -1    0    0    0    0 -0.00000000000E+00 -0.00000000000E+00 -0.45593999997E+02  0.45594000000E+02  0.51100000000E-03 0. -1.
    9900012    2    1    2    0    0  0.22829489145E+02 -0.20941027668E+01 -0.36851766116E+02  0.47787268360E+02  0.19999987761E+02 0.  0.
        -12    1    1    2    0    0 -0.22829489145E+02  0.20941027668E+01  0.36851766116E+02  0.43400731640E+02  0.00000000000E+00 0.  1.
         11    1    3    3    0    0  0.40797821476E+01 -0.51809931795E+01 -0.19518276112E+02  0.20602194431E+02  0.51100000000E-03 0. -1.
        -11    1    3    3    0    0  0.12454623075E+02  0.18178381488E+01 -0.55301300063E+01  0.13747891097E+02  0.51100000000E-03 0.  1.
         12    1    3    3    0    0  0.62950839223E+01  0.12690522640E+01 -0.11803359998E+02  0.13437182832E+02  0.00000000000E+00 0. -1.
</event>
<event>
 7    1  0.2642243E-009  0.4778727E+02  0.7816164E-02  0.1312668E+00
        -11   -1    0    0    0    0  0.00000000000E+00  0.00000000000E+00  0.45593999997E+02  0.45594000000E+02  0.51100000000E-03 0.  1.
         11   -1    0    0    0    0 -0.00000000000E+00 -0.00000000000E+00 -0.45593999997E+02  0.45594000000E+02  0.51100000000E-03 0. -1.
    9900012    2    1    2    0    0 -0.20194609464E+02  0.30822132462E+02  0.22930268866E+02  0.47787270384E+02  0.19999996990E+02 0.  0.
        -12    1    1    2    0    0  0.20194609464E+02 -0.30822132462E+02 -0.22930268866E+02  0.43400729616E+02  0.00000000000E+00 0.  1.
         11    1    3    3    0    0  0.51233327535E+00  0.13105404004E+02  0.17508369627E+01  0.13231762159E+02  0.51100000000E-03 0. -1.
        -11    1    3    3    0    0 -0.20337416900E+02  0.17630701542E+02  0.20983011703E+02  0.34128271908E+02  0.51100000000E-03 0.  1.
         12    1    3    3    0    0 -0.36952583891E+00  0.86026916128E-01  0.19642020026E+00  0.42723631751E+00  0.00000000000E+00 0. -1.
</event>
<event>
 7    1  0.2642243E-009  0.4778727E+02  0.7816164E-02  0.1312668E+00
        -11   -1    0    0    0    0  0.00000000000E+00  0.00000000000E+00  0.45593999997E+02  0.45594000000E+02  0.51100000000E-03 0.  1.
         11   -1    0    0    0    0 -0.00000000000E+00 -0.00000000000E+00 -0.45593999997E+02  0.45594000000E+02  0.51100000000E-03 0. -1.
    9900012    2    1    2    0    0  0.20599340466E+02 -0.21523882685E+02 -0.31559670976E+02  0.47787272062E+02  0.20000004638E+02 0.  0.
        -12    1    1    2    0    0 -0.20599340466E+02  0.21523882685E+02  0.31559670976E+02  0.43400727938E+02  0.00000000000E+00 0.  1.
         11    1    3    3    0    0 -0.47769497624E+00 -0.11108744285E+02 -0.78486435903E+01  0.13610055053E+02  0.51100000000E-03 0. -1.
        -11    1    3    3    0    0  0.14554948723E+02 -0.39159119715E+01 -0.11915566344E+02  0.19213579065E+02  0.51100000000E-03 0.  1.
        -12    1    3    3    0    0  0.65220867189E+01 -0.64992264279E+01 -0.11795461042E+02  0.14963637944E+02  0.00000000000E+00 0.  1.
</event>
<event>
 7    1  0.2642243E-009  0.4778727E+02  0.7816164E-02  0.1312668E+00
        -11   -1    0    0    0    0  0.00000000000E+00  0.00000000000E+00  0.45593999997E+02  0.45594000000E+02  0.51100000000E-03 0. -1.
         11   -1    0    0    0    0 -0.00000000000E+00 -0.00000000000E+00 -0.45593999997E+02  0.45594000000E+02  0.51100000000E-03 0.  1.
    9900012    2    1    2    0    0  0.27884513771E+02 -0.71824484298E+01  0.32472905910E+02  0.47787270837E+02  0.19999999052E+02 0.  0.
        -12    1    1    2    0    0 -0.27884513771E+02  0.71824484298E+01 -0.32472905910E+02  0.43400729163E+02  0.00000000000E+00 0.  1.
         11    1    3    3    0    0  0.45682221687E+01  0.15695142231E+01  0.16590267447E+02  0.17279149369E+02  0.51100000000E-03 0. -1.
        -11    1    3    3    0    0  0.17347193252E+02 -0.27649969360E+01  0.11371628948E+02  0.20925684385E+02  0.51100000000E-03 0.  1.
         12    1    3    3    0    0  0.59690983497E+01 -0.59869657169E+01  0.45110095148E+01  0.95824370829E+01  0.00000000000E+00 0. -1.
</event>
<event>
 7    1  0.2642243E-009  0.4778727E+02  0.7816164E-02  0.1312668E+00
        -11   -1    0    0    0    0  0.00000000000E+00  0.00000000000E+00  0.45593999997E+02  0.45594000000E+02  0.51100000000E-03 0.  1.
         11   -1    0    0    0    0 -0.00000000000E+00 -0.00000000000E+00 -0.45593999997E+02  0.45594000000E+02  0.51100000000E-03 0. -1.
    9900012    2    1    2    0    0  0.23870920842E+02  0.81572724447E+01 -0.35316585632E+02  0.47787272169E+02  0.20000005127E+02 0.  0.
        -12    1    1    2    0    0 -0.23870920842E+02 -0.81572724447E+01  0.35316585632E+02  0.43400727831E+02  0.00000000000E+00 0.  1.
         11    1    3    3    0    0  0.19140600653E+01 -0.15673107784E+01 -0.24941496848E+01  0.35129577170E+01  0.51100000000E-03 0. -1.
        -11    1    3    3    0    0  0.14524074902E+01 -0.35019129634E+01 -0.10650464851E+02  0.11305099899E+02  0.51100000000E-03 0.  1.
        -12    1    3    3    0    0  0.20504453286E+02  0.13226496187E+02 -0.22171971096E+02  0.32969214553E+02  0.00000000000E+00 0.  1.
</event>
<event>
 7    1  0.2642243E-009  0.4778728E+02  0.7816164E-02  0.1312668E+00
        -11   -1    0    0    0    0  0.00000000000E+00  0.00000000000E+00  0.45593999997E+02  0.45594000000E+02  0.51100000000E-03 0.  1.
         11   -1    0    0    0    0 -0.00000000000E+00 -0.00000000000E+00 -0.45593999997E+02  0.45594000000E+02  0.51100000000E-03 0. -1.
    9900012    2    1    2    0    0 -0.23238503913E+02  0.31228592936E+02 -0.19192958227E+02  0.47787277352E+02  0.20000028759E+02 0.  0.
        -12    1    1    2    0    0  0.23238503913E+02 -0.31228592936E+02  0.19192958227E+02  0.43400722648E+02  0.00000000000E+00 0.  1.
         11    1    3    3    0    0 -0.20272975922E+02  0.16862613692E+02 -0.95824312072E+01  0.28056448124E+02  0.51100000000E-03 0. -1.
        -11    1    3    3    0    0  0.19563863802E+01  0.95445347192E+01 -0.30300408845E+01  0.10203270980E+02  0.51100000000E-03 0.  1.
        -12    1    3    3    0    0 -0.49219143714E+01  0.48214445243E+01 -0.65804861355E+01  0.95275582475E+01  0.00000000000E+00 0.  1.
</event>
<event>
 7    1  0.2642243E-009  0.4778727E+02  0.7816164E-02  0.1312668E+00
        -11   -1    0    0    0    0  0.00000000000E+00  0.00000000000E+00  0.45593999997E+02  0.45594000000E+02  0.51100000000E-03 0.  1.
         11   -1    0    0    0    0 -0.00000000000E+00 -0.00000000000E+00 -0.45593999997E+02  0.45594000000E+02  0.51100000000E-03 0. -1.
    9900012    2    1    2    0    0 -0.38350128674E+01 -0.20200217901E+02 -0.38221288133E+02  0.47787274274E+02  0.20000014725E+02 0.  0.
        -12    1    1    2    0    0  0.38350128674E+01  0.20200217901E+02  0.38221288133E+02  0.43400725726E+02  0.00000000000E+00 0.  1.
         11    1    3    3    0    0  0.12924166592E+01 -0.85999264542E+01 -0.19356383008E+02  0.21220241263E+02  0.51100000000E-03 0. -1.
        -11    1    3    3    0    0 -0.25182361256E+00 -0.11788333836E+02 -0.69382555306E+01  0.13680921747E+02  0.51100000000E-03 0.  1.
        -12    1    3    3    0    0 -0.48756059140E+01  0.18804238911E+00 -0.11926649594E+02  0.12886111264E+02  0.00000000000E+00 0.  1.
</event>
<event>
 7    1  0.2642243E-009  0.4778727E+02  0.7816164E-02  0.1312668E+00
        -11   -1    0    0    0    0  0.00000000000E+00  0.00000000000E+00  0.45593999997E+02  0.45594000000E+02  0.51100000000E-03 0.  1.
         11   -1    0    0    0    0 -0.00000000000E+00 -0.00000000000E+00 -0.45593999997E+02  0.45594000000E+02  0.51100000000E-03 0. -1.
    9900012    2    1    2    0    0 -0.26175853785E+02  0.12334202043E+02 -0.32346794532E+02  0.47787274454E+02  0.20000015547E+02 0.  0.
        -12    1    1    2    0    0  0.26175853785E+02 -0.12334202043E+02  0.32346794532E+02  0.43400725546E+02  0.00000000000E+00 0.  1.
         11    1    3    3    0    0 -0.12950259241E+01 -0.32943870565E+01 -0.39132023750E+01  0.52766685807E+01  0.51100000000E-03 0. -1.
        -11    1    3    3    0    0 -0.21316210150E+02  0.74287748365E+01 -0.21756483722E+02  0.31351428914E+02  0.51100000000E-03 0.  1.
        -12    1    3    3    0    0 -0.35646177105E+01  0.81998142628E+01 -0.66771084348E+01  0.11159176960E+02  0.00000000000E+00 0.  1.
</event>
<event>
 7    1  0.2642243E-009  0.4778726E+02  0.7816164E-02  0.1312668E+00
        -11   -1    0    0    0    0  0.00000000000E+00  0.00000000000E+00  0.45593999997E+02  0.45594000000E+02  0.51100000000E-03 0. -1.
         11   -1    0    0    0    0 -0.00000000000E+00 -0.00000000000E+00 -0.45593999997E+02  0.45594000000E+02  0.51100000000E-03 0.  1.
    9900012    2    1    2    0    0  0.36694791303E+02 -0.71336846013E+01  0.22050552800E+02  0.47787262177E+02  0.19999959569E+02 0.  0.
        -12    1    1    2    0    0 -0.36694791303E+02  0.71336846013E+01 -0.22050552800E+02  0.43400737823E+02  0.00000000000E+00 0.  1.
         11    1    3    3    0    0  0.16372839095E+02 -0.68666596297E+01  0.17851837284E+02  0.25177548912E+02  0.51100000000E-03 0. -1.
        -11    1    3    3    0    0  0.14364934634E+02 -0.12068132565E+01 -0.12664780599E+01  0.14471064653E+02  0.51100000000E-03 0.  1.
        -12    1    3    3    0    0  0.59570175744E+01  0.93978828489E+00  0.54651935758E+01  0.81386486116E+01  0.00000000000E+00 0.  1.
</event>
<event>
 7    1  0.2642243E-009  0.4778727E+02  0.7816164E-02  0.1312668E+00
        -11   -1    0    0    0    0  0.00000000000E+00  0.00000000000E+00  0.45593999997E+02  0.45594000000E+02  0.51100000000E-03 0. -1.
         11   -1    0    0    0    0 -0.00000000000E+00 -0.00000000000E+00 -0.45593999997E+02  0.45594000000E+02  0.51100000000E-03 0.  1.
    9900012    2    1    2    0    0  0.35256139397E+02  0.23324099269E+02  0.98292584136E+01  0.47787270825E+02  0.19999999001E+02 0.  0.
        -12    1    1    2    0    0 -0.35256139397E+02 -0.23324099269E+02 -0.98292584136E+01  0.43400729175E+02  0.00000000000E+00 0.  1.
         11    1    3    3    0    0  0.44831019245E+01  0.19917787067E+00  0.34557358895E+01  0.56639196224E+01  0.51100000000E-03 0. -1.
        -11    1    3    3    0    0  0.14480413775E+02  0.89482287064E+01  0.10688337026E+02  0.20099595238E+02  0.51100000000E-03 0.  1.
        -12    1    3    3    0    0  0.16292623698E+02  0.14176692692E+02 -0.43148145015E+01  0.22023755965E+02  0.00000000000E+00 0.  1.
</event>
<event>
 7    1  0.2642243E-009  0.4778728E+02  0.7816164E-02  0.1312668E+00
        -11   -1    0    0    0    0  0.00000000000E+00  0.00000000000E+00  0.45593999997E+02  0.45594000000E+02  0.51100000000E-03 0. -1.
         11   -1    0    0    0    0 -0.00000000000E+00 -0.00000000000E+00 -0.45593999997E+02  0.45594000000E+02  0.51100000000E-03 0.  1.
    9900012    2    1    2    0    0 -0.71228682523E+01  0.40466122666E+02 -0.13977843957E+02  0.47787280450E+02  0.20000042885E+02 0.  0.
        -12    1    1    2    0    0  0.71228682523E+01 -0.40466122666E+02  0.13977843957E+02  0.43400719550E+02  0.00000000000E+00 0.  1.
         11    1    3    3    0    0 -0.71531787144E+01  0.11248450822E+02 -0.88087914335E+01  0.15977810188E+02  0.51100000000E-03 0.  1.
        -11    1    3    3    0    0  0.19697978358E+00  0.16773845198E+02  0.28348939876E+01  0.17012857136E+02  0.51100000000E-03 0. -1.
        -12    1    3    3    0    0 -0.16666932156E+00  0.12443826646E+02 -0.80039465110E+01  0.14796613127E+02  0.00000000000E+00 0.  1.
</event>
<event>
 7    1  0.2642243E-009  0.4778726E+02  0.7816164E-02  0.1312668E+00
        -11   -1    0    0    0    0  0.00000000000E+00  0.00000000000E+00  0.45593999997E+02  0.45594000000E+02  0.51100000000E-03 0. -1.
         11   -1    0    0    0    0 -0.00000000000E+00 -0.00000000000E+00 -0.45593999997E+02  0.45594000000E+02  0.51100000000E-03 0.  1.
    9900012    2    1    2    0    0  0.27395442264E+02  0.33513140603E+02  0.31596801157E+01  0.47787257744E+02  0.19999939358E+02 0.  0.
        -12    1    1    2    0    0 -0.27395442264E+02 -0.33513140603E+02 -0.31596801157E+01  0.43400742256E+02  0.00000000000E+00 0.  1.
         11    1    3    3    0    0  0.77506386287E+01  0.18049314533E+02  0.81367017121E+01  0.21261610223E+02  0.51100000000E-03 0. -1.
        -11    1    3    3    0    0  0.18414266988E+02  0.15293294613E+02 -0.62578950864E+01  0.24741288163E+02  0.51100000000E-03 0.  1.
         12    1    3    3    0    0  0.12305366477E+01  0.17053145752E+00  0.12808734899E+01  0.17843593575E+01  0.00000000000E+00 0. -1.
</event>
<event>
 7    1  0.2642243E-009  0.4778727E+02  0.7816164E-02  0.1312668E+00
        -11   -1    0    0    0    0  0.00000000000E+00  0.00000000000E+00  0.45593999997E+02  0.45594000000E+02  0.51100000000E-03 0.  1.
         11   -1    0    0    0    0 -0.00000000000E+00 -0.00000000000E+00 -0.45593999997E+02  0.45594000000E+02  0.51100000000E-03 0. -1.
    9900012    2    1    2    0    0 -0.36525446651E+02  0.14089713335E+02 -0.18734860240E+02  0.47787271168E+02  0.20000000563E+02 0.  0.
        -12    1    1    2    0    0  0.36525446651E+02 -0.14089713335E+02  0.18734860240E+02  0.43400728832E+02  0.00000000000E+00 0.  1.
         11    1    3    3    0    0 -0.26755239203E+02  0.81297126688E+01 -0.17041141209E+02  0.32746534883E+02  0.51100000000E-03 0. -1.
        -11    1    3    3    0    0 -0.29901353748E+01  0.64853302005E+01  0.18432831456E+01  0.73755074663E+01  0.51100000000E-03 0.  1.
        -12    1    3    3    0    0 -0.67800720732E+01 -0.52532953469E+00 -0.35370021769E+01  0.76652288184E+01  0.00000000000E+00 0.  1.
</event>
<event>
 7    1  0.2642243E-009  0.4778726E+02  0.7816164E-02  0.1312668E+00
        -11   -1    0    0    0    0  0.00000000000E+00  0.00000000000E+00  0.45593999997E+02  0.45594000000E+02  0.51100000000E-03 0.  1.
         11   -1    0    0    0    0 -0.00000000000E+00 -0.00000000000E+00 -0.45593999997E+02  0.45594000000E+02  0.51100000000E-03 0. -1.
    9900012    2    1    2    0    0  0.28663466200E+02  0.27999067999E+02 -0.16675784084E+02  0.47787264082E+02  0.19999968255E+02 0.  0.
        -12    1    1    2    0    0 -0.28663466200E+02 -0.27999067999E+02  0.16675784084E+02  0.43400735918E+02  0.00000000000E+00 0.  1.
         11    1    3    3    0    0  0.19221541770E+02  0.16291908116E+02 -0.20892065461E+01  0.25283566250E+02  0.51100000000E-03 0. -1.
        -11    1    3    3    0    0  0.27258560411E+01  0.46205695163E+01 -0.10748525066E+02  0.12012940737E+02  0.51100000000E-03 0.  1.
         12    1    3    3    0    0  0.67160683892E+01  0.70865903665E+01 -0.38380524726E+01  0.10490757094E+02  0.00000000000E+00 0. -1.
</event>
<event>
 7    1  0.2642243E-009  0.4778729E+02  0.7816164E-02  0.1312668E+00
        -11   -1    0    0    0    0  0.00000000000E+00  0.00000000000E+00  0.45593999997E+02  0.45594000000E+02  0.51100000000E-03 0.  1.
         11   -1    0    0    0    0 -0.00000000000E+00 -0.00000000000E+00 -0.45593999997E+02  0.45594000000E+02  0.51100000000E-03 0. -1.
    9900012    2    1    2    0    0  0.25365832253E+01  0.88391260073E+01 -0.42415295018E+02  0.47787289700E+02  0.20000085059E+02 0.  0.
        -12    1    1    2    0    0 -0.25365832253E+01 -0.88391260073E+01  0.42415295018E+02  0.43400710300E+02  0.00000000000E+00 0.  1.
         11    1    3    3    0    0  0.39940467197E+01  0.69256354642E+01 -0.36679475522E+02  0.37540654771E+02  0.51100000000E-03 0. -1.
        -11    1    3    3    0    0 -0.34592124398E+01  0.12598181627E+01  0.45312079618E+00  0.37092601990E+01  0.51100000000E-03 0.  1.
        -12    1    3    3    0    0  0.20017489454E+01  0.65367238046E+00 -0.61889402922E+01  0.65373747301E+01  0.00000000000E+00 0.  1.
</event>
<event>
 7    1  0.2642243E-009  0.4778726E+02  0.7816164E-02  0.1312668E+00
        -11   -1    0    0    0    0  0.00000000000E+00  0.00000000000E+00  0.45593999997E+02  0.45594000000E+02  0.51100000000E-03 0. -1.
         11   -1    0    0    0    0 -0.00000000000E+00 -0.00000000000E+00 -0.45593999997E+02  0.45594000000E+02  0.51100000000E-03 0.  1.
    9900012    2    1    2    0    0 -0.49512568471E+01  0.28238531219E+02  0.32583661369E+02  0.47787256020E+02  0.19999931498E+02 0.  0.
        -12    1    1    2    0    0  0.49512568471E+01 -0.28238531219E+02 -0.32583661369E+02  0.43400743980E+02  0.00000000000E+00 0.  1.
         11    1    3    3    0    0  0.39677725926E+01  0.18631367848E+02  0.11186247608E+02  0.22090794985E+02  0.51100000000E-03 0. -1.
        -11    1    3    3    0    0  0.65592567864E+00  0.75592421633E+00  0.28784711174E+01  0.30474999839E+01  0.51100000000E-03 0.  1.
         12    1    3    3    0    0 -0.95749551184E+01  0.88512391548E+01  0.18518942643E+02  0.22648961052E+02  0.00000000000E+00 0. -1.
</event>
<event>
 7    1  0.2642243E-009  0.4778727E+02  0.7816164E-02  0.1312668E+00
        -11   -1    0    0    0    0  0.00000000000E+00  0.00000000000E+00  0.45593999997E+02  0.45594000000E+02  0.51100000000E-03 0.  1.
         11   -1    0    0    0    0 -0.00000000000E+00 -0.00000000000E+00 -0.45593999997E+02  0.45594000000E+02  0.51100000000E-03 0. -1.
    9900012    2    1    2    0    0 -0.32428877139E+02  0.27460825780E+02  0.88257677142E+01  0.47787271886E+02  0.20000003839E+02 0.  0.
        -12    1    1    2    0    0  0.32428877139E+02 -0.27460825780E+02 -0.88257677142E+01  0.43400728114E+02  0.00000000000E+00 0.  1.
         11    1    3    3    0    0 -0.28736992366E+01 -0.69648730578E+00 -0.25206452479E+01  0.38854722488E+01  0.51100000000E-03 0.  1.
        -11    1    3    3    0    0 -0.28747573843E+02  0.22234825006E+02  0.87289779388E+01  0.37376536771E+02  0.51100000000E-03 0. -1.
         12    1    3    3    0    0 -0.80760406006E+00  0.59224880796E+01  0.26174350233E+01  0.65252628661E+01  0.00000000000E+00 0. -1.
</event>
<event>
 7    1  0.2642243E-009  0.4778726E+02  0.7816164E-02  0.1312668E+00
        -11   -1    0    0    0    0  0.00000000000E+00  0.00000000000E+00  0.45593999997E+02  0.45594000000E+02  0.51100000000E-03 0. -1.
         11   -1    0    0    0    0 -0.00000000000E+00 -0.00000000000E+00 -0.45593999997E+02  0.45594000000E+02  0.51100000000E-03 0.  1.
    9900012    2    1    2    0    0 -0.90419458527E-01  0.34137635533E+02  0.26799957035E+02  0.47787262304E+02  0.19999960151E+02 0.  0.
        -12    1    1    2    0    0  0.90419458527E-01 -0.34137635533E+02 -0.26799957035E+02  0.43400737696E+02  0.00000000000E+00 0.  1.
         11    1    3    3    0    0  0.32863445764E+01  0.38786046316E+01  0.85432529778E+01  0.99413684303E+01  0.51100000000E-03 0. -1.
        -11    1    3    3    0    0 -0.63427820016E+01  0.97404175232E+01  0.27177932737E+01  0.11937043922E+02  0.51100000000E-03 0.  1.
        -12    1    3    3    0    0  0.29660179667E+01  0.20518613378E+02  0.15538910784E+02  0.25908849953E+02  0.00000000000E+00 0.  1.
</event>
<event>
 7    1  0.2642243E-009  0.4778726E+02  0.7816164E-02  0.1312668E+00
        -11   -1    0    0    0    0  0.00000000000E+00  0.00000000000E+00  0.45593999997E+02  0.45594000000E+02  0.51100000000E-03 0.  1.
         11   -1    0    0    0    0 -0.00000000000E+00 -0.00000000000E+00 -0.45593999997E+02  0.45594000000E+02  0.51100000000E-03 0. -1.
    9900012    2    1    2    0    0 -0.34592525285E+02  0.20592818656E+02 -0.16214725834E+02  0.47787258997E+02  0.19999945069E+02 0.  0.
        -12    1    1    2    0    0  0.34592525285E+02 -0.20592818656E+02  0.16214725834E+02  0.43400741003E+02  0.00000000000E+00 0.  1.
         11    1    3    3    0    0 -0.12692849320E+02  0.96205779196E+01  0.11202553557E+01  0.15966180372E+02  0.51100000000E-03 0. -1.
        -11    1    3    3    0    0 -0.21754322953E+02  0.12495627327E+02 -0.15771323957E+02  0.29633189654E+02  0.51100000000E-03 0.  1.
        -12    1    3    3    0    0 -0.14535301237E+00 -0.15233865914E+01 -0.15636572324E+01  0.21878889701E+01  0.00000000000E+00 0.  1.
</event>
<event>
 7    1  0.2642243E-009  0.4778728E+02  0.7816164E-02  0.1312668E+00
        -11   -1    0    0    0    0  0.00000000000E+00  0.00000000000E+00  0.45593999997E+02  0.45594000000E+02  0.51100000000E-03 0.  1.
         11   -1    0    0    0    0 -0.00000000000E+00 -0.00000000000E+00 -0.45593999997E+02  0.45594000000E+02  0.51100000000E-03 0. -1.
    9900012    2    1    2    0    0 -0.38400873576E+02  0.14615351650E+02 -0.13978099932E+02  0.47787275663E+02  0.20000021058E+02 0.  0.
        -12    1    1    2    0    0  0.38400873576E+02 -0.14615351650E+02  0.13978099932E+02  0.43400724337E+02  0.00000000000E+00 0.  1.
         11    1    3    3    0    0 -0.11870635041E+02 -0.19179001620E+01  0.25298081636E+01  0.12287808874E+02  0.51100000000E-03 0. -1.
        -11    1    3    3    0    0 -0.24470253446E+02  0.15279768712E+02 -0.14171332004E+02  0.32141737455E+02  0.51100000000E-03 0.  1.
         12    1    3    3    0    0 -0.20599850886E+01  0.12534831004E+01 -0.23365760917E+01  0.33577293341E+01  0.00000000000E+00 0. -1.
</event>
<event>
 7    1  0.2642243E-009  0.4778726E+02  0.7816164E-02  0.1312668E+00
        -11   -1    0    0    0    0  0.00000000000E+00  0.00000000000E+00  0.45593999997E+02  0.45594000000E+02  0.51100000000E-03 0. -1.
         11   -1    0    0    0    0 -0.00000000000E+00 -0.00000000000E+00 -0.45593999997E+02  0.45594000000E+02  0.51100000000E-03 0.  1.
    9900012    2    1    2    0    0  0.59561965055E+01  0.29850602977E+02  0.30936860765E+02  0.47787261194E+02  0.19999955089E+02 0.  0.
        -12    1    1    2    0    0 -0.59561965055E+01 -0.29850602977E+02 -0.30936860765E+02  0.43400738806E+02  0.00000000000E+00 0.  1.
         11    1    3    3    0    0  0.40300676527E+00  0.10099423899E+02  0.26902399124E+00  0.10111041080E+02  0.51100000000E-03 0. -1.
        -11    1    3    3    0    0  0.70092990104E+01  0.12177735828E+02  0.21656026563E+02  0.25814937716E+02  0.51100000000E-03 0.  1.
        -12    1    3    3    0    0 -0.14561092701E+01  0.75734432498E+01  0.90118102108E+01  0.11861282399E+02  0.00000000000E+00 0.  1.
</event>
<event>
 7    1  0.2642243E-009  0.4778727E+02  0.7816164E-02  0.1312668E+00
        -11   -1    0    0    0    0  0.00000000000E+00  0.00000000000E+00  0.45593999997E+02  0.45594000000E+02  0.51100000000E-03 0. -1.
         11   -1    0    0    0    0 -0.00000000000E+00 -0.00000000000E+00 -0.45593999997E+02  0.45594000000E+02  0.51100000000E-03 0.  1.
    9900012    2    1    2    0    0 -0.37313734856E+02 -0.21854793491E+02 -0.36982096279E+01  0.47787267727E+02  0.19999984874E+02 0.  0.
        -12    1    1    2    0    0  0.37313734856E+02  0.21854793491E+02  0.36982096279E+01  0.43400732273E+02  0.00000000000E+00 0.  1.
         11    1    3    3    0    0 -0.22298103614E+01 -0.50878800333E+01 -0.25401361435E+01  0.61082623855E+01  0.51100000000E-03 0. -1.
        -11    1    3    3    0    0 -0.31436524860E+02 -0.13452591302E+02  0.41393622296E+01  0.34443600682E+02  0.51100000000E-03 0.  1.
        -12    1    3    3    0    0 -0.36473996345E+01 -0.33143221556E+01 -0.52974357140E+01  0.72354046597E+01  0.00000000000E+00 0.  1.
</event>
<event>
 7    1  0.2642243E-009  0.4778727E+02  0.7816164E-02  0.1312668E+00
        -11   -1    0    0    0    0  0.00000000000E+00  0.00000000000E+00  0.45593999997E+02  0.45594000000E+02  0.51100000000E-03 0.  1.
         11   -1    0    0    0    0 -0.00000000000E+00 -0.00000000000E+00 -0.45593999997E+02  0.45594000000E+02  0.51100000000E-03 0. -1.
    9900012    2    1    2    0    0 -0.32240981514E+02 -0.11211058424E+02 -0.26803999734E+02  0.47787272797E+02  0.20000007992E+02 0.  0.
        -12    1    1    2    0    0  0.32240981514E+02  0.11211058424E+02  0.26803999734E+02  0.43400727203E+02  0.00000000000E+00 0.  1.
         11    1    3    3    0    0 -0.19635996542E+01 -0.49282700441E+01 -0.47722994365E+01  0.71357137976E+01  0.51100000000E-03 0. -1.
        -11    1    3    3    0    0 -0.18652392333E+02  0.34075749418E+01 -0.13524284761E+02  0.23290117760E+02  0.51100000000E-03 0.  1.
        -12    1    3    3    0    0 -0.11624989527E+02 -0.96903633214E+01 -0.85074155366E+01  0.17361441240E+02  0.00000000000E+00 0.  1.
</event>
<event>
 7    1  0.2642243E-009  0.4778727E+02  0.7816164E-02  0.1312668E+00
        -11   -1    0    0    0    0  0.00000000000E+00  0.00000000000E+00  0.45593999997E+02  0.45594000000E+02  0.51100000000E-03 0. -1.
         11   -1    0    0    0    0 -0.00000000000E+00 -0.00000000000E+00 -0.45593999997E+02  0.45594000000E+02  0.51100000000E-03 0.  1.
    9900012    2    1    2    0    0 -0.26178783782E+01  0.33239339607E+02  0.27783384111E+02  0.47787269392E+02  0.19999992465E+02 0.  0.
        -12    1    1    2    0    0  0.26178783782E+01 -0.33239339607E+02 -0.27783384111E+02  0.43400730608E+02  0.00000000000E+00 0.  1.
         11    1    3    3    0    0 -0.93433127265E+01  0.15675320176E+02  0.11016007081E+02  0.21315852495E+02  0.51100000000E-03 0.  1.
        -11    1    3    3    0    0  0.67612709951E+01  0.18098205988E+02  0.14538333155E+02  0.24178977990E+02  0.51100000000E-03 0. -1.
         12    1    3    3    0    0 -0.35836646878E-01 -0.53418655768E+00  0.22290438755E+01  0.22924389070E+01  0.00000000000E+00 0. -1.
</event>
<event>
 7    1  0.2642243E-009  0.4778728E+02  0.7816164E-02  0.1312668E+00
        -11   -1    0    0    0    0  0.00000000000E+00  0.00000000000E+00  0.45593999997E+02  0.45594000000E+02  0.51100000000E-03 0. -1.
         11   -1    0    0    0    0 -0.00000000000E+00 -0.00000000000E+00 -0.45593999997E+02  0.45594000000E+02  0.51100000000E-03 0.  1.
    9900012    2    1    2    0    0  0.19375725066E+02  0.33429690695E+02  0.19765107858E+02  0.47787280761E+02  0.20000044303E+02 0.  0.
        -12    1    1    2    0    0 -0.19375725066E+02 -0.33429690695E+02 -0.19765107858E+02  0.43400719239E+02  0.00000000000E+00 0.  1.
         11    1    3    3    0    0  0.66539509077E+01  0.64276687028E+01  0.96272419998E+01  0.13351920327E+02  0.51100000000E-03 0. -1.
        -11    1    3    3    0    0  0.11287272803E+02  0.27172478524E+02  0.59684784685E+01  0.30022805531E+02  0.51100000000E-03 0.  1.
        -12    1    3    3    0    0  0.14345013558E+01 -0.17045653180E+00  0.41693873900E+01  0.44125549036E+01  0.00000000000E+00 0.  1.
</event>
<event>
 7    1  0.2642243E-009  0.4778727E+02  0.7816164E-02  0.1312668E+00
        -11   -1    0    0    0    0  0.00000000000E+00  0.00000000000E+00  0.45593999997E+02  0.45594000000E+02  0.51100000000E-03 0.  1.
         11   -1    0    0    0    0 -0.00000000000E+00 -0.00000000000E+00 -0.45593999997E+02  0.45594000000E+02  0.51100000000E-03 0. -1.
    9900012    2    1    2    0    0  0.36675481289E+02 -0.23127767932E+02  0.19075047261E+01  0.47787272453E+02  0.20000006423E+02 0.  0.
        -12    1    1    2    0    0 -0.36675481289E+02  0.23127767932E+02 -0.19075047261E+01  0.43400727547E+02  0.00000000000E+00 0.  1.
         11    1    3    3    0    0  0.21124284538E+02 -0.12360520147E+02 -0.35201817337E+01  0.24726696813E+02  0.51100000000E-03 0. -1.
        -11    1    3    3    0    0  0.85789958917E+00 -0.67919347841E+01  0.35852856650E+01  0.77279132615E+01  0.51100000000E-03 0.  1.
        -12    1    3    3    0    0  0.14693297162E+02 -0.39753130002E+01  0.18424007947E+01  0.15332662379E+02  0.00000000000E+00 0.  1.
</event>
<event>
 7    1  0.2642243E-009  0.4778727E+02  0.7816164E-02  0.1312668E+00
        -11   -1    0    0    0    0  0.00000000000E+00  0.00000000000E+00  0.45593999997E+02  0.45594000000E+02  0.51100000000E-03 0. -1.
         11   -1    0    0    0    0 -0.00000000000E+00 -0.00000000000E+00 -0.45593999997E+02  0.45594000000E+02  0.51100000000E-03 0.  1.
    9900012    2    1    2    0    0  0.26829378144E+02  0.19728897528E+02  0.27831252081E+02  0.47787268190E+02  0.19999986986E+02 0.  0.
        -12    1    1    2    0    0 -0.26829378144E+02 -0.19728897528E+02 -0.27831252081E+02  0.43400731810E+02  0.00000000000E+00 0.  1.
         11    1    3    3    0    0  0.24098739151E+01  0.83194060301E+01  0.52739757837E+01  0.10140750949E+02  0.51100000000E-03 0. -1.
        -11    1    3    3    0    0  0.21547695353E+02  0.10781930743E+02  0.12451363216E+02  0.27121756060E+02  0.51100000000E-03 0.  1.
        -12    1    3    3    0    0  0.28718088756E+01  0.62756075464E+00  0.10105913081E+02  0.10524761181E+02  0.00000000000E+00 0.  1.
</event>
<event>
 7    1  0.2642243E-009  0.4778727E+02  0.7816164E-02  0.1312668E+00
        -11   -1    0    0    0    0  0.00000000000E+00  0.00000000000E+00  0.45593999997E+02  0.45594000000E+02  0.51100000000E-03 0. -1.
         11   -1    0    0    0    0 -0.00000000000E+00 -0.00000000000E+00 -0.45593999997E+02  0.45594000000E+02  0.51100000000E-03 0.  1.
    9900012    2    1    2    0    0  0.22917457030E+02 -0.38641832775E+00  0.36854635915E+02  0.47787270234E+02  0.19999996303E+02 0.  0.
        -12    1    1    2    0    0 -0.22917457030E+02  0.38641832775E+00 -0.36854635915E+02  0.43400729766E+02  0.00000000000E+00 0.  1.
         11    1    3    3    0    0  0.58661286211E+01 -0.24512356688E+01  0.21796100369E+02  0.22704405142E+02  0.51100000000E-03 0. -1.
        -11    1    3    3    0    0  0.57929994569E+01  0.37072893062E+01  0.92617499604E+00  0.69397865307E+01  0.51100000000E-03 0.  1.
         12    1    3    3    0    0  0.11258328952E+02 -0.16424719651E+01  0.14132360550E+02  0.18143078561E+02  0.00000000000E+00 0. -1.
</event>
<event>
 7    1  0.2642243E-009  0.4778727E+02  0.7816164E-02  0.1312668E+00
        -11   -1    0    0    0    0  0.00000000000E+00  0.00000000000E+00  0.45593999997E+02  0.45594000000E+02  0.51100000000E-03 0.  1.
         11   -1    0    0    0    0 -0.00000000000E+00 -0.00000000000E+00 -0.45593999997E+02  0.45594000000E+02  0.51100000000E-03 0. -1.
    9900012    2    1    2    0    0  0.22995422219E+02 -0.34103979813E+02  0.13847481834E+02  0.47787266882E+02  0.19999981021E+02 0.  0.
        -12    1    1    2    0    0 -0.22995422219E+02  0.34103979813E+02 -0.13847481834E+02  0.43400733118E+02  0.00000000000E+00 0.  1.
         11    1    3    3    0    0  0.16104589354E+02 -0.24971335779E+02  0.64957123278E+01  0.30415780243E+02  0.51100000000E-03 0. -1.
        -11    1    3    3    0    0 -0.14049763746E+01 -0.12653167213E+01  0.54661912830E+01  0.57839633836E+01  0.51100000000E-03 0.  1.
        -12    1    3    3    0    0  0.82958092389E+01 -0.78673273123E+01  0.18855782228E+01  0.11587523256E+02  0.00000000000E+00 0.  1.
</event>
<event>
 7    1  0.2642243E-009  0.4778727E+02  0.7816164E-02  0.1312668E+00
        -11   -1    0    0    0    0  0.00000000000E+00  0.00000000000E+00  0.45593999997E+02  0.45594000000E+02  0.51100000000E-03 0.  1.
         11   -1    0    0    0    0 -0.00000000000E+00 -0.00000000000E+00 -0.45593999997E+02  0.45594000000E+02  0.51100000000E-03 0. -1.
    9900012    2    1    2    0    0 -0.22779700158E+02 -0.29349137658E+02 -0.22435163068E+02  0.47787272328E+02  0.20000005854E+02 0.  0.
        -12    1    1    2    0    0  0.22779700158E+02  0.29349137658E+02  0.22435163068E+02  0.43400727672E+02  0.00000000000E+00 0.  1.
         11    1    3    3    0    0 -0.40107490667E+01 -0.66765332069E+01  0.24431850146E+01  0.81628032572E+01  0.51100000000E-03 0. -1.
        -11    1    3    3    0    0 -0.98835863609E+01 -0.99118803750E+01 -0.61680028436E+01  0.15296238468E+02  0.51100000000E-03 0.  1.
         12    1    3    3    0    0 -0.88853647304E+01 -0.12760724076E+02 -0.18710345239E+02  0.24328230603E+02  0.00000000000E+00 0. -1.
</event>
<event>
 7    1  0.2642243E-009  0.4778727E+02  0.7816164E-02  0.1312668E+00
        -11   -1    0    0    0    0  0.00000000000E+00  0.00000000000E+00  0.45593999997E+02  0.45594000000E+02  0.51100000000E-03 0.  1.
         11   -1    0    0    0    0 -0.00000000000E+00 -0.00000000000E+00 -0.45593999997E+02  0.45594000000E+02  0.51100000000E-03 0. -1.
    9900012    2    1    2    0    0 -0.82376786590E+01 -0.39200657898E+01 -0.42431089043E+02  0.47787267485E+02  0.19999983771E+02 0.  0.
        -12    1    1    2    0    0  0.82376786590E+01  0.39200657898E+01  0.42431089043E+02  0.43400732515E+02  0.00000000000E+00 0.  1.
         11    1    3    3    0    0 -0.62614649459E+00 -0.47124447467E+00 -0.18300766338E+02  0.18317537488E+02  0.51100000000E-03 0. -1.
        -11    1    3    3    0    0 -0.11000454733E+02 -0.57761144463E+01 -0.15151008372E+02  0.19594043926E+02  0.51100000000E-03 0.  1.
        -12    1    3    3    0    0  0.33889225686E+01  0.23272931312E+01 -0.89793143323E+01  0.98756860710E+01  0.00000000000E+00 0.  1.
</event>
<event>
 7    1  0.2642243E-009  0.4778727E+02  0.7816164E-02  0.1312668E+00
        -11   -1    0    0    0    0  0.00000000000E+00  0.00000000000E+00  0.45593999997E+02  0.45594000000E+02  0.51100000000E-03 0.  1.
         11   -1    0    0    0    0 -0.00000000000E+00 -0.00000000000E+00 -0.45593999997E+02  0.45594000000E+02  0.51100000000E-03 0. -1.
    9900012    2    1    2    0    0 -0.40995446104E+02 -0.13649349659E+02 -0.40855887262E+01  0.47787269792E+02  0.19999994289E+02 0.  0.
        -12    1    1    2    0    0  0.40995446104E+02  0.13649349659E+02  0.40855887262E+01  0.43400730208E+02  0.00000000000E+00 0.  1.
         11    1    3    3    0    0 -0.24944501159E+02 -0.80310973703E+01 -0.63870000812E+01  0.26972586701E+02  0.51100000000E-03 0. -1.
        -11    1    3    3    0    0 -0.12865446728E+02 -0.51809819446E+01  0.66703225607E+01  0.15390110356E+02  0.51100000000E-03 0.  1.
        -12    1    3    3    0    0 -0.31854982168E+01 -0.43727034371E+00 -0.43689112057E+01  0.54245727358E+01  0.00000000000E+00 0.  1.
</event>
<event>
 7    1  0.2642243E-009  0.4778727E+02  0.7816164E-02  0.1312668E+00
        -11   -1    0    0    0    0  0.00000000000E+00  0.00000000000E+00  0.45593999997E+02  0.45594000000E+02  0.51100000000E-03 0.  1.
         11   -1    0    0    0    0 -0.00000000000E+00 -0.00000000000E+00 -0.45593999997E+02  0.45594000000E+02  0.51100000000E-03 0. -1.
    9900012    2    1    2    0    0 -0.46609879856E+01 -0.27960211339E+02 -0.32865254939E+02  0.47787271788E+02  0.20000003390E+02 0.  0.
        -12    1    1    2    0    0  0.46609879856E+01  0.27960211339E+02  0.32865254939E+02  0.43400728212E+02  0.00000000000E+00 0.  1.
         11    1    3    3    0    0 -0.14927925570E+01 -0.52507878267E+01 -0.56624895828E+01  0.78653029793E+01  0.51100000000E-03 0. -1.
        -11    1    3    3    0    0 -0.91553706341E+00 -0.16340608605E+02 -0.28666802372E+02  0.33009684278E+02  0.51100000000E-03 0.  1.
        -12    1    3    3    0    0 -0.22526583652E+01 -0.63688149082E+01  0.14640370158E+01  0.69122845303E+01  0.00000000000E+00 0.  1.
</event>
<event>
 7    1  0.2642243E-009  0.4778728E+02  0.7816164E-02  0.1312668E+00
        -11   -1    0    0    0    0  0.00000000000E+00  0.00000000000E+00  0.45593999997E+02  0.45594000000E+02  0.51100000000E-03 0.  1.
         11   -1    0    0    0    0 -0.00000000000E+00 -0.00000000000E+00 -0.45593999997E+02  0.45594000000E+02  0.51100000000E-03 0. -1.
    9900012    2    1    2    0    0 -0.10342747765E+02  0.33412261023E+02 -0.25695742233E+02  0.47787276655E+02  0.20000025579E+02 0.  0.
        -12    1    1    2    0    0  0.10342747765E+02 -0.33412261023E+02  0.25695742233E+02  0.43400723345E+02  0.00000000000E+00 0.  1.
         11    1    3    3    0    0 -0.30904285198E+01  0.24822864301E+02 -0.11515706285E+02  0.27537916262E+02  0.51100000000E-03 0. -1.
        -11    1    3    3    0    0 -0.73976354118E+01  0.72221410883E+01 -0.15307188242E+02  0.18471446714E+02  0.51100000000E-03 0.  1.
         12    1    3    3    0    0  0.14531616642E+00  0.13672556339E+01  0.11271522937E+01  0.17779136789E+01  0.00000000000E+00 0. -1.
</event>
<event>
 7    1  0.2642243E-009  0.4778728E+02  0.7816164E-02  0.1312668E+00
        -11   -1    0    0    0    0  0.00000000000E+00  0.00000000000E+00  0.45593999997E+02  0.45594000000E+02  0.51100000000E-03 0.  1.
         11   -1    0    0    0    0 -0.00000000000E+00 -0.00000000000E+00 -0.45593999997E+02  0.45594000000E+02  0.51100000000E-03 0. -1.
    9900012    2    1    2    0    0  0.29131990406E+02 -0.27198486695E+02 -0.17181160979E+02  0.47787276088E+02  0.20000022996E+02 0.  0.
        -12    1    1    2    0    0 -0.29131990406E+02  0.27198486695E+02  0.17181160979E+02  0.43400723912E+02  0.00000000000E+00 0.  1.
         11    1    3    3    0    0  0.60366279327E+01 -0.19096135726E+01 -0.48133180701E+01  0.79533346403E+01  0.51100000000E-03 0. -1.
        -11    1    3    3    0    0  0.61622470594E+01  0.57799971592E+00 -0.52326906949E+01  0.81048395827E+01  0.51100000000E-03 0.  1.
        -12    1    3    3    0    0  0.16933115414E+02 -0.25866872838E+02 -0.71351522135E+01  0.31729101865E+02  0.00000000000E+00 0.  1.
</event>
<event>
 7    1  0.2642243E-009  0.4778727E+02  0.7816164E-02  0.1312668E+00
        -11   -1    0    0    0    0  0.00000000000E+00  0.00000000000E+00  0.45593999997E+02  0.45594000000E+02  0.51100000000E-03 0.  1.
         11   -1    0    0    0    0 -0.00000000000E+00 -0.00000000000E+00 -0.45593999997E+02  0.45594000000E+02  0.51100000000E-03 0. -1.
    9900012    2    1    2    0    0 -0.29334977558E+01 -0.33526661227E+02 -0.27404030504E+02  0.47787270628E+02  0.19999998103E+02 0.  0.
        -12    1    1    2    0    0  0.29334977558E+01  0.33526661227E+02  0.27404030504E+02  0.43400729372E+02  0.00000000000E+00 0.  1.
         11    1    3    3    0    0 -0.34584909946E+01 -0.22574302321E+01  0.12916537045E+01  0.43272994773E+01  0.51100000000E-03 0. -1.
        -11    1    3    3    0    0 -0.75814110127E+00 -0.14546927396E+01  0.49648167895E+00  0.17138854147E+01  0.51100000000E-03 0.  1.
         12    1    3    3    0    0  0.12831343401E+01 -0.29814538255E+02 -0.29192165887E+02  0.41746085736E+02  0.00000000000E+00 0. -1.
</event>
<event>
 7    1  0.2642243E-009  0.4778728E+02  0.7816164E-02  0.1312668E+00
        -11   -1    0    0    0    0  0.00000000000E+00  0.00000000000E+00  0.45593999997E+02  0.45594000000E+02  0.51100000000E-03 0.  1.
         11   -1    0    0    0    0 -0.00000000000E+00 -0.00000000000E+00 -0.45593999997E+02  0.45594000000E+02  0.51100000000E-03 0. -1.
    9900012    2    1    2    0    0  0.42051211367E+02 -0.21945905453E+01 -0.10512003607E+02  0.47787276217E+02  0.20000023583E+02 0.  0.
        -12    1    1    2    0    0 -0.42051211367E+02  0.21945905453E+01  0.10512003607E+02  0.43400723783E+02  0.00000000000E+00 0.  1.
         11    1    3    3    0    0  0.26230511697E+02 -0.41557265654E+00 -0.57071414001E+01  0.26847419014E+02  0.51100000000E-03 0. -1.
        -11    1    3    3    0    0  0.54810088237E+01 -0.48551977611E+00  0.43928686629E+01  0.70409148929E+01  0.51100000000E-03 0.  1.
        -12    1    3    3    0    0  0.10339690846E+02 -0.12934981126E+01 -0.91977308704E+01  0.13898942310E+02  0.00000000000E+00 0.  1.
</event>
<event>
 7    1  0.2642243E-009  0.4778727E+02  0.7816164E-02  0.1312668E+00
        -11   -1    0    0    0    0  0.00000000000E+00  0.00000000000E+00  0.45593999997E+02  0.45594000000E+02  0.51100000000E-03 0.  1.
         11   -1    0    0    0    0 -0.00000000000E+00 -0.00000000000E+00 -0.45593999997E+02  0.45594000000E+02  0.51100000000E-03 0. -1.
    9900012    2    1    2    0    0 -0.36747538772E+02  0.12972244579E+02 -0.19103994188E+02  0.47787270408E+02  0.19999997097E+02 0.  0.
        -12    1    1    2    0    0  0.36747538772E+02 -0.12972244579E+02  0.19103994188E+02  0.43400729592E+02  0.00000000000E+00 0.  1.
         11    1    3    3    0    0 -0.24225114410E+02  0.65028743940E+01 -0.17780615744E+02  0.30745631235E+02  0.51100000000E-03 0. -1.
        -11    1    3    3    0    0 -0.29434934528E+00  0.43939805902E+01  0.74804214165E+00  0.44669088049E+01  0.51100000000E-03 0.  1.
        -12    1    3    3    0    0 -0.12228075016E+02  0.20753895950E+01 -0.20714205859E+01  0.12574730368E+02  0.00000000000E+00 0.  1.
</event>
<event>
 7    1  0.2642243E-009  0.4778725E+02  0.7816164E-02  0.1312668E+00
        -11   -1    0    0    0    0  0.00000000000E+00  0.00000000000E+00  0.45593999997E+02  0.45594000000E+02  0.51100000000E-03 0. -1.
         11   -1    0    0    0    0 -0.00000000000E+00 -0.00000000000E+00 -0.45593999997E+02  0.45594000000E+02  0.51100000000E-03 0.  1.
    9900012    2    1    2    0    0  0.10094061066E+02 -0.83882899077E+01  0.41368724510E+02  0.47787252956E+02  0.19999917530E+02 0.  0.
        -12    1    1    2    0    0 -0.10094061066E+02  0.83882899077E+01 -0.41368724510E+02  0.43400747044E+02  0.00000000000E+00 0.  1.
         11    1    3    3    0    0  0.15973203774E+01 -0.89575890054E+01  0.23766814128E+02  0.25448993836E+02  0.51100000000E-03 0.  1.
        -11    1    3    3    0    0  0.67735402297E+01 -0.10360633170E+01  0.28863137141E+01  0.74353938401E+01  0.51100000000E-03 0. -1.
        -12    1    3    3    0    0  0.17232004592E+01  0.16053624147E+01  0.14715596667E+02  0.14902865281E+02  0.00000000000E+00 0.  1.
</event>
<event>
 7    1  0.2642243E-009  0.4778727E+02  0.7816164E-02  0.1312668E+00
        -11   -1    0    0    0    0  0.00000000000E+00  0.00000000000E+00  0.45593999997E+02  0.45594000000E+02  0.51100000000E-03 0. -1.
         11   -1    0    0    0    0 -0.00000000000E+00 -0.00000000000E+00 -0.45593999997E+02  0.45594000000E+02  0.51100000000E-03 0.  1.
    9900012    2    1    2    0    0 -0.15707380352E+02  0.39322082759E+02  0.95223579115E+01  0.47787270856E+02  0.19999999139E+02 0.  0.
        -12    1    1    2    0    0  0.15707380352E+02 -0.39322082759E+02 -0.95223579115E+01  0.43400729144E+02  0.00000000000E+00 0.  1.
         11    1    3    3    0    0 -0.18449445585E+02  0.28476453488E+02  0.11367427874E+02  0.35784198501E+02  0.51100000000E-03 0. -1.
        -11    1    3    3    0    0  0.74527212868E+00  0.46880840993E+01 -0.27199727544E+01  0.54709976343E+01  0.51100000000E-03 0.  1.
         12    1    3    3    0    0  0.19967931043E+01  0.61575451725E+01  0.87490279225E+00  0.65320747201E+01  0.00000000000E+00 0. -1.
</event>
<event>
 7    1  0.2642243E-009  0.4778727E+02  0.7816164E-02  0.1312668E+00
        -11   -1    0    0    0    0  0.00000000000E+00  0.00000000000E+00  0.45593999997E+02  0.45594000000E+02  0.51100000000E-03 0.  1.
         11   -1    0    0    0    0 -0.00000000000E+00 -0.00000000000E+00 -0.45593999997E+02  0.45594000000E+02  0.51100000000E-03 0. -1.
    9900012    2    1    2    0    0  0.42200769408E+02 -0.69989708483E+01 -0.73302645673E+01  0.47787270626E+02  0.19999998091E+02 0.  0.
        -12    1    1    2    0    0 -0.42200769408E+02  0.69989708483E+01  0.73302645673E+01  0.43400729374E+02  0.00000000000E+00 0.  1.
         11    1    3    3    0    0  0.27436619869E+02 -0.10539531502E+01  0.14264493894E+01  0.27493884506E+02  0.51100000000E-03 0. -1.
        -11    1    3    3    0    0  0.54492876895E+01 -0.68567406805E+01 -0.27822909210E+01  0.91897101213E+01  0.51100000000E-03 0.  1.
        -12    1    3    3    0    0  0.93148618496E+01  0.91172298243E+00 -0.59744230357E+01  0.11103675999E+02  0.00000000000E+00 0.  1.
</event>
<event>
 7    1  0.2642243E-009  0.4778727E+02  0.7816164E-02  0.1312668E+00
        -11   -1    0    0    0    0  0.00000000000E+00  0.00000000000E+00  0.45593999997E+02  0.45594000000E+02  0.51100000000E-03 0.  1.
         11   -1    0    0    0    0 -0.00000000000E+00 -0.00000000000E+00 -0.45593999997E+02  0.45594000000E+02  0.51100000000E-03 0. -1.
    9900012    2    1    2    0    0  0.17976953671E+02  0.57426886385E+01 -0.39082914207E+02  0.47787268221E+02  0.19999987125E+02 0.  0.
        -12    1    1    2    0    0 -0.17976953671E+02 -0.57426886385E+01  0.39082914207E+02  0.43400731779E+02  0.00000000000E+00 0.  1.
         11    1    3    3    0    0  0.17247547744E+02  0.71703862510E+01 -0.17292035830E+02  0.25454014331E+02  0.51100000000E-03 0. -1.
        -11    1    3    3    0    0 -0.19697735608E+01 -0.67352627772E+00 -0.86724260543E+01  0.89187790339E+01  0.51100000000E-03 0.  1.
         12    1    3    3    0    0  0.26991794880E+01 -0.75417133481E+00 -0.13118452322E+02  0.13414474855E+02  0.00000000000E+00 0. -1.
</event>
<event>
 7    1  0.2642243E-009  0.4778727E+02  0.7816164E-02  0.1312668E+00
        -11   -1    0    0    0    0  0.00000000000E+00  0.00000000000E+00  0.45593999997E+02  0.45594000000E+02  0.51100000000E-03 0.  1.
         11   -1    0    0    0    0 -0.00000000000E+00 -0.00000000000E+00 -0.45593999997E+02  0.45594000000E+02  0.51100000000E-03 0. -1.
    9900012    2    1    2    0    0  0.10826628447E+02  0.39597865668E+02 -0.14086036383E+02  0.47787271090E+02  0.20000000208E+02 0.  0.
        -12    1    1    2    0    0 -0.10826628447E+02 -0.39597865668E+02  0.14086036383E+02  0.43400728910E+02  0.00000000000E+00 0.  1.
         11    1    3    3    0    0  0.71265898473E+01  0.29097245173E+02 -0.13286715706E+02  0.32771554342E+02  0.51100000000E-03 0. -1.
        -11    1    3    3    0    0  0.27275109033E+01 -0.12183468381E+01  0.93296916964E+00  0.31295553163E+01  0.51100000000E-03 0.  1.
        -12    1    3    3    0    0  0.97252769612E+00  0.11718967333E+02 -0.17322898466E+01  0.11886161432E+02  0.00000000000E+00 0.  1.
</event>
<event>
 7    1  0.2642243E-009  0.4778727E+02  0.7816164E-02  0.1312668E+00
        -11   -1    0    0    0    0  0.00000000000E+00  0.00000000000E+00  0.45593999997E+02  0.45594000000E+02  0.51100000000E-03 0.  1.
         11   -1    0    0    0    0 -0.00000000000E+00 -0.00000000000E+00 -0.45593999997E+02  0.45594000000E+02  0.51100000000E-03 0. -1.
    9900012    2    1    2    0    0 -0.38599936045E+02  0.19554299814E+02 -0.33611998607E+01  0.47787269956E+02  0.19999995038E+02 0.  0.
        -12    1    1    2    0    0  0.38599936045E+02 -0.19554299814E+02  0.33611998607E+01  0.43400730044E+02  0.00000000000E+00 0.  1.
         11    1    3    3    0    0 -0.14619810232E+02  0.69140665100E+01  0.37165435714E+01  0.16593850165E+02  0.51100000000E-03 0. -1.
        -11    1    3    3    0    0 -0.98507002090E+01  0.11068725583E+02 -0.81958756849E+01  0.16932966638E+02  0.51100000000E-03 0.  1.
        -12    1    3    3    0    0 -0.14129425604E+02  0.15715077202E+01  0.11181322528E+01  0.14260453153E+02  0.00000000000E+00 0.  1.
</event>
<event>
 7    1  0.2642243E-009  0.4778727E+02  0.7816164E-02  0.1312668E+00
        -11   -1    0    0    0    0  0.00000000000E+00  0.00000000000E+00  0.45593999997E+02  0.45594000000E+02  0.51100000000E-03 0.  1.
         11   -1    0    0    0    0 -0.00000000000E+00 -0.00000000000E+00 -0.45593999997E+02  0.45594000000E+02  0.51100000000E-03 0. -1.
    9900012    2    1    2    0    0  0.31211589587E+02 -0.16816672102E+02 -0.25033167328E+02  0.47787271301E+02  0.20000001169E+02 0.  0.
        -12    1    1    2    0    0 -0.31211589587E+02  0.16816672102E+02  0.25033167328E+02  0.43400728699E+02  0.00000000000E+00 0.  1.
         11    1    3    3    0    0  0.26493741333E+02 -0.80815043007E+01 -0.16811622778E+02  0.32401538579E+02  0.51100000000E-03 0. -1.
        -11    1    3    3    0    0  0.38068958077E+01 -0.65903991216E+01 -0.85422956515E+00  0.76586894887E+01  0.51100000000E-03 0.  1.
         12    1    3    3    0    0  0.91095244693E+00 -0.21447686795E+01 -0.73673149848E+01  0.77270432336E+01  0.00000000000E+00 0. -1.
</event>
<event>
 7    1  0.2642243E-009  0.4778727E+02  0.7816164E-02  0.1312668E+00
        -11   -1    0    0    0    0  0.00000000000E+00  0.00000000000E+00  0.45593999997E+02  0.45594000000E+02  0.51100000000E-03 0.  1.
         11   -1    0    0    0    0 -0.00000000000E+00 -0.00000000000E+00 -0.45593999997E+02  0.45594000000E+02  0.51100000000E-03 0. -1.
    9900012    2    1    2    0    0  0.11294383505E+02  0.32981392987E+02 -0.25851264308E+02  0.47787271337E+02  0.20000001334E+02 0.  0.
        -12    1    1    2    0    0 -0.11294383505E+02 -0.32981392987E+02  0.25851264308E+02  0.43400728663E+02  0.00000000000E+00 0.  1.
         11    1    3    3    0    0 -0.20632796953E+00  0.33456317590E+01 -0.81848231510E+01  0.88446115445E+01  0.51100000000E-03 0. -1.
        -11    1    3    3    0    0  0.12017708637E+02  0.15048393260E+02 -0.57462122978E+01  0.20097224102E+02  0.51100000000E-03 0.  1.
        -12    1    3    3    0    0 -0.51699716159E+00  0.14587367968E+02 -0.11920228859E+02  0.18845435690E+02  0.00000000000E+00 0.  1.
</event>
<event>
 7    1  0.2642243E-009  0.4778729E+02  0.7816164E-02  0.1312668E+00
        -11   -1    0    0    0    0  0.00000000000E+00  0.00000000000E+00  0.45593999997E+02  0.45594000000E+02  0.51100000000E-03 0.  1.
         11   -1    0    0    0    0 -0.00000000000E+00 -0.00000000000E+00 -0.45593999997E+02  0.45594000000E+02  0.51100000000E-03 0. -1.
    9900012    2    1    2    0    0 -0.33084160980E+01  0.32523144467E+02 -0.28546829813E+02  0.47787285311E+02  0.20000065049E+02 0.  0.
        -12    1    1    2    0    0  0.33084160980E+01 -0.32523144467E+02  0.28546829813E+02  0.43400714689E+02  0.00000000000E+00 0.  1.
         11    1    3    3    0    0 -0.33920209455E+00  0.25902247915E+02 -0.26012877990E+02  0.36711188031E+02  0.51100000000E-03 0. -1.
        -11    1    3    3    0    0 -0.32624661352E+01  0.81637303065E+01 -0.32196170038E+01  0.93624842704E+01  0.51100000000E-03 0.  1.
         12    1    3    3    0    0  0.29325213174E+00 -0.15428337546E+01  0.68566518019E+00  0.17136130096E+01  0.00000000000E+00 0. -1.
</event>
<event>
 7    1  0.2642243E-009  0.4778727E+02  0.7816164E-02  0.1312668E+00
        -11   -1    0    0    0    0  0.00000000000E+00  0.00000000000E+00  0.45593999997E+02  0.45594000000E+02  0.51100000000E-03 0. -1.
         11   -1    0    0    0    0 -0.00000000000E+00 -0.00000000000E+00 -0.45593999997E+02  0.45594000000E+02  0.51100000000E-03 0.  1.
    9900012    2    1    2    0    0  0.37326826962E+02  0.19695071435E+02  0.10121041086E+02  0.47787270484E+02  0.19999997445E+02 0.  0.
        -12    1    1    2    0    0 -0.37326826962E+02 -0.19695071435E+02 -0.10121041086E+02  0.43400729516E+02  0.00000000000E+00 0.  1.
         11    1    3    3    0    0  0.35093092095E+00 -0.20418708723E+01  0.12141763561E+01  0.24013774496E+01  0.51100000000E-03 0.  1.
        -11    1    3    3    0    0  0.26993641071E+02  0.16808798854E+02  0.11742308983E+02  0.33897996957E+02  0.51100000000E-03 0. -1.
         12    1    3    3    0    0  0.99822549700E+01  0.49281434528E+01 -0.28354442530E+01  0.11487896078E+02  0.00000000000E+00 0. -1.
</event>
<event>
 7    1  0.2642243E-009  0.4778727E+02  0.7816164E-02  0.1312668E+00
        -11   -1    0    0    0    0  0.00000000000E+00  0.00000000000E+00  0.45593999997E+02  0.45594000000E+02  0.51100000000E-03 0.  1.
         11   -1    0    0    0    0 -0.00000000000E+00 -0.00000000000E+00 -0.45593999997E+02  0.45594000000E+02  0.51100000000E-03 0. -1.
    9900012    2    1    2    0    0  0.39831933600E+02  0.21182778755E+01  0.17104185540E+02  0.47787271913E+02  0.20000003961E+02 0.  0.
        -12    1    1    2    0    0 -0.39831933600E+02 -0.21182778755E+01 -0.17104185540E+02  0.43400728087E+02  0.00000000000E+00 0.  1.
         11    1    3    3    0    0  0.26024953261E+02  0.47275291139E+01  0.34214943517E+01  0.26671226961E+02  0.51100000000E-03 0. -1.
        -11    1    3    3    0    0  0.50335107109E+01  0.23399354454E+01  0.73767186793E+01  0.92318744955E+01  0.51100000000E-03 0.  1.
         12    1    3    3    0    0  0.87734696280E+01 -0.49491866838E+01  0.63059725092E+01  0.11884170456E+02  0.00000000000E+00 0. -1.
</event>
<event>
 7    1  0.2642243E-009  0.4778727E+02  0.7816164E-02  0.1312668E+00
        -11   -1    0    0    0    0  0.00000000000E+00  0.00000000000E+00  0.45593999997E+02  0.45594000000E+02  0.51100000000E-03 0.  1.
         11   -1    0    0    0    0 -0.00000000000E+00 -0.00000000000E+00 -0.45593999997E+02  0.45594000000E+02  0.51100000000E-03 0. -1.
    9900012    2    1    2    0    0  0.29211794632E+02  0.25642523399E+02 -0.19306869996E+02  0.47787272115E+02  0.20000004882E+02 0.  0.
        -12    1    1    2    0    0 -0.29211794632E+02 -0.25642523399E+02  0.19306869996E+02  0.43400727885E+02  0.00000000000E+00 0.  1.
         11    1    3    3    0    0  0.66236848223E+01  0.89779070708E+01 -0.52647739040E+01  0.12336687583E+02  0.51100000000E-03 0. -1.
        -11    1    3    3    0    0  0.11053958508E+02  0.85771505811E+01 -0.15970284845E+02  0.21232228076E+02  0.51100000000E-03 0.  1.
        -12    1    3    3    0    0  0.11534151301E+02  0.80874657474E+01  0.19281887529E+01  0.14218356456E+02  0.00000000000E+00 0.  1.
</event>
<event>
 7    1  0.2642243E-009  0.4778728E+02  0.7816164E-02  0.1312668E+00
        -11   -1    0    0    0    0  0.00000000000E+00  0.00000000000E+00  0.45593999997E+02  0.45594000000E+02  0.51100000000E-03 0.  1.
         11   -1    0    0    0    0 -0.00000000000E+00 -0.00000000000E+00 -0.45593999997E+02  0.45594000000E+02  0.51100000000E-03 0. -1.
    9900012    2    1    2    0    0  0.56188980422E+01  0.39891987683E+02 -0.16145587714E+02  0.47787277665E+02  0.20000030188E+02 0.  0.
        -12    1    1    2    0    0 -0.56188980422E+01 -0.39891987683E+02  0.16145587714E+02  0.43400722335E+02  0.00000000000E+00 0.  1.
         11    1    3    3    0    0 -0.41511129452E+01  0.18644864714E+02 -0.98724723440E+01  0.21501823860E+02  0.51100000000E-03 0. -1.
        -11    1    3    3    0    0  0.29131262094E+01  0.45567196126E+01  0.27984256440E+01  0.60894321809E+01  0.51100000000E-03 0.  1.
         12    1    3    3    0    0  0.68568847780E+01  0.16690403357E+02 -0.90715410136E+01  0.20196021624E+02  0.00000000000E+00 0. -1.
</event>
<event>
 7    1  0.2642243E-009  0.4778727E+02  0.7816164E-02  0.1312668E+00
        -11   -1    0    0    0    0  0.00000000000E+00  0.00000000000E+00  0.45593999997E+02  0.45594000000E+02  0.51100000000E-03 0.  1.
         11   -1    0    0    0    0 -0.00000000000E+00 -0.00000000000E+00 -0.45593999997E+02  0.45594000000E+02  0.51100000000E-03 0. -1.
    9900012    2    1    2    0    0  0.16110759395E+02  0.40171812707E+02  0.32081506376E+01  0.47787270341E+02  0.19999996792E+02 0.  0.
        -12    1    1    2    0    0 -0.16110759395E+02 -0.40171812707E+02 -0.32081506376E+01  0.43400729659E+02  0.00000000000E+00 0.  1.
         11    1    3    3    0    0  0.19341603601E+02  0.36926131335E+02  0.20903297620E+01  0.41737348789E+02  0.51100000000E-03 0. -1.
        -11    1    3    3    0    0 -0.37377685578E+00 -0.85696379294E+00  0.41081848128E-01  0.93583335038E+00  0.51100000000E-03 0.  1.
         12    1    3    3    0    0 -0.28570673501E+01  0.41026451651E+01  0.10767390275E+01  0.51140882009E+01  0.00000000000E+00 0. -1.
</event>
<event>
 7    1  0.2642243E-009  0.4778727E+02  0.7816164E-02  0.1312668E+00
        -11   -1    0    0    0    0  0.00000000000E+00  0.00000000000E+00  0.45593999997E+02  0.45594000000E+02  0.51100000000E-03 0. -1.
         11   -1    0    0    0    0 -0.00000000000E+00 -0.00000000000E+00 -0.45593999997E+02  0.45594000000E+02  0.51100000000E-03 0.  1.
    9900012    2    1    2    0    0  0.31246455938E+02  0.27234670554E+02 -0.12866815893E+02  0.47787271433E+02  0.20000001773E+02 0.  0.
        -12    1    1    2    0    0 -0.31246455938E+02 -0.27234670554E+02  0.12866815893E+02  0.43400728567E+02  0.00000000000E+00 0.  1.
         11    1    3    3    0    0  0.11772611488E+02  0.15620812771E+02 -0.27704772426E+01  0.19755498406E+02  0.51100000000E-03 0. -1.
        -11    1    3    3    0    0  0.21072612333E+02  0.92686773465E+01 -0.10227214447E+02  0.25190460215E+02  0.51100000000E-03 0.  1.
        -12    1    3    3    0    0 -0.15987678816E+01  0.23451804370E+01  0.13087579629E+00  0.28413128120E+01  0.00000000000E+00 0.  1.
</event>
<event>
 7    1  0.2642243E-009  0.4778727E+02  0.7816164E-02  0.1312668E+00
        -11   -1    0    0    0    0  0.00000000000E+00  0.00000000000E+00  0.45593999997E+02  0.45594000000E+02  0.51100000000E-03 0.  1.
         11   -1    0    0    0    0 -0.00000000000E+00 -0.00000000000E+00 -0.45593999997E+02  0.45594000000E+02  0.51100000000E-03 0. -1.
    9900012    2    1    2    0    0  0.75969285675E+01  0.42697307903E+02  0.16880706972E+01  0.47787274101E+02  0.20000013937E+02 0.  0.
        -12    1    1    2    0    0 -0.75969285675E+01 -0.42697307903E+02 -0.16880706972E+01  0.43400725899E+02  0.00000000000E+00 0.  1.
         11    1    3    3    0    0  0.92411359323E+01  0.32891743264E+02  0.83235187068E+01  0.35164560742E+02  0.51100000000E-03 0. -1.
        -11    1    3    3    0    0 -0.24293700543E+01  0.77887870137E+01 -0.36568935664E+01  0.89409123037E+01  0.51100000000E-03 0.  1.
         12    1    3    3    0    0  0.78516268955E+00  0.20167776260E+01 -0.29785544433E+01  0.36818010556E+01  0.00000000000E+00 0. -1.
</event>
<event>
 7    1  0.2642243E-009  0.4778727E+02  0.7816164E-02  0.1312668E+00
        -11   -1    0    0    0    0  0.00000000000E+00  0.00000000000E+00  0.45593999997E+02  0.45594000000E+02  0.51100000000E-03 0.  1.
         11   -1    0    0    0    0 -0.00000000000E+00 -0.00000000000E+00 -0.45593999997E+02  0.45594000000E+02  0.51100000000E-03 0. -1.
    9900012    2    1    2    0    0 -0.37569976386E+02 -0.13544321309E+02 -0.16990333431E+02  0.47787271948E+02  0.20000004118E+02 0.  0.
        -12    1    1    2    0    0  0.37569976386E+02  0.13544321309E+02  0.16990333431E+02  0.43400728052E+02  0.00000000000E+00 0.  1.
         11    1    3    3    0    0 -0.16609750155E+02  0.29970877535E+01 -0.62200846376E+01  0.17987656556E+02  0.51100000000E-03 0. -1.
        -11    1    3    3    0    0 -0.78413949960E+01 -0.89098086575E+01 -0.13714377484E+01  0.11947929007E+02  0.51100000000E-03 0.  1.
         12    1    3    3    0    0 -0.13118831235E+02 -0.76316004051E+01 -0.93988110445E+01  0.17851686385E+02  0.00000000000E+00 0. -1.
</event>
<event>
 7    1  0.2642243E-009  0.4778727E+02  0.7816164E-02  0.1312668E+00
        -11   -1    0    0    0    0  0.00000000000E+00  0.00000000000E+00  0.45593999997E+02  0.45594000000E+02  0.51100000000E-03 0.  1.
         11   -1    0    0    0    0 -0.00000000000E+00 -0.00000000000E+00 -0.45593999997E+02  0.45594000000E+02  0.51100000000E-03 0. -1.
    9900012    2    1    2    0    0  0.20742684204E+02  0.31112208898E+02 -0.22031676884E+02  0.47787271010E+02  0.19999999844E+02 0.  0.
        -12    1    1    2    0    0 -0.20742684204E+02 -0.31112208898E+02  0.22031676884E+02  0.43400728990E+02  0.00000000000E+00 0.  1.
         11    1    3    3    0    0 -0.32210771967E+01  0.11187123924E+01 -0.49018067362E+00  0.34448705458E+01  0.51100000000E-03 0. -1.
        -11    1    3    3    0    0  0.32854504848E+01  0.31521604574E+01 -0.82226944897E+00  0.46267080895E+01  0.51100000000E-03 0.  1.
         12    1    3    3    0    0  0.20678310916E+02  0.26841336048E+02 -0.20719226762E+02  0.39715692375E+02  0.00000000000E+00 0. -1.
</event>
<event>
 7    1  0.2642243E-009  0.4778726E+02  0.7816164E-02  0.1312668E+00
        -11   -1    0    0    0    0  0.00000000000E+00  0.00000000000E+00  0.45593999997E+02  0.45594000000E+02  0.51100000000E-03 0. -1.
         11   -1    0    0    0    0 -0.00000000000E+00 -0.00000000000E+00 -0.45593999997E+02  0.45594000000E+02  0.51100000000E-03 0.  1.
    9900012    2    1    2    0    0 -0.26324770837E+02  0.19959831426E+02  0.28146681399E+02  0.47787261481E+02  0.19999956397E+02 0.  0.
        -12    1    1    2    0    0  0.26324770837E+02 -0.19959831426E+02 -0.28146681399E+02  0.43400738519E+02  0.00000000000E+00 0.  1.
         11    1    3    3    0    0 -0.15152303050E+01  0.10210529543E+01 -0.25121434260E+01  0.31063381765E+01  0.51100000000E-03 0. -1.
        -11    1    3    3    0    0 -0.22266805984E+02  0.13450077045E+02  0.21727746741E+02  0.33894102731E+02  0.51100000000E-03 0.  1.
         12    1    3    3    0    0 -0.25427345484E+01  0.54887014270E+01  0.89310780839E+01  0.10786820573E+02  0.00000000000E+00 0. -1.
</event>
<event>
 7    1  0.2642243E-009  0.4778725E+02  0.7816164E-02  0.1312668E+00
        -11   -1    0    0    0    0  0.00000000000E+00  0.00000000000E+00  0.45593999997E+02  0.45594000000E+02  0.51100000000E-03 0.  1.
         11   -1    0    0    0    0 -0.00000000000E+00 -0.00000000000E+00 -0.45593999997E+02  0.45594000000E+02  0.51100000000E-03 0. -1.
    9900012    2    1    2    0    0  0.34459141657E+02 -0.25443654827E+02  0.69866057097E+01  0.47787254913E+02  0.19999926452E+02 0.  0.
        -12    1    1    2    0    0 -0.34459141657E+02  0.25443654827E+02 -0.69866057097E+01  0.43400745087E+02  0.00000000000E+00 0.  1.
         11    1    3    3    0    0  0.10376564494E+02 -0.42548421915E+01 -0.39901596268E+01  0.11903703074E+02  0.51100000000E-03 0. -1.
        -11    1    3    3    0    0  0.88409485553E+01 -0.15188240592E+02  0.36979346372E+01  0.17958834719E+02  0.51100000000E-03 0.  1.
        -12    1    3    3    0    0  0.15241628608E+02 -0.60005720440E+01  0.72788306992E+01  0.17924717120E+02  0.00000000000E+00 0.  1.
</event>
<event>
 7    1  0.2642243E-009  0.4778724E+02  0.7816164E-02  0.1312668E+00
        -11   -1    0    0    0    0  0.00000000000E+00  0.00000000000E+00  0.45593999997E+02  0.45594000000E+02  0.51100000000E-03 0. -1.
         11   -1    0    0    0    0 -0.00000000000E+00 -0.00000000000E+00 -0.45593999997E+02  0.45594000000E+02  0.51100000000E-03 0.  1.
    9900012    2    1    2    0    0  0.65586737306E+01 -0.35592528749E+02  0.23953743119E+02  0.47787238333E+02  0.19999850855E+02 0.  0.
        -12    1    1    2    0    0 -0.65586737306E+01  0.35592528749E+02 -0.23953743119E+02  0.43400761667E+02  0.00000000000E+00 0.  1.
         11    1    3    3    0    0  0.61948661418E+01 -0.37297466991E+01  0.17853976860E+01  0.74481556182E+01  0.51100000000E-03 0. -1.
        -11    1    3    3    0    0 -0.98590181866E+00  0.32531118256E+00 -0.27728462906E+00  0.10745774929E+01  0.51100000000E-03 0.  1.
         12    1    3    3    0    0  0.13497094074E+01 -0.32188093233E+02  0.22445630062E+02  0.39264505222E+02  0.00000000000E+00 0. -1.
</event>
<event>
 7    1  0.2642243E-009  0.4778728E+02  0.7816164E-02  0.1312668E+00
        -11   -1    0    0    0    0  0.00000000000E+00  0.00000000000E+00  0.45593999997E+02  0.45594000000E+02  0.51100000000E-03 0. -1.
         11   -1    0    0    0    0 -0.00000000000E+00 -0.00000000000E+00 -0.45593999997E+02  0.45594000000E+02  0.51100000000E-03 0.  1.
    9900012    2    1    2    0    0 -0.23582769436E+02  0.11111027726E+02  0.34698996983E+02  0.47787281769E+02  0.20000048897E+02 0.  0.
        -12    1    1    2    0    0  0.23582769436E+02 -0.11111027726E+02 -0.34698996983E+02  0.43400718231E+02  0.00000000000E+00 0.  1.
         11    1    3    3    0    0 -0.20716685686E+02  0.48525224721E+01  0.25344288985E+02  0.33091706281E+02  0.51100000000E-03 0. -1.
        -11    1    3    3    0    0 -0.34746766568E+01  0.28770276747E+01 -0.22660165302E+00  0.45168589397E+01  0.51100000000E-03 0.  1.
         12    1    3    3    0    0  0.60859290753E+00  0.33814775793E+01  0.95813096506E+01  0.10178716548E+02  0.00000000000E+00 0. -1.
</event>
<event>
 7    1  0.2642243E-009  0.4778727E+02  0.7816164E-02  0.1312668E+00
        -11   -1    0    0    0    0  0.00000000000E+00  0.00000000000E+00  0.45593999997E+02  0.45594000000E+02  0.51100000000E-03 0.  1.
         11   -1    0    0    0    0 -0.00000000000E+00 -0.00000000000E+00 -0.45593999997E+02  0.45594000000E+02  0.51100000000E-03 0. -1.
    9900012    2    1    2    0    0  0.11969053023E+02 -0.40708194758E+02 -0.91218207857E+01  0.47787274601E+02  0.20000016216E+02 0.  0.
        -12    1    1    2    0    0 -0.11969053023E+02  0.40708194758E+02  0.91218207857E+01  0.43400725399E+02  0.00000000000E+00 0.  1.
         11    1    3    3    0    0 -0.44678393396E-01 -0.42142221976E+01 -0.14956427218E+01  0.44719808030E+01  0.51100000000E-03 0. -1.
        -11    1    3    3    0    0  0.57642445432E+01 -0.35515734365E+02 -0.45044057564E+01  0.36261323392E+02  0.51100000000E-03 0.  1.
        -12    1    3    3    0    0  0.62494868736E+01 -0.97823819455E+00 -0.31217723075E+01  0.70539704060E+01  0.00000000000E+00 0.  1.
</event>
<event>
 7    1  0.2642243E-009  0.4778729E+02  0.7816164E-02  0.1312668E+00
        -11   -1    0    0    0    0  0.00000000000E+00  0.00000000000E+00  0.45593999997E+02  0.45594000000E+02  0.51100000000E-03 0.  1.
         11   -1    0    0    0    0 -0.00000000000E+00 -0.00000000000E+00 -0.45593999997E+02  0.45594000000E+02  0.51100000000E-03 0. -1.
    9900012    2    1    2    0    0  0.10830299951E+02  0.33501161302E+02 -0.25377121678E+02  0.47787291362E+02  0.20000092637E+02 0.  0.
        -12    1    1    2    0    0 -0.10830299951E+02 -0.33501161302E+02  0.25377121678E+02  0.43400708638E+02  0.00000000000E+00 0.  1.
         11    1    3    3    0    0 -0.40426688535E+00  0.15915274907E+02 -0.64745182255E+01  0.17186587608E+02  0.51100000000E-03 0.  1.
        -11    1    3    3    0    0  0.36993588640E+00  0.11685982405E+02 -0.87617604654E+01  0.14610526481E+02  0.51100000000E-03 0. -1.
        -12    1    3    3    0    0  0.10864630950E+02  0.58999039895E+01 -0.10140842987E+02  0.15990177274E+02  0.00000000000E+00 0.  1.
</event>
<event>
 7    1  0.2642243E-009  0.4778726E+02  0.7816164E-02  0.1312668E+00
        -11   -1    0    0    0    0  0.00000000000E+00  0.00000000000E+00  0.45593999997E+02  0.45594000000E+02  0.51100000000E-03 0. -1.
         11   -1    0    0    0    0 -0.00000000000E+00 -0.00000000000E+00 -0.45593999997E+02  0.45594000000E+02  0.51100000000E-03 0.  1.
    9900012    2    1    2    0    0  0.58405913236E+01  0.11483249844E+02  0.41444504688E+02  0.47787256886E+02  0.19999935447E+02 0.  0.
        -12    1    1    2    0    0 -0.58405913236E+01 -0.11483249844E+02 -0.41444504688E+02  0.43400743114E+02  0.00000000000E+00 0.  1.
         11    1    3    3    0    0  0.75367899533E+01  0.13914982419E+02  0.37434756059E+02  0.40642230499E+02  0.51100000000E-03 0. -1.
        -11    1    3    3    0    0 -0.35219950226E+01 -0.15151134382E+01  0.22290927549E+01  0.44349602525E+01  0.51100000000E-03 0.  1.
        -12    1    3    3    0    0  0.18257963930E+01 -0.91661913662E+00  0.17806558743E+01  0.27100661344E+01  0.00000000000E+00 0.  1.
</event>
<event>
 7    1  0.2642243E-009  0.4778727E+02  0.7816164E-02  0.1312668E+00
        -11   -1    0    0    0    0  0.00000000000E+00  0.00000000000E+00  0.45593999997E+02  0.45594000000E+02  0.51100000000E-03 0.  1.
         11   -1    0    0    0    0 -0.00000000000E+00 -0.00000000000E+00 -0.45593999997E+02  0.45594000000E+02  0.51100000000E-03 0. -1.
    9900012    2    1    2    0    0  0.33286232489E+02  0.27645838475E+02 -0.33701097286E+01  0.47787270768E+02  0.19999998739E+02 0.  0.
        -12    1    1    2    0    0 -0.33286232489E+02 -0.27645838475E+02  0.33701097286E+01  0.43400729232E+02  0.00000000000E+00 0.  1.
         11    1    3    3    0    0  0.24017256367E+02  0.19569264314E+02 -0.66480296969E+01  0.31685659348E+02  0.51100000000E-03 0. -1.
        -11    1    3    3    0    0  0.41343878331E+01  0.33070849448E+00  0.51595121923E+01  0.66199015995E+01  0.51100000000E-03 0.  1.
         12    1    3    3    0    0  0.51345882887E+01  0.77458656669E+01 -0.18815922241E+01  0.94817098206E+01  0.00000000000E+00 0. -1.
</event>
<event>
 7    1  0.2642243E-009  0.4778727E+02  0.7816164E-02  0.1312668E+00
        -11   -1    0    0    0    0  0.00000000000E+00  0.00000000000E+00  0.45593999997E+02  0.45594000000E+02  0.51100000000E-03 0. -1.
         11   -1    0    0    0    0 -0.00000000000E+00 -0.00000000000E+00 -0.45593999997E+02  0.45594000000E+02  0.51100000000E-03 0.  1.
    9900012    2    1    2    0    0  0.31352698509E+02  0.15981568251E+02  0.25401203217E+02  0.47787270140E+02  0.19999995876E+02 0.  0.
        -12    1    1    2    0    0 -0.31352698509E+02 -0.15981568251E+02 -0.25401203217E+02  0.43400729860E+02  0.00000000000E+00 0.  1.
         11    1    3    3    0    0  0.73030739824E+01  0.21928618950E+01  0.97350019637E+01  0.12365831811E+02  0.51100000000E-03 0. -1.
        -11    1    3    3    0    0  0.10646119151E+02 -0.18986926442E+01  0.30484211719E+01  0.11235557781E+02  0.51100000000E-03 0.  1.
        -12    1    3    3    0    0  0.13403505375E+02  0.15687399000E+02  0.12617780081E+02  0.24185880548E+02  0.00000000000E+00 0.  1.
</event>
<event>
 7    1  0.2642243E-009  0.4778727E+02  0.7816164E-02  0.1312668E+00
        -11   -1    0    0    0    0  0.00000000000E+00  0.00000000000E+00  0.45593999997E+02  0.45594000000E+02  0.51100000000E-03 0. -1.
         11   -1    0    0    0    0 -0.00000000000E+00 -0.00000000000E+00 -0.45593999997E+02  0.45594000000E+02  0.51100000000E-03 0.  1.
    9900012    2    1    2    0    0  0.37392053191E+02 -0.19814870543E+02  0.96347530664E+01  0.47787271859E+02  0.20000003715E+02 0.  0.
        -12    1    1    2    0    0 -0.37392053191E+02  0.19814870543E+02 -0.96347530664E+01  0.43400728141E+02  0.00000000000E+00 0.  1.
         11    1    3    3    0    0  0.25025085895E+02 -0.13649877421E+02  0.58223859368E+01  0.29094230630E+02  0.51100000000E-03 0. -1.
        -11    1    3    3    0    0 -0.24084583711E+01 -0.41198644946E+00  0.56826317180E+00  0.25086506041E+01  0.51100000000E-03 0.  1.
        -12    1    3    3    0    0  0.14775425668E+02 -0.57530066722E+01  0.32441039579E+01  0.16184390625E+02  0.00000000000E+00 0.  1.
</event>
<event>
 7    1  0.2642243E-009  0.4778727E+02  0.7816164E-02  0.1312668E+00
        -11   -1    0    0    0    0  0.00000000000E+00  0.00000000000E+00  0.45593999997E+02  0.45594000000E+02  0.51100000000E-03 0.  1.
         11   -1    0    0    0    0 -0.00000000000E+00 -0.00000000000E+00 -0.45593999997E+02  0.45594000000E+02  0.51100000000E-03 0. -1.
    9900012    2    1    2    0    0 -0.32234353756E+02 -0.27568523195E+02 -0.91948972259E+01  0.47787272262E+02  0.20000005551E+02 0.  0.
        -12    1    1    2    0    0  0.32234353756E+02  0.27568523195E+02  0.91948972259E+01  0.43400727738E+02  0.00000000000E+00 0.  1.
         11    1    3    3    0    0 -0.66848749940E+01 -0.53775868280E+00  0.34954898461E+01  0.75627500033E+01  0.51100000000E-03 0. -1.
        -11    1    3    3    0    0 -0.84655005617E+01 -0.38412195148E+01 -0.41619377513E+01  0.10185351895E+02  0.51100000000E-03 0.  1.
         12    1    3    3    0    0 -0.17083978200E+02 -0.23189544997E+02 -0.85284493207E+01  0.30039170364E+02  0.00000000000E+00 0. -1.
</event>
<event>
 7    1  0.2642243E-009  0.4778727E+02  0.7816164E-02  0.1312668E+00
        -11   -1    0    0    0    0  0.00000000000E+00  0.00000000000E+00  0.45593999997E+02  0.45594000000E+02  0.51100000000E-03 0.  1.
         11   -1    0    0    0    0 -0.00000000000E+00 -0.00000000000E+00 -0.45593999997E+02  0.45594000000E+02  0.51100000000E-03 0. -1.
    9900012    2    1    2    0    0  0.35065496653E+02 -0.25481933630E+02  0.21692017083E+01  0.47787269210E+02  0.19999991634E+02 0.  0.
        -12    1    1    2    0    0 -0.35065496653E+02  0.25481933630E+02 -0.21692017083E+01  0.43400730790E+02  0.00000000000E+00 0.  1.
         11    1    3    3    0    0  0.97104627821E+01 -0.17631587103E+01 -0.29531175523E+00  0.98736530916E+01  0.51100000000E-03 0. -1.
        -11    1    3    3    0    0  0.76747622127E+01 -0.16956422754E+02  0.35711258434E+01  0.18951917784E+02  0.51100000000E-03 0.  1.
        -12    1    3    3    0    0  0.17680271659E+02 -0.67623521656E+01 -0.11066123799E+01  0.18961698334E+02  0.00000000000E+00 0.  1.
</event>
<event>
 7    1  0.2642243E-009  0.4778726E+02  0.7816164E-02  0.1312668E+00
        -11   -1    0    0    0    0  0.00000000000E+00  0.00000000000E+00  0.45593999997E+02  0.45594000000E+02  0.51100000000E-03 0.  1.
         11   -1    0    0    0    0 -0.00000000000E+00 -0.00000000000E+00 -0.45593999997E+02  0.45594000000E+02  0.51100000000E-03 0. -1.
    9900012    2    1    2    0    0 -0.17996536596E+02  0.27843735721E+01 -0.39395385070E+02  0.47787257720E+02  0.19999939249E+02 0.  0.
        -12    1    1    2    0    0  0.17996536596E+02 -0.27843735721E+01  0.39395385070E+02  0.43400742280E+02  0.00000000000E+00 0.  1.
         11    1    3    3    0    0 -0.67885848011E+01  0.87254071346E+01 -0.20658223261E+02  0.23430318006E+02  0.51100000000E-03 0. -1.
        -11    1    3    3    0    0 -0.17890773898E+01 -0.65843611137E+00 -0.10768733824E+02  0.10936176866E+02  0.51100000000E-03 0.  1.
         12    1    3    3    0    0 -0.94188744048E+01 -0.52825974511E+01 -0.79684279849E+01  0.13420762848E+02  0.00000000000E+00 0. -1.
</event>
<event>
 7    1  0.2642243E-009  0.4778727E+02  0.7816164E-02  0.1312668E+00
        -11   -1    0    0    0    0  0.00000000000E+00  0.00000000000E+00  0.45593999997E+02  0.45594000000E+02  0.51100000000E-03 0.  1.
         11   -1    0    0    0    0 -0.00000000000E+00 -0.00000000000E+00 -0.45593999997E+02  0.45594000000E+02  0.51100000000E-03 0. -1.
    9900012    2    1    2    0    0  0.18648208928E+02  0.14767824840E+02 -0.36301224402E+02  0.47787271437E+02  0.20000001789E+02 0.  0.
        -12    1    1    2    0    0 -0.18648208928E+02 -0.14767824840E+02  0.36301224402E+02  0.43400728563E+02  0.00000000000E+00 0.  1.
         11    1    3    3    0    0  0.14849147558E+02  0.85139279285E+01 -0.16538083595E+02  0.23801100000E+02  0.51100000000E-03 0. -1.
        -11    1    3    3    0    0 -0.32608740371E+00  0.87596303064E+01 -0.12808329106E+02  0.15520655619E+02  0.51100000000E-03 0.  1.
        -12    1    3    3    0    0  0.41251487727E+01 -0.25057333955E+01 -0.69548117018E+01  0.84655158174E+01  0.00000000000E+00 0.  1.
</event>
<event>
 7    1  0.2642243E-009  0.4778727E+02  0.7816164E-02  0.1312668E+00
        -11   -1    0    0    0    0  0.00000000000E+00  0.00000000000E+00  0.45593999997E+02  0.45594000000E+02  0.51100000000E-03 0. -1.
         11   -1    0    0    0    0 -0.00000000000E+00 -0.00000000000E+00 -0.45593999997E+02  0.45594000000E+02  0.51100000000E-03 0.  1.
    9900012    2    1    2    0    0 -0.40254407177E+02  0.58524571169E+00  0.16213064498E+02  0.47787271087E+02  0.20000000196E+02 0.  0.
        -12    1    1    2    0    0  0.40254407177E+02 -0.58524571169E+00 -0.16213064498E+02  0.43400728913E+02  0.00000000000E+00 0.  1.
         11    1    3    3    0    0 -0.22490449767E+02  0.96126267213E+01  0.85237418997E+01  0.25901295324E+02  0.51100000000E-03 0. -1.
        -11    1    3    3    0    0 -0.10449866222E+02 -0.52258856277E+01  0.69860227297E+01  0.13613012103E+02  0.51100000000E-03 0.  1.
        -12    1    3    3    0    0 -0.73140911874E+01 -0.38014953819E+01  0.70329986894E+00  0.82729636614E+01  0.00000000000E+00 0.  1.
</event>
<event>
 7    1  0.2642243E-009  0.4778728E+02  0.7816164E-02  0.1312668E+00
        -11   -1    0    0    0    0  0.00000000000E+00  0.00000000000E+00  0.45593999997E+02  0.45594000000E+02  0.51100000000E-03 0.  1.
         11   -1    0    0    0    0 -0.00000000000E+00 -0.00000000000E+00 -0.45593999997E+02  0.45594000000E+02  0.51100000000E-03 0. -1.
    9900012    2    1    2    0    0 -0.75897734928E+01  0.61375560567E+01 -0.42288871271E+02  0.47787275474E+02  0.20000020195E+02 0.  0.
        -12    1    1    2    0    0  0.75897734928E+01 -0.61375560567E+01  0.42288871271E+02  0.43400724526E+02  0.00000000000E+00 0.  1.
         11    1    3    3    0    0 -0.13579662265E+02  0.59778472587E+01 -0.29309155200E+02  0.32850699595E+02  0.51100000000E-03 0. -1.
        -11    1    3    3    0    0  0.51536303798E+01  0.11902145205E+01 -0.67943717216E+01  0.86104589918E+01  0.51100000000E-03 0.  1.
         12    1    3    3    0    0  0.83625839261E+00 -0.10305057225E+01 -0.61853443495E+01  0.63261168868E+01  0.00000000000E+00 0. -1.
</event>
<event>
 7    1  0.2642243E-009  0.4778728E+02  0.7816164E-02  0.1312668E+00
        -11   -1    0    0    0    0  0.00000000000E+00  0.00000000000E+00  0.45593999997E+02  0.45594000000E+02  0.51100000000E-03 0.  1.
         11   -1    0    0    0    0 -0.00000000000E+00 -0.00000000000E+00 -0.45593999997E+02  0.45594000000E+02  0.51100000000E-03 0. -1.
    9900012    2    1    2    0    0  0.46317644096E+01  0.49446265481E+01 -0.42868636689E+02  0.47787278982E+02  0.20000036192E+02 0.  0.
        -12    1    1    2    0    0 -0.46317644096E+01 -0.49446265481E+01  0.42868636689E+02  0.43400721018E+02  0.00000000000E+00 0.  1.
         11    1    3    3    0    0  0.98794677931E+01  0.20484049003E+01 -0.27598131827E+02  0.29384634201E+02  0.51100000000E-03 0. -1.
        -11    1    3    3    0    0 -0.26616357901E+01  0.69854728192E+00  0.79701902427E-02  0.27517879950E+01  0.51100000000E-03 0.  1.
         12    1    3    3    0    0 -0.25860675934E+01  0.21976743659E+01 -0.15278475053E+02  0.15650856786E+02  0.00000000000E+00 0. -1.
</event>
<event>
 7    1  0.2642243E-009  0.4778727E+02  0.7816164E-02  0.1312668E+00
        -11   -1    0    0    0    0  0.00000000000E+00  0.00000000000E+00  0.45593999997E+02  0.45594000000E+02  0.51100000000E-03 0. -1.
         11   -1    0    0    0    0 -0.00000000000E+00 -0.00000000000E+00 -0.45593999997E+02  0.45594000000E+02  0.51100000000E-03 0.  1.
    9900012    2    1    2    0    0  0.77008203773E+01  0.40834863169E+02 -0.12523358653E+02  0.47787271936E+02  0.20000004066E+02 0.  0.
        -12    1    1    2    0    0 -0.77008203773E+01 -0.40834863169E+02  0.12523358653E+02  0.43400728064E+02  0.00000000000E+00 0.  1.
         11    1    3    3    0    0  0.50871691008E+01  0.16563981640E+02 -0.76377425845E+01  0.18936205778E+02  0.51100000000E-03 0. -1.
        -11    1    3    3    0    0  0.58255040405E+01  0.46548700774E+01  0.21579209521E+01  0.77627917568E+01  0.51100000000E-03 0.  1.
        -12    1    3    3    0    0 -0.32118527641E+01  0.19616011452E+02 -0.70435370206E+01  0.21088274401E+02  0.00000000000E+00 0.  1.
</event>
<event>
 7    1  0.2642243E-009  0.4778727E+02  0.7816164E-02  0.1312668E+00
        -11   -1    0    0    0    0  0.00000000000E+00  0.00000000000E+00  0.45593999997E+02  0.45594000000E+02  0.51100000000E-03 0. -1.
         11   -1    0    0    0    0 -0.00000000000E+00 -0.00000000000E+00 -0.45593999997E+02  0.45594000000E+02  0.51100000000E-03 0.  1.
    9900012    2    1    2    0    0  0.40991207540E+02 -0.61820407212E+01 -0.12850160180E+02  0.47787270286E+02  0.19999996540E+02 0.  0.
        -12    1    1    2    0    0 -0.40991207540E+02  0.61820407212E+01  0.12850160180E+02  0.43400729714E+02  0.00000000000E+00 0.  1.
         11    1    3    3    0    0  0.65875087058E+01 -0.19716246898E+01 -0.24329346152E+00  0.68805353597E+01  0.51100000000E-03 0. -1.
        -11    1    3    3    0    0  0.10983589615E+02 -0.87863382446E+01 -0.32653428203E+00  0.14069314321E+02  0.51100000000E-03 0.  1.
        -12    1    3    3    0    0  0.23420109220E+02  0.45759222131E+01 -0.12280332436E+02  0.26837420605E+02  0.00000000000E+00 0.  1.
</event>
<event>
 7    1  0.2642243E-009  0.4778727E+02  0.7816164E-02  0.1312668E+00
        -11   -1    0    0    0    0  0.00000000000E+00  0.00000000000E+00  0.45593999997E+02  0.45594000000E+02  0.51100000000E-03 0.  1.
         11   -1    0    0    0    0 -0.00000000000E+00 -0.00000000000E+00 -0.45593999997E+02  0.45594000000E+02  0.51100000000E-03 0. -1.
    9900012    2    1    2    0    0 -0.27845511511E+02 -0.98887249695E+01 -0.31787791268E+02  0.47787273433E+02  0.20000010891E+02 0.  0.
        -12    1    1    2    0    0  0.27845511511E+02  0.98887249695E+01  0.31787791268E+02  0.43400726567E+02  0.00000000000E+00 0.  1.
         11    1    3    3    0    0 -0.11704078293E+02 -0.96858668910E+01 -0.86104126995E+01  0.17462550593E+02  0.51100000000E-03 0. -1.
        -11    1    3    3    0    0 -0.32303898773E+01  0.46669073188E+01 -0.80426714709E+01  0.98437801342E+01  0.51100000000E-03 0.  1.
         12    1    3    3    0    0 -0.12911043341E+02 -0.48697653972E+01 -0.15134707098E+02  0.20480942706E+02  0.00000000000E+00 0. -1.
</event>
<event>
 7    1  0.2642243E-009  0.4778725E+02  0.7816164E-02  0.1312668E+00
        -11   -1    0    0    0    0  0.00000000000E+00  0.00000000000E+00  0.45593999997E+02  0.45594000000E+02  0.51100000000E-03 0. -1.
         11   -1    0    0    0    0 -0.00000000000E+00 -0.00000000000E+00 -0.45593999997E+02  0.45594000000E+02  0.51100000000E-03 0.  1.
    9900012    2    1    2    0    0  0.15576302170E+02  0.38308892041E+02  0.13169376566E+02  0.47787252566E+02  0.19999915748E+02 0.  0.
        -12    1    1    2    0    0 -0.15576302170E+02 -0.38308892041E+02 -0.13169376566E+02  0.43400747434E+02  0.00000000000E+00 0.  1.
         11    1    3    3    0    0  0.11563713687E+02  0.12268042430E+02  0.54336052968E+00  0.16867708209E+02  0.51100000000E-03 0. -1.
        -11    1    3    3    0    0  0.51443890120E+00  0.17781020040E+02  0.35121228167E+01  0.18131859474E+02  0.51100000000E-03 0.  1.
         12    1    3    3    0    0  0.34981495820E+01  0.82598295712E+01  0.91138932196E+01  0.12787684883E+02  0.00000000000E+00 0. -1.
</event>
<event>
 7    1  0.2642243E-009  0.4778727E+02  0.7816164E-02  0.1312668E+00
        -11   -1    0    0    0    0  0.00000000000E+00  0.00000000000E+00  0.45593999997E+02  0.45594000000E+02  0.51100000000E-03 0. -1.
         11   -1    0    0    0    0 -0.00000000000E+00 -0.00000000000E+00 -0.45593999997E+02  0.45594000000E+02  0.51100000000E-03 0.  1.
    9900012    2    1    2    0    0  0.42210108244E+02 -0.55767042607E+01 -0.84160775401E+01  0.47787271555E+02  0.20000002329E+02 0.  0.
        -12    1    1    2    0    0 -0.42210108244E+02  0.55767042607E+01  0.84160775401E+01  0.43400728445E+02  0.00000000000E+00 0.  1.
         11    1    3    3    0    0  0.23467079695E+02 -0.26164038245E+01  0.26768898396E+01  0.23763735772E+02  0.51100000000E-03 0. -1.
        -11    1    3    3    0    0  0.13580541651E+02  0.24835214552E+01 -0.72912005911E+01  0.15612834357E+02  0.51100000000E-03 0.  1.
        -12    1    3    3    0    0  0.51624868980E+01 -0.54438218913E+01 -0.38017667887E+01  0.84107014257E+01  0.00000000000E+00 0.  1.
</event>
<event>
 7    1  0.2642243E-009  0.4778727E+02  0.7816164E-02  0.1312668E+00
        -11   -1    0    0    0    0  0.00000000000E+00  0.00000000000E+00  0.45593999997E+02  0.45594000000E+02  0.51100000000E-03 0. -1.
         11   -1    0    0    0    0 -0.00000000000E+00 -0.00000000000E+00 -0.45593999997E+02  0.45594000000E+02  0.51100000000E-03 0.  1.
    9900012    2    1    2    0    0 -0.16762019263E+02  0.39651248995E+02  0.55169534105E+01  0.47787267154E+02  0.19999982264E+02 0.  0.
        -12    1    1    2    0    0  0.16762019263E+02 -0.39651248995E+02 -0.55169534105E+01  0.43400732846E+02  0.00000000000E+00 0.  1.
         11    1    3    3    0    0 -0.26492401977E+01  0.21155269840E+02 -0.42719667889E+00  0.21324784006E+02  0.51100000000E-03 0. -1.
        -11    1    3    3    0    0 -0.87237947043E+01  0.33740463351E+01  0.28039848014E-01  0.93535859011E+01  0.51100000000E-03 0.  1.
        -12    1    3    3    0    0 -0.53889843608E+01  0.15121932819E+02  0.59161102414E+01  0.17108897247E+02  0.00000000000E+00 0.  1.
</event>
<event>
 7    1  0.2642243E-009  0.4778728E+02  0.7816164E-02  0.1312668E+00
        -11   -1    0    0    0    0  0.00000000000E+00  0.00000000000E+00  0.45593999997E+02  0.45594000000E+02  0.51100000000E-03 0.  1.
         11   -1    0    0    0    0 -0.00000000000E+00 -0.00000000000E+00 -0.45593999997E+02  0.45594000000E+02  0.51100000000E-03 0. -1.
    9900012    2    1    2    0    0 -0.18633642335E+02 -0.89106767571E+01 -0.38170799282E+02  0.47787277601E+02  0.20000029892E+02 0.  0.
        -12    1    1    2    0    0  0.18633642335E+02  0.89106767571E+01  0.38170799282E+02  0.43400722399E+02  0.00000000000E+00 0.  1.
         11    1    3    3    0    0 -0.45549081766E+01 -0.11958414884E+01 -0.88421847443E+01  0.10018056532E+02  0.51100000000E-03 0. -1.
        -11    1    3    3    0    0  0.16665804625E+01  0.32574487291E+01 -0.94719781819E+01  0.10154153515E+02  0.51100000000E-03 0.  1.
        -12    1    3    3    0    0 -0.15745314621E+02 -0.10972283998E+02 -0.19856636356E+02  0.27615067554E+02  0.00000000000E+00 0.  1.
</event>
<event>
 7    1  0.2642243E-009  0.4778730E+02  0.7816164E-02  0.1312668E+00
        -11   -1    0    0    0    0  0.00000000000E+00  0.00000000000E+00  0.45593999997E+02  0.45594000000E+02  0.51100000000E-03 0. -1.
         11   -1    0    0    0    0 -0.00000000000E+00 -0.00000000000E+00 -0.45593999997E+02  0.45594000000E+02  0.51100000000E-03 0.  1.
    9900012    2    1    2    0    0 -0.17099526252E+02  0.18145405265E+02  0.35524230444E+02  0.47787303244E+02  0.20000146810E+02 0.  0.
        -12    1    1    2    0    0  0.17099526252E+02 -0.18145405265E+02 -0.35524230444E+02  0.43400696756E+02  0.00000000000E+00 0.  1.
         11    1    3    3    0    0 -0.28045386679E+01  0.71669361205E+01  0.26579724347E+01  0.81421881715E+01  0.51100000000E-03 0. -1.
        -11    1    3    3    0    0 -0.15162992729E+02  0.11790574441E+02  0.33247321120E+02  0.38396853466E+02  0.51100000000E-03 0.  1.
        -12    1    3    3    0    0  0.86800514497E+00 -0.81210529657E+00 -0.38106311073E+00  0.12482616067E+01  0.00000000000E+00 0.  1.
</event>
<event>
 7    1  0.3326405E-009  0.4778727E+02  0.7816164E-02  0.1312668E+00
        -11   -1    0    0    0    0  0.00000000000E+00  0.00000000000E+00  0.45593999997E+02  0.45594000000E+02  0.51100000000E-03 0. -1.
         11   -1    0    0    0    0 -0.00000000000E+00 -0.00000000000E+00 -0.45593999997E+02  0.45594000000E+02  0.51100000000E-03 0.  1.
    9900012    2    1    2    0    0  0.30071830083E+02 -0.88416143876E+01  0.30018896267E+02  0.47787271405E+02  0.20000001642E+02 0.  0.
        -12    1    1    2    0    0 -0.30071830083E+02  0.88416143876E+01 -0.30018896267E+02  0.43400728595E+02  0.00000000000E+00 0.  1.
         11    1    3    3    0    0  0.22910806269E+02 -0.79161864256E+01  0.18242957245E+02  0.30337708231E+02  0.51100000000E-03 0. -1.
        -11    1    3    3    0    0  0.50815628428E+01  0.43570387625E+01  0.87491094449E+01  0.11016033045E+02  0.51100000000E-03 0.  1.
        -12    1    3    3    0    0  0.20794609715E+01 -0.52824667245E+01  0.30268295771E+01  0.64335301287E+01  0.00000000000E+00 0.  1.
</event>
<event>
 7    1  0.2642243E-009  0.4778727E+02  0.7816164E-02  0.1312668E+00
        -11   -1    0    0    0    0  0.00000000000E+00  0.00000000000E+00  0.45593999997E+02  0.45594000000E+02  0.51100000000E-03 0. -1.
         11   -1    0    0    0    0 -0.00000000000E+00 -0.00000000000E+00 -0.45593999997E+02  0.45594000000E+02  0.51100000000E-03 0.  1.
    9900012    2    1    2    0    0  0.35393533288E+02  0.13033618000E+02  0.21471983437E+02  0.47787268791E+02  0.19999989724E+02 0.  0.
        -12    1    1    2    0    0 -0.35393533288E+02 -0.13033618000E+02 -0.21471983437E+02  0.43400731209E+02  0.00000000000E+00 0.  1.
         11    1    3    3    0    0  0.77162310611E+01 -0.31630230587E+01  0.95255510303E+01  0.12660215612E+02  0.51100000000E-03 0. -1.
        -11    1    3    3    0    0  0.21248175046E+02  0.15026251939E+02  0.11840401494E+02  0.28591402517E+02  0.51100000000E-03 0.  1.
        -12    1    3    3    0    0  0.64291271814E+01  0.11703891199E+01  0.10603091265E+00  0.65356506609E+01  0.00000000000E+00 0.  1.
</event>
<event>
 7    1  0.2642243E-009  0.4778727E+02  0.7816164E-02  0.1312668E+00
        -11   -1    0    0    0    0  0.00000000000E+00  0.00000000000E+00  0.45593999997E+02  0.45594000000E+02  0.51100000000E-03 0.  1.
         11   -1    0    0    0    0 -0.00000000000E+00 -0.00000000000E+00 -0.45593999997E+02  0.45594000000E+02  0.51100000000E-03 0. -1.
    9900012    2    1    2    0    0 -0.40805313924E+02  0.27410407603E+00  0.14780881782E+02  0.47787271392E+02  0.20000001585E+02 0.  0.
        -12    1    1    2    0    0  0.40805313924E+02 -0.27410407603E+00 -0.14780881782E+02  0.43400728608E+02  0.00000000000E+00 0.  1.
         11    1    3    3    0    0 -0.67543829188E+00  0.24077421852E+01  0.35993825497E+01  0.43828066712E+01  0.51100000000E-03 0.  1.
        -11    1    3    3    0    0 -0.29192943595E+02 -0.64686583945E+01  0.57605392857E+01  0.30450867151E+02  0.51100000000E-03 0. -1.
         12    1    3    3    0    0 -0.10936932037E+02  0.43350202854E+01  0.54209599463E+01  0.12953597570E+02  0.00000000000E+00 0. -1.
</event>
<event>
 7    1  0.2642243E-009  0.4778727E+02  0.7816164E-02  0.1312668E+00
        -11   -1    0    0    0    0  0.00000000000E+00  0.00000000000E+00  0.45593999997E+02  0.45594000000E+02  0.51100000000E-03 0.  1.
         11   -1    0    0    0    0 -0.00000000000E+00 -0.00000000000E+00 -0.45593999997E+02  0.45594000000E+02  0.51100000000E-03 0. -1.
    9900012    2    1    2    0    0  0.84099813627E+01 -0.31411097609E+02 -0.28744363116E+02  0.47787271314E+02  0.20000001229E+02 0.  0.
        -12    1    1    2    0    0 -0.84099813627E+01  0.31411097609E+02  0.28744363116E+02  0.43400728686E+02  0.00000000000E+00 0.  1.
         11    1    3    3    0    0 -0.15569743727E+01 -0.26471675354E+00  0.14355800055E+01  0.21342760764E+01  0.51100000000E-03 0. -1.
        -11    1    3    3    0    0  0.19895643031E+01 -0.15977543347E+01  0.16026066835E+00  0.25567300939E+01  0.51100000000E-03 0.  1.
         12    1    3    3    0    0  0.79773914323E+01 -0.29548626520E+02 -0.30340203790E+02  0.43096265144E+02  0.00000000000E+00 0. -1.
</event>
<event>
 7    1  0.2642243E-009  0.4778729E+02  0.7816164E-02  0.1312668E+00
        -11   -1    0    0    0    0  0.00000000000E+00  0.00000000000E+00  0.45593999997E+02  0.45594000000E+02  0.51100000000E-03 0. -1.
         11   -1    0    0    0    0 -0.00000000000E+00 -0.00000000000E+00 -0.45593999997E+02  0.45594000000E+02  0.51100000000E-03 0.  1.
    9900012    2    1    2    0    0 -0.32315634118E+02  0.89138241505E+01 -0.27565657875E+02  0.47787286140E+02  0.20000068827E+02 0.  0.
        -12    1    1    2    0    0  0.32315634118E+02 -0.89138241505E+01  0.27565657875E+02  0.43400713860E+02  0.00000000000E+00 0.  1.
         11    1    3    3    0    0 -0.11787433426E+02 -0.92429950848E+00 -0.94327633661E+00  0.11861184042E+02  0.51100000000E-03 0. -1.
        -11    1    3    3    0    0 -0.27995816208E+01 -0.12976344624E+01 -0.46118152104E+01  0.55489054998E+01  0.51100000000E-03 0.  1.
         12    1    3    3    0    0 -0.17728619071E+02  0.11135758121E+02 -0.22010566328E+02  0.30377196599E+02  0.00000000000E+00 0. -1.
</event>
<event>
 7    1  0.2642243E-009  0.4778727E+02  0.7816164E-02  0.1312668E+00
        -11   -1    0    0    0    0  0.00000000000E+00  0.00000000000E+00  0.45593999997E+02  0.45594000000E+02  0.51100000000E-03 0.  1.
         11   -1    0    0    0    0 -0.00000000000E+00 -0.00000000000E+00 -0.45593999997E+02  0.45594000000E+02  0.51100000000E-03 0. -1.
    9900012    2    1    2    0    0 -0.21408331388E+02  0.35241606156E+02  0.13540163626E+02  0.47787268574E+02  0.19999988738E+02 0.  0.
        -12    1    1    2    0    0  0.21408331388E+02 -0.35241606156E+02 -0.13540163626E+02  0.43400731426E+02  0.00000000000E+00 0.  1.
         11    1    3    3    0    0 -0.22191499107E+02  0.29862722324E+02  0.87568430271E+01  0.38222076308E+02  0.51100000000E-03 0. -1.
        -11    1    3    3    0    0  0.30020843139E+01  0.73969994005E+00  0.13004091865E+01  0.33542108673E+01  0.51100000000E-03 0.  1.
        -12    1    3    3    0    0 -0.22189165947E+01  0.46391838916E+01  0.34829114127E+01  0.62109813993E+01  0.00000000000E+00 0.  1.
</event>
<event>
 7    1  0.2642243E-009  0.4778727E+02  0.7816164E-02  0.1312668E+00
        -11   -1    0    0    0    0  0.00000000000E+00  0.00000000000E+00  0.45593999997E+02  0.45594000000E+02  0.51100000000E-03 0. -1.
         11   -1    0    0    0    0 -0.00000000000E+00 -0.00000000000E+00 -0.45593999997E+02  0.45594000000E+02  0.51100000000E-03 0.  1.
    9900012    2    1    2    0    0  0.37957126529E+01 -0.16213210802E+02  0.40079267478E+02  0.47787270506E+02  0.19999997545E+02 0.  0.
        -12    1    1    2    0    0 -0.37957126529E+01  0.16213210802E+02 -0.40079267478E+02  0.43400729494E+02  0.00000000000E+00 0.  1.
         11    1    3    3    0    0 -0.33706651373E+01 -0.48128560233E+01  0.10227051404E+02  0.11794810183E+02  0.51100000000E-03 0. -1.
        -11    1    3    3    0    0  0.57402021937E+01 -0.82380236327E+01  0.30800802366E+02  0.32396055026E+02  0.51100000000E-03 0.  1.
        -12    1    3    3    0    0  0.14261755964E+01 -0.31623311459E+01 -0.94858629212E+00  0.35964052972E+01  0.00000000000E+00 0.  1.
</event>
<event>
 7    1  0.2642243E-009  0.4778733E+02  0.7816164E-02  0.1312668E+00
        -11   -1    0    0    0    0  0.00000000000E+00  0.00000000000E+00  0.45593999997E+02  0.45594000000E+02  0.51100000000E-03 0. -1.
         11   -1    0    0    0    0 -0.00000000000E+00 -0.00000000000E+00 -0.45593999997E+02  0.45594000000E+02  0.51100000000E-03 0.  1.
    9900012    2    1    2    0    0  0.74063047158E+00  0.37272609067E+02  0.22222117289E+02  0.47787326999E+02  0.20000255117E+02 0.  0.
        -12    1    1    2    0    0 -0.74063047158E+00 -0.37272609067E+02 -0.22222117289E+02  0.43400673001E+02  0.00000000000E+00 0.  1.
         11    1    3    3    0    0 -0.42111425768E+01  0.29459868118E+01 -0.19308938786E+01  0.54900739092E+01  0.51100000000E-03 0.  1.
        -11    1    3    3    0    0  0.36034208490E+01  0.23472536457E+02  0.15607396076E+02  0.28417167735E+02  0.51100000000E-03 0. -1.
        -12    1    3    3    0    0  0.13483521993E+01  0.10854085798E+02  0.85456150910E+01  0.13880085355E+02  0.00000000000E+00 0.  1.
</event>
<event>
 7    1  0.2642243E-009  0.4778727E+02  0.7816164E-02  0.1312668E+00
        -11   -1    0    0    0    0  0.00000000000E+00  0.00000000000E+00  0.45593999997E+02  0.45594000000E+02  0.51100000000E-03 0. -1.
         11   -1    0    0    0    0 -0.00000000000E+00 -0.00000000000E+00 -0.45593999997E+02  0.45594000000E+02  0.51100000000E-03 0.  1.
    9900012    2    1    2    0    0 -0.20315411784E+02  0.29497174712E+02  0.24511704661E+02  0.47787274921E+02  0.20000017677E+02 0.  0.
        -12    1    1    2    0    0  0.20315411784E+02 -0.29497174712E+02 -0.24511704661E+02  0.43400725079E+02  0.00000000000E+00 0.  1.
         11    1    3    3    0    0 -0.96743642605E+01  0.17366302718E+02  0.35950030466E+01  0.20201629664E+02  0.51100000000E-03 0. -1.
        -11    1    3    3    0    0 -0.29164053180E+01  0.57561797732E+01  0.13995620794E+02  0.15411567968E+02  0.51100000000E-03 0.  1.
         12    1    3    3    0    0 -0.77246422056E+01  0.63746922215E+01  0.69210808199E+01  0.12174077289E+02  0.00000000000E+00 0. -1.
</event>
<event>
 7    1  0.2642243E-009  0.4778727E+02  0.7816164E-02  0.1312668E+00
        -11   -1    0    0    0    0  0.00000000000E+00  0.00000000000E+00  0.45593999997E+02  0.45594000000E+02  0.51100000000E-03 0.  1.
         11   -1    0    0    0    0 -0.00000000000E+00 -0.00000000000E+00 -0.45593999997E+02  0.45594000000E+02  0.51100000000E-03 0. -1.
    9900012    2    1    2    0    0  0.54685619289E+01 -0.25563179927E+01 -0.42978868533E+02  0.47787273374E+02  0.20000010622E+02 0.  0.
        -12    1    1    2    0    0 -0.54685619289E+01  0.25563179927E+01  0.42978868533E+02  0.43400726626E+02  0.00000000000E+00 0.  1.
         11    1    3    3    0    0  0.37669752786E+01  0.10098005230E+01 -0.25822638563E+02  0.26115483194E+02  0.51100000000E-03 0. -1.
        -11    1    3    3    0    0  0.49073709308E+00 -0.47898526158E+01 -0.40455859680E+00  0.48318918546E+01  0.51100000000E-03 0.  1.
        -12    1    3    3    0    0  0.12108495572E+01  0.12237341002E+01 -0.16751671374E+02  0.16839898325E+02  0.00000000000E+00 0.  1.
</event>
<event>
 7    1  0.2642243E-009  0.4778727E+02  0.7816164E-02  0.1312668E+00
        -11   -1    0    0    0    0  0.00000000000E+00  0.00000000000E+00  0.45593999997E+02  0.45594000000E+02  0.51100000000E-03 0.  1.
         11   -1    0    0    0    0 -0.00000000000E+00 -0.00000000000E+00 -0.45593999997E+02  0.45594000000E+02  0.51100000000E-03 0. -1.
    9900012    2    1    2    0    0  0.30142143159E+02 -0.30174134618E+02  0.80371798939E+01  0.47787268960E+02  0.19999990496E+02 0.  0.
        -12    1    1    2    0    0 -0.30142143159E+02  0.30174134618E+02 -0.80371798939E+01  0.43400731040E+02  0.00000000000E+00 0.  1.
         11    1    3    3    0    0  0.28243984153E+01  0.14379502513E+01 -0.26406732207E+01  0.41252978866E+01  0.51100000000E-03 0. -1.
        -11    1    3    3    0    0  0.72724665420E+01 -0.12528825009E+02  0.55569045110E+01  0.15515779507E+02  0.51100000000E-03 0.  1.
         12    1    3    3    0    0  0.20045278202E+02 -0.19083259860E+02  0.51209486036E+01  0.28146191566E+02  0.00000000000E+00 0. -1.
</event>
<event>
 7    1  0.2642243E-009  0.4778728E+02  0.7816164E-02  0.1312668E+00
        -11   -1    0    0    0    0  0.00000000000E+00  0.00000000000E+00  0.45593999997E+02  0.45594000000E+02  0.51100000000E-03 0.  1.
         11   -1    0    0    0    0 -0.00000000000E+00 -0.00000000000E+00 -0.45593999997E+02  0.45594000000E+02  0.51100000000E-03 0. -1.
    9900012    2    1    2    0    0 -0.11143509954E+01  0.43305355656E+02 -0.26507793062E+01  0.47787282984E+02  0.20000054436E+02 0.  0.
        -12    1    1    2    0    0  0.11143509954E+01 -0.43305355656E+02  0.26507793062E+01  0.43400717016E+02  0.00000000000E+00 0.  1.
         11    1    3    3    0    0 -0.55777147644E+01  0.35649407891E+02 -0.61709556874E+01  0.36606992220E+02  0.51100000000E-03 0. -1.
        -11    1    3    3    0    0  0.34510968166E+01  0.13428460775E+01 -0.32829659590E+00  0.37176718173E+01  0.51100000000E-03 0.  1.
         12    1    3    3    0    0  0.10122669525E+01  0.63131016866E+01  0.38484729771E+01  0.74626189468E+01  0.00000000000E+00 0. -1.
</event>
<event>
 7    1  0.2642243E-009  0.4778727E+02  0.7816164E-02  0.1312668E+00
        -11   -1    0    0    0    0  0.00000000000E+00  0.00000000000E+00  0.45593999997E+02  0.45594000000E+02  0.51100000000E-03 0.  1.
         11   -1    0    0    0    0 -0.00000000000E+00 -0.00000000000E+00 -0.45593999997E+02  0.45594000000E+02  0.51100000000E-03 0. -1.
    9900012    2    1    2    0    0 -0.37856193965E+02 -0.19211841267E+01 -0.21138616249E+02  0.47787268821E+02  0.19999989861E+02 0.  0.
        -12    1    1    2    0    0  0.37856193965E+02  0.19211841267E+01  0.21138616249E+02  0.43400731179E+02  0.00000000000E+00 0.  1.
         11    1    3    3    0    0 -0.31868548970E+02 -0.60105811349E+01 -0.12453534936E+02  0.34739344146E+02  0.51100000000E-03 0. -1.
        -11    1    3    3    0    0 -0.11834114541E+01  0.41892918959E+01 -0.19393435739E+01  0.47656776032E+01  0.51100000000E-03 0.  1.
        -12    1    3    3    0    0 -0.48042335405E+01 -0.99894887663E-01 -0.67457377391E+01  0.82822470710E+01  0.00000000000E+00 0.  1.
</event>
<event>
 7    1  0.2642243E-009  0.4778727E+02  0.7816164E-02  0.1312668E+00
        -11   -1    0    0    0    0  0.00000000000E+00  0.00000000000E+00  0.45593999997E+02  0.45594000000E+02  0.51100000000E-03 0. -1.
         11   -1    0    0    0    0 -0.00000000000E+00 -0.00000000000E+00 -0.45593999997E+02  0.45594000000E+02  0.51100000000E-03 0.  1.
    9900012    2    1    2    0    0 -0.10425651003E+02 -0.40863530061E+02  0.10251888290E+02  0.47787268424E+02  0.19999988050E+02 0.  0.
        -12    1    1    2    0    0  0.10425651003E+02  0.40863530061E+02 -0.10251888290E+02  0.43400731576E+02  0.00000000000E+00 0.  1.
         11    1    3    3    0    0 -0.60804127855E+00 -0.76789749864E+01  0.56366413805E+01  0.95450561733E+01  0.51100000000E-03 0. -1.
        -11    1    3    3    0    0  0.25101759215E+01 -0.64621719478E-01  0.10544962941E+01  0.27234393363E+01  0.51100000000E-03 0.  1.
        -12    1    3    3    0    0 -0.12327785646E+02 -0.33119933355E+02  0.35607506154E+01  0.35518772914E+02  0.00000000000E+00 0.  1.
</event>
<event>
 7    1  0.2642243E-009  0.4778727E+02  0.7816164E-02  0.1312668E+00
        -11   -1    0    0    0    0  0.00000000000E+00  0.00000000000E+00  0.45593999997E+02  0.45594000000E+02  0.51100000000E-03 0.  1.
         11   -1    0    0    0    0 -0.00000000000E+00 -0.00000000000E+00 -0.45593999997E+02  0.45594000000E+02  0.51100000000E-03 0. -1.
    9900012    2    1    2    0    0 -0.64553270483E+01  0.34366370210E+02 -0.25708066323E+02  0.47787270481E+02  0.19999997433E+02 0.  0.
        -12    1    1    2    0    0  0.64553270483E+01 -0.34366370210E+02  0.25708066323E+02  0.43400729519E+02  0.00000000000E+00 0.  1.
         11    1    3    3    0    0 -0.22733481122E+01  0.25239622774E+01 -0.41529883344E+01  0.53652408691E+01  0.51100000000E-03 0.  1.
        -11    1    3    3    0    0 -0.45367004483E+01  0.81049542977E+01 -0.15254988463E+02  0.17860196203E+02  0.51100000000E-03 0. -1.
        -12    1    3    3    0    0  0.35472151221E+00  0.23737453635E+02 -0.63000895252E+01  0.24561833410E+02  0.00000000000E+00 0.  1.
</event>
<event>
 7    1  0.2642243E-009  0.4778727E+02  0.7816164E-02  0.1312668E+00
        -11   -1    0    0    0    0  0.00000000000E+00  0.00000000000E+00  0.45593999997E+02  0.45594000000E+02  0.51100000000E-03 0.  1.
         11   -1    0    0    0    0 -0.00000000000E+00 -0.00000000000E+00 -0.45593999997E+02  0.45594000000E+02  0.51100000000E-03 0. -1.
    9900012    2    1    2    0    0 -0.20822786065E+00  0.15850216747E+02 -0.40402359910E+02  0.47787269406E+02  0.19999992530E+02 0.  0.
        -12    1    1    2    0    0  0.20822786065E+00 -0.15850216747E+02  0.40402359910E+02  0.43400730594E+02  0.00000000000E+00 0.  1.
         11    1    3    3    0    0  0.18684290945E+00  0.18857722408E+02 -0.36470492145E+02  0.41057829975E+02  0.51100000000E-03 0. -1.
        -11    1    3    3    0    0  0.17636316287E+01 -0.78567444752E+00 -0.29674750125E+00  0.19533919729E+01  0.51100000000E-03 0.  1.
         12    1    3    3    0    0 -0.21587023988E+01 -0.22218312137E+01 -0.36351202642E+01  0.47760474583E+01  0.00000000000E+00 0. -1.
</event>
<event>
 7    1  0.2642243E-009  0.4778727E+02  0.7816164E-02  0.1312668E+00
        -11   -1    0    0    0    0  0.00000000000E+00  0.00000000000E+00  0.45593999997E+02  0.45594000000E+02  0.51100000000E-03 0. -1.
         11   -1    0    0    0    0 -0.00000000000E+00 -0.00000000000E+00 -0.45593999997E+02  0.45594000000E+02  0.51100000000E-03 0.  1.
    9900012    2    1    2    0    0 -0.11823556375E+02  0.41133263759E+02 -0.72028867188E+01  0.47787269017E+02  0.19999990754E+02 0.  0.
        -12    1    1    2    0    0  0.11823556375E+02 -0.41133263759E+02  0.72028867188E+01  0.43400730983E+02  0.00000000000E+00 0.  1.
         11    1    3    3    0    0 -0.17013839611E+01  0.15040858923E+02 -0.86908952290E+01  0.17454334839E+02  0.51100000000E-03 0. -1.
        -11    1    3    3    0    0 -0.97319659563E+00  0.16597275373E+02  0.35125110001E+01  0.16992774795E+02  0.51100000000E-03 0.  1.
         12    1    3    3    0    0 -0.91489758187E+01  0.94951294625E+01 -0.20245024900E+01  0.13340159383E+02  0.00000000000E+00 0. -1.
</event>
<event>
 7    1  0.2642243E-009  0.4778727E+02  0.7816164E-02  0.1312668E+00
        -11   -1    0    0    0    0  0.00000000000E+00  0.00000000000E+00  0.45593999997E+02  0.45594000000E+02  0.51100000000E-03 0. -1.
         11   -1    0    0    0    0 -0.00000000000E+00 -0.00000000000E+00 -0.45593999997E+02  0.45594000000E+02  0.51100000000E-03 0.  1.
    9900012    2    1    2    0    0 -0.27573923824E+02 -0.22847291417E+02  0.24521492586E+02  0.47787267301E+02  0.19999982934E+02 0.  0.
        -12    1    1    2    0    0  0.27573923824E+02  0.22847291417E+02 -0.24521492586E+02  0.43400732699E+02  0.00000000000E+00 0.  1.
         11    1    3    3    0    0 -0.38750100245E+01  0.99391542143E+00  0.22094977122E+01  0.45700602793E+01  0.51100000000E-03 0. -1.
        -11    1    3    3    0    0 -0.90040207459E+01 -0.20960479653E+00  0.73318372738E+01  0.11613447457E+02  0.51100000000E-03 0.  1.
        -12    1    3    3    0    0 -0.14694893053E+02 -0.23631602042E+02  0.14980157600E+02  0.31603759565E+02  0.00000000000E+00 0.  1.
</event>
<event>
 7    1  0.2642243E-009  0.4778727E+02  0.7816164E-02  0.1312668E+00
        -11   -1    0    0    0    0  0.00000000000E+00  0.00000000000E+00  0.45593999997E+02  0.45594000000E+02  0.51100000000E-03 0.  1.
         11   -1    0    0    0    0 -0.00000000000E+00 -0.00000000000E+00 -0.45593999997E+02  0.45594000000E+02  0.51100000000E-03 0. -1.
    9900012    2    1    2    0    0 -0.36274818655E+02 -0.23761369238E+02  0.17770999988E+01  0.47787271654E+02  0.20000002781E+02 0.  0.
        -12    1    1    2    0    0  0.36274818655E+02  0.23761369238E+02 -0.17770999988E+01  0.43400728346E+02  0.00000000000E+00 0.  1.
         11    1    3    3    0    0 -0.11282437912E+02 -0.96001231809E+01 -0.32391059004E+01  0.15164022475E+02  0.51100000000E-03 0. -1.
        -11    1    3    3    0    0 -0.86886188765E+01 -0.95242351774E+01  0.83340832929E+01  0.15351224651E+02  0.51100000000E-03 0.  1.
        -12    1    3    3    0    0 -0.16303761867E+02 -0.46370108800E+01 -0.33178773936E+01  0.17272024529E+02  0.00000000000E+00 0.  1.
</event>
<event>
 7    1  0.2642243E-009  0.4778728E+02  0.7816164E-02  0.1312668E+00
        -11   -1    0    0    0    0  0.00000000000E+00  0.00000000000E+00  0.45593999997E+02  0.45594000000E+02  0.51100000000E-03 0.  1.
         11   -1    0    0    0    0 -0.00000000000E+00 -0.00000000000E+00 -0.45593999997E+02  0.45594000000E+02  0.51100000000E-03 0. -1.
    9900012    2    1    2    0    0 -0.19310300695E+02 -0.35151618788E+01 -0.38708889897E+02  0.47787283035E+02  0.20000054672E+02 0.  0.
        -12    1    1    2    0    0  0.19310300695E+02  0.35151618788E+01  0.38708889897E+02  0.43400716965E+02  0.00000000000E+00 0.  1.
         11    1    3    3    0    0  0.11985256122E+01  0.54334935855E+00  0.13318888225E+01  0.18723301699E+01  0.51100000000E-03 0.  1.
        -11    1    3    3    0    0 -0.17181475260E+02 -0.31371055558E+01 -0.38197560956E+02  0.42001168872E+02  0.51100000000E-03 0. -1.
         12    1    3    3    0    0 -0.33273510478E+01 -0.92140568157E+00 -0.18432177637E+01  0.39137839938E+01  0.00000000000E+00 0. -1.
</event>
<event>
 7    1  0.2642243E-009  0.4778727E+02  0.7816164E-02  0.1312668E+00
        -11   -1    0    0    0    0  0.00000000000E+00  0.00000000000E+00  0.45593999997E+02  0.45594000000E+02  0.51100000000E-03 0.  1.
         11   -1    0    0    0    0 -0.00000000000E+00 -0.00000000000E+00 -0.45593999997E+02  0.45594000000E+02  0.51100000000E-03 0. -1.
    9900012    2    1    2    0    0  0.13775356258E+02  0.47337131657E+01 -0.40883427865E+02  0.47787272421E+02  0.20000006276E+02 0.  0.
        -12    1    1    2    0    0 -0.13775356258E+02 -0.47337131657E+01  0.40883427865E+02  0.43400727579E+02  0.00000000000E+00 0.  1.
         11    1    3    3    0    0 -0.10349149075E+01 -0.28663032929E+01 -0.22106362494E+02  0.22315420820E+02  0.51100000000E-03 0. -1.
        -11    1    3    3    0    0  0.12116187057E+02  0.47845876123E+01 -0.12318209793E+02  0.17928540381E+02  0.51100000000E-03 0.  1.
         12    1    3    3    0    0  0.26940841085E+01  0.28154288463E+01 -0.64588555788E+01  0.75433112199E+01  0.00000000000E+00 0. -1.
</event>
<event>
 7    1  0.2642243E-009  0.4778727E+02  0.7816164E-02  0.1312668E+00
        -11   -1    0    0    0    0  0.00000000000E+00  0.00000000000E+00  0.45593999997E+02  0.45594000000E+02  0.51100000000E-03 0.  1.
         11   -1    0    0    0    0 -0.00000000000E+00 -0.00000000000E+00 -0.45593999997E+02  0.45594000000E+02  0.51100000000E-03 0. -1.
    9900012    2    1    2    0    0  0.18513617892E+02 -0.29086919721E+02  0.26359444521E+02  0.47787271183E+02  0.20000000633E+02 0.  0.
        -12    1    1    2    0    0 -0.18513617892E+02  0.29086919721E+02 -0.26359444521E+02  0.43400728817E+02  0.00000000000E+00 0.  1.
         11    1    3    3    0    0 -0.11817923030E+01 -0.99717650261E+01  0.18771141149E+01  0.10215492570E+02  0.51100000000E-03 0. -1.
        -11    1    3    3    0    0  0.12250422553E+02 -0.10493882737E+02  0.93945213464E+01  0.18666854562E+02  0.51100000000E-03 0.  1.
         12    1    3    3    0    0  0.74449876422E+01 -0.86212719579E+01  0.15087809060E+02  0.18904924052E+02  0.00000000000E+00 0. -1.
</event>
<event>
 7    1  0.2642243E-009  0.4778726E+02  0.7816164E-02  0.1312668E+00
        -11   -1    0    0    0    0  0.00000000000E+00  0.00000000000E+00  0.45593999997E+02  0.45594000000E+02  0.51100000000E-03 0. -1.
         11   -1    0    0    0    0 -0.00000000000E+00 -0.00000000000E+00 -0.45593999997E+02  0.45594000000E+02  0.51100000000E-03 0.  1.
    9900012    2    1    2    0    0 -0.33296147216E+02  0.15866815720E+02  0.22874328839E+02  0.47787260601E+02  0.19999952383E+02 0.  0.
        -12    1    1    2    0    0  0.33296147216E+02 -0.15866815720E+02 -0.22874328839E+02  0.43400739399E+02  0.00000000000E+00 0.  1.
         11    1    3    3    0    0 -0.19353770524E+02  0.10075925398E+02  0.26681881990E+01  0.21982082127E+02  0.51100000000E-03 0. -1.
        -11    1    3    3    0    0 -0.13184149037E+02  0.35361479658E+01  0.16712277500E+02  0.21578376856E+02  0.51100000000E-03 0.  1.
        -12    1    3    3    0    0 -0.75822765607E+00  0.22547423557E+01  0.34938631403E+01  0.42268016173E+01  0.00000000000E+00 0.  1.
</event>
<event>
 7    1  0.2642243E-009  0.4778727E+02  0.7816164E-02  0.1312668E+00
        -11   -1    0    0    0    0  0.00000000000E+00  0.00000000000E+00  0.45593999997E+02  0.45594000000E+02  0.51100000000E-03 0.  1.
         11   -1    0    0    0    0 -0.00000000000E+00 -0.00000000000E+00 -0.45593999997E+02  0.45594000000E+02  0.51100000000E-03 0. -1.
    9900012    2    1    2    0    0  0.64036048030E+01  0.34345681916E+02 -0.25748620467E+02  0.47787268708E+02  0.19999989348E+02 0.  0.
        -12    1    1    2    0    0 -0.64036048030E+01 -0.34345681916E+02  0.25748620467E+02  0.43400731292E+02  0.00000000000E+00 0.  1.
         11    1    3    3    0    0  0.15105217517E+01  0.27227280279E+02 -0.19522889102E+02  0.33537287703E+02  0.51100000000E-03 0. -1.
        -11    1    3    3    0    0 -0.25381149539E+01  0.23809434684E+01 -0.35351594074E-01  0.34802542027E+01  0.51100000000E-03 0.  1.
         12    1    3    3    0    0  0.74311980052E+01  0.47374581685E+01 -0.61903797710E+01  0.10769726803E+02  0.00000000000E+00 0. -1.
</event>
<event>
 7    1  0.2642243E-009  0.4778727E+02  0.7816164E-02  0.1312668E+00
        -11   -1    0    0    0    0  0.00000000000E+00  0.00000000000E+00  0.45593999997E+02  0.45594000000E+02  0.51100000000E-03 0.  1.
         11   -1    0    0    0    0 -0.00000000000E+00 -0.00000000000E+00 -0.45593999997E+02  0.45594000000E+02  0.51100000000E-03 0. -1.
    9900012    2    1    2    0    0 -0.97004485884E+01 -0.30990868258E+02 -0.28793936296E+02  0.47787269757E+02  0.19999994130E+02 0.  0.
        -12    1    1    2    0    0  0.97004485884E+01  0.30990868258E+02  0.28793936296E+02  0.43400730243E+02  0.00000000000E+00 0.  1.
         11    1    3    3    0    0 -0.80471743576E+01 -0.14733873250E+02 -0.24165990216E+02  0.29425144341E+02  0.51100000000E-03 0. -1.
        -11    1    3    3    0    0 -0.41611667247E+01 -0.11954753536E+02 -0.23020083968E+01  0.12865872825E+02  0.51100000000E-03 0.  1.
         12    1    3    3    0    0  0.25078924939E+01 -0.43022414720E+01 -0.23259376829E+01  0.54962525915E+01  0.00000000000E+00 0. -1.
</event>
<event>
 7    1  0.2642243E-009  0.4778728E+02  0.7816164E-02  0.1312668E+00
        -11   -1    0    0    0    0  0.00000000000E+00  0.00000000000E+00  0.45593999997E+02  0.45594000000E+02  0.51100000000E-03 0. -1.
         11   -1    0    0    0    0 -0.00000000000E+00 -0.00000000000E+00 -0.45593999997E+02  0.45594000000E+02  0.51100000000E-03 0.  1.
    9900012    2    1    2    0    0 -0.32497524689E+02  0.42622766681E+00 -0.28763728052E+02  0.47787276130E+02  0.20000023187E+02 0.  0.
        -12    1    1    2    0    0  0.32497524689E+02 -0.42622766681E+00  0.28763728052E+02  0.43400723870E+02  0.00000000000E+00 0.  1.
         11    1    3    3    0    0  0.82281297038E+00  0.66291260285E+00  0.27141533588E+00  0.10909357676E+01  0.51100000000E-03 0. -1.
        -11    1    3    3    0    0 -0.11572042679E+02 -0.37700431658E+01 -0.28975092676E+01  0.12510833603E+02  0.51100000000E-03 0.  1.
        -12    1    3    3    0    0 -0.21748294981E+02  0.35333582298E+01 -0.26137634121E+02  0.34185506759E+02  0.00000000000E+00 0.  1.
</event>
<event>
 7    1  0.2642243E-009  0.4778727E+02  0.7816164E-02  0.1312668E+00
        -11   -1    0    0    0    0  0.00000000000E+00  0.00000000000E+00  0.45593999997E+02  0.45594000000E+02  0.51100000000E-03 0.  1.
         11   -1    0    0    0    0 -0.00000000000E+00 -0.00000000000E+00 -0.45593999997E+02  0.45594000000E+02  0.51100000000E-03 0. -1.
    9900012    2    1    2    0    0  0.10290278312E+02 -0.29459737510E+02 -0.30163841288E+02  0.47787270938E+02  0.19999999514E+02 0.  0.
        -12    1    1    2    0    0 -0.10290278312E+02  0.29459737510E+02  0.30163841288E+02  0.43400729062E+02  0.00000000000E+00 0.  1.
         11    1    3    3    0    0  0.93427255422E+01 -0.21052938018E+02 -0.13718640210E+02  0.26808838267E+02  0.51100000000E-03 0. -1.
        -11    1    3    3    0    0  0.14782046593E+01 -0.47111131139E+01 -0.93517593831E+00  0.50253587020E+01  0.51100000000E-03 0.  1.
         12    1    3    3    0    0 -0.53065188970E+00 -0.36956863777E+01 -0.15510025139E+02  0.15953073969E+02  0.00000000000E+00 0. -1.
</event>
<event>
 7    1  0.2642243E-009  0.4778728E+02  0.7816164E-02  0.1312668E+00
        -11   -1    0    0    0    0  0.00000000000E+00  0.00000000000E+00  0.45593999997E+02  0.45594000000E+02  0.51100000000E-03 0.  1.
         11   -1    0    0    0    0 -0.00000000000E+00 -0.00000000000E+00 -0.45593999997E+02  0.45594000000E+02  0.51100000000E-03 0. -1.
    9900012    2    1    2    0    0 -0.51156411638E+01  0.32345427307E+01 -0.42976629369E+02  0.47787277389E+02  0.20000028929E+02 0.  0.
        -12    1    1    2    0    0  0.51156411638E+01 -0.32345427307E+01  0.42976629369E+02  0.43400722611E+02  0.00000000000E+00 0.  1.
         11    1    3    3    0    0  0.14309756186E+01  0.80225143641E+01 -0.31900274140E+02  0.32924700734E+02  0.51100000000E-03 0. -1.
        -11    1    3    3    0    0 -0.61834382581E+01 -0.33422948230E+01 -0.50509028957E+01  0.86554874905E+01  0.51100000000E-03 0.  1.
         12    1    3    3    0    0 -0.36317852431E+00 -0.14456768104E+01 -0.60254523332E+01  0.62070891649E+01  0.00000000000E+00 0. -1.
</event>
<event>
 7    1  0.2642243E-009  0.4778727E+02  0.7816164E-02  0.1312668E+00
        -11   -1    0    0    0    0  0.00000000000E+00  0.00000000000E+00  0.45593999997E+02  0.45594000000E+02  0.51100000000E-03 0.  1.
         11   -1    0    0    0    0 -0.00000000000E+00 -0.00000000000E+00 -0.45593999997E+02  0.45594000000E+02  0.51100000000E-03 0. -1.
    9900012    2    1    2    0    0  0.36154657656E+02 -0.61043193095E+00 -0.24001899346E+02  0.47787273398E+02  0.20000010733E+02 0.  0.
        -12    1    1    2    0    0 -0.36154657656E+02  0.61043193095E+00  0.24001899346E+02  0.43400726602E+02  0.00000000000E+00 0.  1.
         11    1    3    3    0    0  0.29849255770E+02  0.35270391541E+01 -0.20086313872E+02  0.36150768739E+02  0.51100000000E-03 0. -1.
        -11    1    3    3    0    0  0.30211156326E+01  0.13589265665E+01  0.11134050495E+01  0.34947807005E+01  0.51100000000E-03 0.  1.
         12    1    3    3    0    0  0.32842862531E+01 -0.54963976516E+01 -0.50289905232E+01  0.81417239587E+01  0.00000000000E+00 0. -1.
</event>
<event>
 7    1  0.2642243E-009  0.4778727E+02  0.7816164E-02  0.1312668E+00
        -11   -1    0    0    0    0  0.00000000000E+00  0.00000000000E+00  0.45593999997E+02  0.45594000000E+02  0.51100000000E-03 0. -1.
         11   -1    0    0    0    0 -0.00000000000E+00 -0.00000000000E+00 -0.45593999997E+02  0.45594000000E+02  0.51100000000E-03 0.  1.
    9900012    2    1    2    0    0 -0.16346771516E+01 -0.34503979362E+02  0.26275968472E+02  0.47787270970E+02  0.19999999660E+02 0.  0.
        -12    1    1    2    0    0  0.16346771516E+01  0.34503979362E+02 -0.26275968472E+02  0.43400729030E+02  0.00000000000E+00 0.  1.
         11    1    3    3    0    0 -0.41643734381E+01 -0.10036124991E+02  0.25770836717E+01  0.11167236520E+02  0.51100000000E-03 0. -1.
        -11    1    3    3    0    0  0.87460504867E-01 -0.11626661343E+02  0.19831426723E+02  0.22988527344E+02  0.51100000000E-03 0.  1.
        -12    1    3    3    0    0  0.24422357817E+01 -0.12841193028E+02  0.38674580770E+01  0.13631507106E+02  0.00000000000E+00 0.  1.
</event>
<event>
 7    1  0.2642243E-009  0.4778726E+02  0.7816164E-02  0.1312668E+00
        -11   -1    0    0    0    0  0.00000000000E+00  0.00000000000E+00  0.45593999997E+02  0.45594000000E+02  0.51100000000E-03 0.  1.
         11   -1    0    0    0    0 -0.00000000000E+00 -0.00000000000E+00 -0.45593999997E+02  0.45594000000E+02  0.51100000000E-03 0. -1.
    9900012    2    1    2    0    0  0.11376948359E+02  0.19686014901E+02 -0.36968226335E+02  0.47787263889E+02  0.19999967374E+02 0.  0.
        -12    1    1    2    0    0 -0.11376948359E+02 -0.19686014901E+02  0.36968226335E+02  0.43400736111E+02  0.00000000000E+00 0.  1.
         11    1    3    3    0    0  0.21871268975E+01  0.42693057332E+01 -0.75821554487E+01  0.89721556506E+01  0.51100000000E-03 0. -1.
        -11    1    3    3    0    0  0.41697968491E+01  0.70186252947E+01 -0.34605840779E+00  0.81711727109E+01  0.51100000000E-03 0.  1.
        -12    1    3    3    0    0  0.50200246124E+01  0.83980838732E+01 -0.29040012478E+02  0.30643935527E+02  0.00000000000E+00 0.  1.
</event>
<event>
 7    1  0.2642243E-009  0.4778727E+02  0.7816164E-02  0.1312668E+00
        -11   -1    0    0    0    0  0.00000000000E+00  0.00000000000E+00  0.45593999997E+02  0.45594000000E+02  0.51100000000E-03 0. -1.
         11   -1    0    0    0    0 -0.00000000000E+00 -0.00000000000E+00 -0.45593999997E+02  0.45594000000E+02  0.51100000000E-03 0.  1.
    9900012    2    1    2    0    0 -0.16200044721E+02 -0.39027861283E+02 -0.98998911735E+01  0.47787271313E+02  0.20000001225E+02 0.  0.
        -12    1    1    2    0    0  0.16200044721E+02  0.39027861283E+02  0.98998911735E+01  0.43400728687E+02  0.00000000000E+00 0.  1.
         11    1    3    3    0    0 -0.14905816115E+02 -0.19654100891E+02 -0.46228374703E+01  0.25096566746E+02  0.51100000000E-03 0. -1.
        -11    1    3    3    0    0 -0.11044263070E+01 -0.20556104176E+02 -0.40580417843E+01  0.20981917923E+02  0.51100000000E-03 0.  1.
         12    1    3    3    0    0 -0.18980229917E+00  0.11823437838E+01 -0.12190119189E+01  0.17087866439E+01  0.00000000000E+00 0. -1.
</event>
<event>
 7    1  0.2642243E-009  0.4778727E+02  0.7816164E-02  0.1312668E+00
        -11   -1    0    0    0    0  0.00000000000E+00  0.00000000000E+00  0.45593999997E+02  0.45594000000E+02  0.51100000000E-03 0.  1.
         11   -1    0    0    0    0 -0.00000000000E+00 -0.00000000000E+00 -0.45593999997E+02  0.45594000000E+02  0.51100000000E-03 0. -1.
    9900012    2    1    2    0    0  0.96975271833E+00  0.24518754504E+02 -0.35798237331E+02  0.47787267993E+02  0.19999986087E+02 0.  0.
        -12    1    1    2    0    0 -0.96975271833E+00 -0.24518754504E+02  0.35798237331E+02  0.43400732007E+02  0.00000000000E+00 0.  1.
         11    1    3    3    0    0  0.56065617884E+01  0.12456154059E+02 -0.17945832913E+02  0.22553097974E+02  0.51100000000E-03 0. -1.
        -11    1    3    3    0    0 -0.81710922796E+01  0.84728658608E+01 -0.16007271395E+02  0.19869296482E+02  0.51100000000E-03 0.  1.
        -12    1    3    3    0    0  0.35342832094E+01  0.35897345839E+01 -0.18451330231E+01  0.53648735362E+01  0.00000000000E+00 0.  1.
</event>
<event>
 7    1  0.2642243E-009  0.4778727E+02  0.7816164E-02  0.1312668E+00
        -11   -1    0    0    0    0  0.00000000000E+00  0.00000000000E+00  0.45593999997E+02  0.45594000000E+02  0.51100000000E-03 0.  1.
         11   -1    0    0    0    0 -0.00000000000E+00 -0.00000000000E+00 -0.45593999997E+02  0.45594000000E+02  0.51100000000E-03 0. -1.
    9900012    2    1    2    0    0  0.39599693019E+02  0.17443338799E+02  0.33492676565E+01  0.47787270173E+02  0.19999996027E+02 0.  0.
        -12    1    1    2    0    0 -0.39599693019E+02 -0.17443338799E+02 -0.33492676565E+01  0.43400729827E+02  0.00000000000E+00 0.  1.
         11    1    3    3    0    0  0.21242428481E+02  0.11567860044E+02  0.14570602523E+01  0.24231780343E+02  0.51100000000E-03 0. -1.
        -11    1    3    3    0    0 -0.22927116155E+00  0.48584112364E+01  0.29528019999E+00  0.48727728929E+01  0.51100000000E-03 0.  1.
        -12    1    3    3    0    0  0.18586535700E+02  0.10170675190E+01  0.15969272042E+01  0.18682716937E+02  0.00000000000E+00 0.  1.
</event>
<event>
 7    1  0.2642243E-009  0.4778726E+02  0.7816164E-02  0.1312668E+00
        -11   -1    0    0    0    0  0.00000000000E+00  0.00000000000E+00  0.45593999997E+02  0.45594000000E+02  0.51100000000E-03 0. -1.
         11   -1    0    0    0    0 -0.00000000000E+00 -0.00000000000E+00 -0.45593999997E+02  0.45594000000E+02  0.51100000000E-03 0.  1.
    9900012    2    1    2    0    0 -0.41154489258E+02 -0.13088574214E+02  0.43152243219E+01  0.47787263577E+02  0.19999965954E+02 0.  0.
        -12    1    1    2    0    0  0.41154489258E+02  0.13088574214E+02 -0.43152243219E+01  0.43400736423E+02  0.00000000000E+00 0.  1.
         11    1    3    3    0    0 -0.23956220440E+02 -0.32709052808E+01  0.92788931408E+01  0.25897821864E+02  0.51100000000E-03 0. -1.
        -11    1    3    3    0    0 -0.14772061131E+02 -0.10985905507E+02 -0.32402061558E+01  0.18692320510E+02  0.51100000000E-03 0.  1.
        -12    1    3    3    0    0 -0.24262076882E+01  0.11682365736E+01 -0.17234626631E+01  0.31971212034E+01  0.00000000000E+00 0.  1.
</event>
<event>
 7    1  0.2642243E-009  0.4778725E+02  0.7816164E-02  0.1312668E+00
        -11   -1    0    0    0    0  0.00000000000E+00  0.00000000000E+00  0.45593999997E+02  0.45594000000E+02  0.51100000000E-03 0. -1.
         11   -1    0    0    0    0 -0.00000000000E+00 -0.00000000000E+00 -0.45593999997E+02  0.45594000000E+02  0.51100000000E-03 0.  1.
    9900012    2    1    2    0    0 -0.23603219687E+02 -0.30575540651E+02  0.19790125024E+02  0.47787254451E+02  0.19999924346E+02 0.  0.
        -12    1    1    2    0    0  0.23603219687E+02  0.30575540651E+02 -0.19790125024E+02  0.43400745549E+02  0.00000000000E+00 0.  1.
         11    1    3    3    0    0 -0.15315081519E+02 -0.20645419607E+02  0.19277482075E+02  0.32131081340E+02  0.51100000000E-03 0. -1.
        -11    1    3    3    0    0 -0.59665389313E+00  0.16278342921E+01 -0.25152111035E+00  0.17518856929E+01  0.51100000000E-03 0.  1.
         12    1    3    3    0    0 -0.76914842750E+01 -0.11557955336E+02  0.76416405956E+00  0.13904287419E+02  0.00000000000E+00 0. -1.
</event>
<event>
 7    1  0.2642243E-009  0.4778727E+02  0.7816164E-02  0.1312668E+00
        -11   -1    0    0    0    0  0.00000000000E+00  0.00000000000E+00  0.45593999997E+02  0.45594000000E+02  0.51100000000E-03 0.  1.
         11   -1    0    0    0    0 -0.00000000000E+00 -0.00000000000E+00 -0.45593999997E+02  0.45594000000E+02  0.51100000000E-03 0. -1.
    9900012    2    1    2    0    0  0.21445788038E+02  0.17070717579E+01 -0.37693330490E+02  0.47787273255E+02  0.20000010079E+02 0.  0.
        -12    1    1    2    0    0 -0.21445788038E+02 -0.17070717579E+01  0.37693330490E+02  0.43400726745E+02  0.00000000000E+00 0.  1.
         11    1    3    3    0    0  0.15686594600E+02 -0.59107067854E+01 -0.18783509585E+02  0.25175899933E+02  0.51100000000E-03 0. -1.
        -11    1    3    3    0    0  0.56777934903E+01  0.90736187486E+01 -0.17833346450E+02  0.20798945694E+02  0.51100000000E-03 0.  1.
         12    1    3    3    0    0  0.81399947663E-01 -0.14558402053E+01 -0.10764744558E+01  0.18124276286E+01  0.00000000000E+00 0. -1.
</event>
<event>
 7    1  0.2642243E-009  0.4778727E+02  0.7816164E-02  0.1312668E+00
        -11   -1    0    0    0    0  0.00000000000E+00  0.00000000000E+00  0.45593999997E+02  0.45594000000E+02  0.51100000000E-03 0.  1.
         11   -1    0    0    0    0 -0.00000000000E+00 -0.00000000000E+00 -0.45593999997E+02  0.45594000000E+02  0.51100000000E-03 0. -1.
    9900012    2    1    2    0    0 -0.11932305878E+02  0.11042672975E+02 -0.40240566348E+02  0.47787265790E+02  0.19999976044E+02 0.  0.
        -12    1    1    2    0    0  0.11932305878E+02 -0.11042672975E+02  0.40240566348E+02  0.43400734210E+02  0.00000000000E+00 0.  1.
         11    1    3    3    0    0  0.73530023756E+00  0.57402683392E+01 -0.16247223983E+02  0.17247134094E+02  0.51100000000E-03 0. -1.
        -11    1    3    3    0    0 -0.10108430881E+02  0.31976354855E+01 -0.58746050627E+01  0.12120900646E+02  0.51100000000E-03 0.  1.
        -12    1    3    3    0    0 -0.25591752344E+01  0.21047691499E+01 -0.18118737302E+02  0.18419231050E+02  0.00000000000E+00 0.  1.
</event>
<event>
 7    1  0.2642243E-009  0.4778727E+02  0.7816164E-02  0.1312668E+00
        -11   -1    0    0    0    0  0.00000000000E+00  0.00000000000E+00  0.45593999997E+02  0.45594000000E+02  0.51100000000E-03 0. -1.
         11   -1    0    0    0    0 -0.00000000000E+00 -0.00000000000E+00 -0.45593999997E+02  0.45594000000E+02  0.51100000000E-03 0.  1.
    9900012    2    1    2    0    0 -0.10205268403E+02  0.17077964869E+02  0.38572255975E+02  0.47787270533E+02  0.19999997668E+02 0.  0.
        -12    1    1    2    0    0  0.10205268403E+02 -0.17077964869E+02 -0.38572255975E+02  0.43400729467E+02  0.00000000000E+00 0.  1.
         11    1    3    3    0    0  0.57961479987E+01  0.24065749605E+01  0.92996130189E+01  0.11219168295E+02  0.51100000000E-03 0. -1.
        -11    1    3    3    0    0 -0.89348282074E+01  0.65554915758E+01  0.16346743994E+02  0.19748966159E+02  0.51100000000E-03 0.  1.
         12    1    3    3    0    0 -0.70665881942E+01  0.81158983324E+01  0.12925898963E+02  0.16819136079E+02  0.00000000000E+00 0. -1.
</event>
<event>
 7    1  0.2642243E-009  0.4778728E+02  0.7816164E-02  0.1312668E+00
        -11   -1    0    0    0    0  0.00000000000E+00  0.00000000000E+00  0.45593999997E+02  0.45594000000E+02  0.51100000000E-03 0.  1.
         11   -1    0    0    0    0 -0.00000000000E+00 -0.00000000000E+00 -0.45593999997E+02  0.45594000000E+02  0.51100000000E-03 0. -1.
    9900012    2    1    2    0    0  0.12560297867E+02  0.39676399404E+02 -0.12314422096E+02  0.47787277152E+02  0.20000027846E+02 0.  0.
        -12    1    1    2    0    0 -0.12560297867E+02 -0.39676399404E+02  0.12314422096E+02  0.43400722848E+02  0.00000000000E+00 0.  1.
         11    1    3    3    0    0 -0.40358443846E+00  0.21727826623E+01 -0.16606279696E+01  0.27643354376E+01  0.51100000000E-03 0.  1.
        -11    1    3    3    0    0  0.77301474474E+01  0.18623017102E+02 -0.14780228699E+02  0.25000542118E+02  0.51100000000E-03 0. -1.
        -12    1    3    3    0    0  0.52337348577E+01  0.18880599639E+02  0.41264345723E+01  0.20022399596E+02  0.00000000000E+00 0.  1.
</event>
<event>
 7    1  0.2642243E-009  0.4778726E+02  0.7816164E-02  0.1312668E+00
        -11   -1    0    0    0    0  0.00000000000E+00  0.00000000000E+00  0.45593999997E+02  0.45594000000E+02  0.51100000000E-03 0.  1.
         11   -1    0    0    0    0 -0.00000000000E+00 -0.00000000000E+00 -0.45593999997E+02  0.45594000000E+02  0.51100000000E-03 0. -1.
    9900012    2    1    2    0    0 -0.26649447680E+02  0.29628893776E+02  0.17191848556E+02  0.47787261932E+02  0.19999958455E+02 0.  0.
        -12    1    1    2    0    0  0.26649447680E+02 -0.29628893776E+02 -0.17191848556E+02  0.43400738068E+02  0.00000000000E+00 0.  1.
         11    1    3    3    0    0 -0.24459833189E+02  0.20275926834E+02  0.17893418463E+02  0.36463283906E+02  0.51100000000E-03 0. -1.
        -11    1    3    3    0    0  0.17665267558E+01  0.46327037072E+01  0.70102940161E+00  0.50073948217E+01  0.51100000000E-03 0.  1.
        -12    1    3    3    0    0 -0.39561412468E+01  0.47202632342E+01 -0.14025993088E+01  0.63165832050E+01  0.00000000000E+00 0.  1.
</event>
<event>
 7    1  0.2642243E-009  0.4778727E+02  0.7816164E-02  0.1312668E+00
        -11   -1    0    0    0    0  0.00000000000E+00  0.00000000000E+00  0.45593999997E+02  0.45594000000E+02  0.51100000000E-03 0.  1.
         11   -1    0    0    0    0 -0.00000000000E+00 -0.00000000000E+00 -0.45593999997E+02  0.45594000000E+02  0.51100000000E-03 0. -1.
    9900012    2    1    2    0    0 -0.70918959412E+01  0.42444776969E+02  0.56364215464E+01  0.47787270423E+02  0.19999997166E+02 0.  0.
        -12    1    1    2    0    0  0.70918959412E+01 -0.42444776969E+02 -0.56364215464E+01  0.43400729577E+02  0.00000000000E+00 0.  1.
         11    1    3    3    0    0 -0.48104871505E+01  0.27903179195E+02  0.14519884432E+01  0.28352009920E+02  0.51100000000E-03 0. -1.
        -11    1    3    3    0    0 -0.25417932597E+00 -0.92015051198E+00 -0.23431106132E+01  0.25301090295E+01  0.51100000000E-03 0.  1.
        -12    1    3    3    0    0 -0.20272294648E+01  0.15461748286E+02  0.65275437164E+01  0.16905151474E+02  0.00000000000E+00 0.  1.
</event>
<event>
 7    1  0.2642243E-009  0.4778728E+02  0.7816164E-02  0.1312668E+00
        -11   -1    0    0    0    0  0.00000000000E+00  0.00000000000E+00  0.45593999997E+02  0.45594000000E+02  0.51100000000E-03 0. -1.
         11   -1    0    0    0    0 -0.00000000000E+00 -0.00000000000E+00 -0.45593999997E+02  0.45594000000E+02  0.51100000000E-03 0.  1.
    9900012    2    1    2    0    0  0.27626670089E+02  0.19966396756E+02  0.26865079323E+02  0.47787281266E+02  0.20000046603E+02 0.  0.
        -12    1    1    2    0    0 -0.27626670089E+02 -0.19966396756E+02 -0.26865079323E+02  0.43400718734E+02  0.00000000000E+00 0.  1.
         11    1    3    3    0    0  0.18572232216E+02  0.48017180114E+01  0.18042677569E+02  0.26334815729E+02  0.51100000000E-03 0. -1.
        -11    1    3    3    0    0  0.39501540829E+01  0.33469399930E+01 -0.98363726808E+00  0.52700348321E+01  0.51100000000E-03 0.  1.
         12    1    3    3    0    0  0.51042837899E+01  0.11817738751E+02  0.98060390216E+01  0.16182430704E+02  0.00000000000E+00 0. -1.
</event>
<event>
 7    1  0.2642243E-009  0.4778727E+02  0.7816164E-02  0.1312668E+00
        -11   -1    0    0    0    0  0.00000000000E+00  0.00000000000E+00  0.45593999997E+02  0.45594000000E+02  0.51100000000E-03 0.  1.
         11   -1    0    0    0    0 -0.00000000000E+00 -0.00000000000E+00 -0.45593999997E+02  0.45594000000E+02  0.51100000000E-03 0. -1.
    9900012    2    1    2    0    0  0.17437305464E+02  0.33621129513E+02 -0.21193947375E+02  0.47787269858E+02  0.19999994588E+02 0.  0.
        -12    1    1    2    0    0 -0.17437305464E+02 -0.33621129513E+02  0.21193947375E+02  0.43400730142E+02  0.00000000000E+00 0.  1.
         11    1    3    3    0    0  0.13105306545E+02  0.10094976840E+02 -0.12764085726E+02  0.20894484960E+02  0.51100000000E-03 0. -1.
        -11    1    3    3    0    0 -0.90724722358E-01  0.18090936681E+02 -0.37764824785E+01  0.18481126620E+02  0.51100000000E-03 0.  1.
        -12    1    3    3    0    0  0.44227236408E+01  0.54352159915E+01 -0.46533791705E+01  0.84116582778E+01  0.00000000000E+00 0.  1.
</event>
<event>
 7    1  0.2642243E-009  0.4778727E+02  0.7816164E-02  0.1312668E+00
        -11   -1    0    0    0    0  0.00000000000E+00  0.00000000000E+00  0.45593999997E+02  0.45594000000E+02  0.51100000000E-03 0. -1.
         11   -1    0    0    0    0 -0.00000000000E+00 -0.00000000000E+00 -0.45593999997E+02  0.45594000000E+02  0.51100000000E-03 0.  1.
    9900012    2    1    2    0    0 -0.16728113837E+01  0.53480732778E+01  0.43037458926E+02  0.47787273549E+02  0.20000011418E+02 0.  0.
        -12    1    1    2    0    0  0.16728113837E+01 -0.53480732778E+01 -0.43037458926E+02  0.43400726451E+02  0.00000000000E+00 0.  1.
         11    1    3    3    0    0 -0.42081122468E+01 -0.10174426361E+01  0.12641130814E+01  0.45101419426E+01  0.51100000000E-03 0.  1.
        -11    1    3    3    0    0  0.49565857226E+01  0.62831600566E+01  0.23093996069E+02  0.24441327645E+02  0.51100000000E-03 0. -1.
         12    1    3    3    0    0 -0.24212848596E+01  0.82355857370E-01  0.18679349775E+02  0.18835803961E+02  0.00000000000E+00 0. -1.
</event>
<event>
 7    1  0.2642243E-009  0.4778727E+02  0.7816164E-02  0.1312668E+00
        -11   -1    0    0    0    0  0.00000000000E+00  0.00000000000E+00  0.45593999997E+02  0.45594000000E+02  0.51100000000E-03 0. -1.
         11   -1    0    0    0    0 -0.00000000000E+00 -0.00000000000E+00 -0.45593999997E+02  0.45594000000E+02  0.51100000000E-03 0.  1.
    9900012    2    1    2    0    0  0.30921832255E+02 -0.43821713286E+01  0.30137356130E+02  0.47787269936E+02  0.19999994948E+02 0.  0.
        -12    1    1    2    0    0 -0.30921832255E+02  0.43821713286E+01 -0.30137356130E+02  0.43400730064E+02  0.00000000000E+00 0.  1.
         11    1    3    3    0    0  0.13971679176E+02 -0.62337407280E+01  0.88573405379E+01  0.17678230232E+02  0.51100000000E-03 0. -1.
        -11    1    3    3    0    0  0.10571436507E+02  0.64531279722E+01  0.17348455994E+02  0.21315887410E+02  0.51100000000E-03 0.  1.
        -12    1    3    3    0    0  0.63787165716E+01 -0.46015585727E+01  0.39315595988E+01  0.87931522947E+01  0.00000000000E+00 0.  1.
</event>
<event>
 7    1  0.2642243E-009  0.4778727E+02  0.7816164E-02  0.1312668E+00
        -11   -1    0    0    0    0  0.00000000000E+00  0.00000000000E+00  0.45593999997E+02  0.45594000000E+02  0.51100000000E-03 0.  1.
         11   -1    0    0    0    0 -0.00000000000E+00 -0.00000000000E+00 -0.45593999997E+02  0.45594000000E+02  0.51100000000E-03 0. -1.
    9900012    2    1    2    0    0 -0.24704393735E+02  0.23206336410E+02 -0.27106862020E+02  0.47787273186E+02  0.20000009765E+02 0.  0.
        -12    1    1    2    0    0  0.24704393735E+02 -0.23206336410E+02  0.27106862020E+02  0.43400726814E+02  0.00000000000E+00 0.  1.
         11    1    3    3    0    0 -0.41598213648E+01 -0.27041381416E+01 -0.38096333947E+01  0.62553803833E+01  0.51100000000E-03 0. -1.
        -11    1    3    3    0    0 -0.19715215834E+02  0.26720565084E+02 -0.22732446091E+02  0.40242296646E+02  0.51100000000E-03 0.  1.
        -12    1    3    3    0    0 -0.82935653673E+00 -0.81009053314E+00 -0.56478253462E+00  0.12895961571E+01  0.00000000000E+00 0.  1.
</event>
<event>
 7    1  0.2642243E-009  0.4778727E+02  0.7816164E-02  0.1312668E+00
        -11   -1    0    0    0    0  0.00000000000E+00  0.00000000000E+00  0.45593999997E+02  0.45594000000E+02  0.51100000000E-03 0.  1.
         11   -1    0    0    0    0 -0.00000000000E+00 -0.00000000000E+00 -0.45593999997E+02  0.45594000000E+02  0.51100000000E-03 0. -1.
    9900012    2    1    2    0    0  0.13513429803E+02 -0.18433807797E+02 -0.36894517431E+02  0.47787268769E+02  0.19999989624E+02 0.  0.
        -12    1    1    2    0    0 -0.13513429803E+02  0.18433807797E+02  0.36894517431E+02  0.43400731231E+02  0.00000000000E+00 0.  1.
         11    1    3    3    0    0 -0.23380131954E+01 -0.20129657396E+00 -0.10317689915E+02  0.10581188566E+02  0.51100000000E-03 0. -1.
        -11    1    3    3    0    0  0.87319840389E+01 -0.14804336008E+02 -0.13207267553E+02  0.21675973481E+02  0.51100000000E-03 0.  1.
         12    1    3    3    0    0  0.71194589594E+01 -0.34281752153E+01 -0.13369559963E+02  0.15530106722E+02  0.00000000000E+00 0. -1.
</event>
<event>
 7    1  0.2642243E-009  0.4778727E+02  0.7816164E-02  0.1312668E+00
        -11   -1    0    0    0    0  0.00000000000E+00  0.00000000000E+00  0.45593999997E+02  0.45594000000E+02  0.51100000000E-03 0.  1.
         11   -1    0    0    0    0 -0.00000000000E+00 -0.00000000000E+00 -0.45593999997E+02  0.45594000000E+02  0.51100000000E-03 0. -1.
    9900012    2    1    2    0    0  0.32912396157E+02 -0.31717304692E+01 -0.28112942713E+02  0.47787271401E+02  0.20000001626E+02 0.  0.
        -12    1    1    2    0    0 -0.32912396157E+02  0.31717304692E+01  0.28112942713E+02  0.43400728599E+02  0.00000000000E+00 0.  1.
         11    1    3    3    0    0  0.30599808838E+01 -0.13548531162E+00 -0.11886807751E+02  0.12275098291E+02  0.51100000000E-03 0. -1.
        -11    1    3    3    0    0  0.29248271069E+02 -0.48665314537E+01 -0.15451543674E+02  0.33434932198E+02  0.51100000000E-03 0.  1.
        -12    1    3    3    0    0  0.60414420432E+00  0.18302862961E+01 -0.77459128747E+00  0.20772409123E+01  0.00000000000E+00 0.  1.
</event>
<event>
 7    1  0.2642243E-009  0.4778726E+02  0.7816164E-02  0.1312668E+00
        -11   -1    0    0    0    0  0.00000000000E+00  0.00000000000E+00  0.45593999997E+02  0.45594000000E+02  0.51100000000E-03 0.  1.
         11   -1    0    0    0    0 -0.00000000000E+00 -0.00000000000E+00 -0.45593999997E+02  0.45594000000E+02  0.51100000000E-03 0. -1.
    9900012    2    1    2    0    0  0.36375593433E+02 -0.13416172991E+02 -0.19505033872E+02  0.47787264503E+02  0.19999970175E+02 0.  0.
        -12    1    1    2    0    0 -0.36375593433E+02  0.13416172991E+02  0.19505033872E+02  0.43400735497E+02  0.00000000000E+00 0.  1.
         11    1    3    3    0    0  0.24098127547E+01 -0.51721990387E+01  0.82377348818E+00  0.57651924018E+01  0.51100000000E-03 0. -1.
        -11    1    3    3    0    0  0.28952540614E+02 -0.47447994487E+01 -0.12018050558E+02  0.31704830378E+02  0.51100000000E-03 0.  1.
        -12    1    3    3    0    0  0.50132400643E+01 -0.34991745032E+01 -0.83107568022E+01  0.10317241723E+02  0.00000000000E+00 0.  1.
</event>
<event>
 7    1  0.2642243E-009  0.4778727E+02  0.7816164E-02  0.1312668E+00
        -11   -1    0    0    0    0  0.00000000000E+00  0.00000000000E+00  0.45593999997E+02  0.45594000000E+02  0.51100000000E-03 0. -1.
         11   -1    0    0    0    0 -0.00000000000E+00 -0.00000000000E+00 -0.45593999997E+02  0.45594000000E+02  0.51100000000E-03 0.  1.
    9900012    2    1    2    0    0 -0.23386187521E+02  0.16428920809E+02  0.32661905503E+02  0.47787271011E+02  0.19999999845E+02 0.  0.
        -12    1    1    2    0    0  0.23386187521E+02 -0.16428920809E+02 -0.32661905503E+02  0.43400728989E+02  0.00000000000E+00 0.  1.
         11    1    3    3    0    0 -0.45158569440E+01  0.72007772316E+01  0.22329272429E+01  0.87880669667E+01  0.51100000000E-03 0. -1.
        -11    1    3    3    0    0 -0.19198696146E+02  0.67092419091E+01  0.20998232000E+02  0.29232338396E+02  0.51100000000E-03 0.  1.
        -12    1    3    3    0    0  0.32836556883E+00  0.25189016686E+01  0.94307462603E+01  0.97668656481E+01  0.00000000000E+00 0.  1.
</event>
<event>
 7    1  0.2642243E-009  0.4778726E+02  0.7816164E-02  0.1312668E+00
        -11   -1    0    0    0    0  0.00000000000E+00  0.00000000000E+00  0.45593999997E+02  0.45594000000E+02  0.51100000000E-03 0.  1.
         11   -1    0    0    0    0 -0.00000000000E+00 -0.00000000000E+00 -0.45593999997E+02  0.45594000000E+02  0.51100000000E-03 0. -1.
    9900012    2    1    2    0    0  0.37462074659E+02  0.16304574409E+02 -0.14641645148E+02  0.47787263173E+02  0.19999964113E+02 0.  0.
        -12    1    1    2    0    0 -0.37462074659E+02 -0.16304574409E+02  0.14641645148E+02  0.43400736827E+02  0.00000000000E+00 0.  1.
         11    1    3    3    0    0  0.16928221710E+02  0.10079551845E+02 -0.46306834061E+01  0.20238707586E+02  0.51100000000E-03 0. -1.
        -11    1    3    3    0    0  0.66431495209E+01 -0.40309350484E+01 -0.38493586850E+00  0.77799774296E+01  0.51100000000E-03 0.  1.
        -12    1    3    3    0    0  0.13890703428E+02  0.10255957612E+02 -0.96260258736E+01  0.19768578158E+02  0.00000000000E+00 0.  1.
</event>
<event>
 7    1  0.2642243E-009  0.4778727E+02  0.7816164E-02  0.1312668E+00
        -11   -1    0    0    0    0  0.00000000000E+00  0.00000000000E+00  0.45593999997E+02  0.45594000000E+02  0.51100000000E-03 0.  1.
         11   -1    0    0    0    0 -0.00000000000E+00 -0.00000000000E+00 -0.45593999997E+02  0.45594000000E+02  0.51100000000E-03 0. -1.
    9900012    2    1    2    0    0 -0.82074826695E+01 -0.16251105091E+02 -0.39397486369E+02  0.47787272809E+02  0.20000008047E+02 0.  0.
        -12    1    1    2    0    0  0.82074826695E+01  0.16251105091E+02  0.39397486369E+02  0.43400727191E+02  0.00000000000E+00 0.  1.
         11    1    3    3    0    0 -0.37433958129E+01 -0.58243536457E+01 -0.18057336947E+02  0.19339170755E+02  0.51100000000E-03 0. -1.
        -11    1    3    3    0    0 -0.13730330253E+01  0.17969395176E+01 -0.13307519481E+02  0.13498306795E+02  0.51100000000E-03 0.  1.
        -12    1    3    3    0    0 -0.30910538313E+01 -0.12223690963E+02 -0.80326299407E+01  0.14949795259E+02  0.00000000000E+00 0.  1.
</event>
<event>
 7    1  0.2642243E-009  0.4778727E+02  0.7816164E-02  0.1312668E+00
        -11   -1    0    0    0    0  0.00000000000E+00  0.00000000000E+00  0.45593999997E+02  0.45594000000E+02  0.51100000000E-03 0.  1.
         11   -1    0    0    0    0 -0.00000000000E+00 -0.00000000000E+00 -0.45593999997E+02  0.45594000000E+02  0.51100000000E-03 0. -1.
    9900012    2    1    2    0    0  0.13638450268E+02 -0.22272754368E+02 -0.34663243697E+02  0.47787269862E+02  0.19999994610E+02 0.  0.
        -12    1    1    2    0    0 -0.13638450268E+02  0.22272754368E+02  0.34663243697E+02  0.43400730138E+02  0.00000000000E+00 0.  1.
         11    1    3    3    0    0  0.13304457228E+00 -0.58354352211E+00  0.20440451864E+01  0.21298696875E+01  0.51100000000E-03 0. -1.
        -11    1    3    3    0    0  0.11901227003E+00 -0.26669107542E+01 -0.94726796849E+01  0.98416582732E+01  0.51100000000E-03 0.  1.
         12    1    3    3    0    0  0.13386393426E+02 -0.19022300092E+02 -0.27234609199E+02  0.35815741902E+02  0.00000000000E+00 0. -1.
</event>
<event>
 7    1  0.2642243E-009  0.4778727E+02  0.7816164E-02  0.1312668E+00
        -11   -1    0    0    0    0  0.00000000000E+00  0.00000000000E+00  0.45593999997E+02  0.45594000000E+02  0.51100000000E-03 0.  1.
         11   -1    0    0    0    0 -0.00000000000E+00 -0.00000000000E+00 -0.45593999997E+02  0.45594000000E+02  0.51100000000E-03 0. -1.
    9900012    2    1    2    0    0 -0.11527511086E+02  0.34633092976E+02 -0.23479541293E+02  0.47787268437E+02  0.19999988110E+02 0.  0.
        -12    1    1    2    0    0  0.11527511086E+02 -0.34633092976E+02  0.23479541293E+02  0.43400731563E+02  0.00000000000E+00 0.  1.
         11    1    3    3    0    0  0.29317187521E+01  0.14070477738E+02 -0.60276995891E+01  0.15585457363E+02  0.51100000000E-03 0. -1.
        -11    1    3    3    0    0 -0.15319427551E+02  0.18774648461E+02 -0.13399230983E+02  0.27689558980E+02  0.51100000000E-03 0.  1.
        -12    1    3    3    0    0  0.86019771250E+00  0.17879667772E+01 -0.40526107215E+01  0.45122520941E+01  0.00000000000E+00 0.  1.
</event>
<event>
 7    1  0.2642243E-009  0.4778727E+02  0.7816164E-02  0.1312668E+00
        -11   -1    0    0    0    0  0.00000000000E+00  0.00000000000E+00  0.45593999997E+02  0.45594000000E+02  0.51100000000E-03 0.  1.
         11   -1    0    0    0    0 -0.00000000000E+00 -0.00000000000E+00 -0.45593999997E+02  0.45594000000E+02  0.51100000000E-03 0. -1.
    9900012    2    1    2    0    0  0.59508908953E+01 -0.42879446799E+02 -0.30924434286E+01  0.47787271128E+02  0.20000000381E+02 0.  0.
        -12    1    1    2    0    0 -0.59508908953E+01  0.42879446799E+02  0.30924434286E+01  0.43400728872E+02  0.00000000000E+00 0.  1.
         11    1    3    3    0    0 -0.56958914169E+01 -0.67129233667E+01 -0.27479959954E+01  0.92226894891E+01  0.51100000000E-03 0. -1.
        -11    1    3    3    0    0  0.71839756932E+01 -0.12667030636E+02  0.10823652350E+01  0.14602557538E+02  0.51100000000E-03 0.  1.
         12    1    3    3    0    0  0.44628066189E+01 -0.23499492797E+02 -0.14268126681E+01  0.23962024101E+02  0.00000000000E+00 0. -1.
</event>
<event>
 7    1  0.2642243E-009  0.4778727E+02  0.7816164E-02  0.1312668E+00
        -11   -1    0    0    0    0  0.00000000000E+00  0.00000000000E+00  0.45593999997E+02  0.45594000000E+02  0.51100000000E-03 0.  1.
         11   -1    0    0    0    0 -0.00000000000E+00 -0.00000000000E+00 -0.45593999997E+02  0.45594000000E+02  0.51100000000E-03 0. -1.
    9900012    2    1    2    0    0 -0.87350556910E+01  0.12337215500E+01 -0.42494702884E+02  0.47787273739E+02  0.20000012287E+02 0.  0.
        -12    1    1    2    0    0  0.87350556910E+01 -0.12337215500E+01  0.42494702884E+02  0.43400726261E+02  0.00000000000E+00 0.  1.
         11    1    3    3    0    0 -0.27426889589E+01 -0.12820602910E+01 -0.30868981371E+01  0.43237670710E+01  0.51100000000E-03 0. -1.
        -11    1    3    3    0    0 -0.65952940166E+01  0.12409688221E+01 -0.40878642228E+02  0.41425853008E+02  0.51100000000E-03 0.  1.
        -12    1    3    3    0    0  0.60292728451E+00  0.12748130189E+01  0.14708374813E+01  0.20376536605E+01  0.00000000000E+00 0.  1.
</event>
<event>
 7    1  0.2642243E-009  0.4778727E+02  0.7816164E-02  0.1312668E+00
        -11   -1    0    0    0    0  0.00000000000E+00  0.00000000000E+00  0.45593999997E+02  0.45594000000E+02  0.51100000000E-03 0. -1.
         11   -1    0    0    0    0 -0.00000000000E+00 -0.00000000000E+00 -0.45593999997E+02  0.45594000000E+02  0.51100000000E-03 0.  1.
    9900012    2    1    2    0    0 -0.14125666381E+02 -0.10213232984E+02  0.39746431609E+02  0.47787269541E+02  0.19999993145E+02 0.  0.
        -12    1    1    2    0    0  0.14125666381E+02  0.10213232984E+02 -0.39746431609E+02  0.43400730459E+02  0.00000000000E+00 0.  1.
         11    1    3    3    0    0 -0.69310839975E+01 -0.17676893571E+01  0.11750432401E+02  0.13756355364E+02  0.51100000000E-03 0. -1.
        -11    1    3    3    0    0 -0.83106648598E+01  0.12863816456E+01  0.18799384504E+02  0.20594630032E+02  0.51100000000E-03 0.  1.
        -12    1    3    3    0    0  0.11160824759E+01 -0.97319252722E+01  0.91966147047E+01  0.13436284145E+02  0.00000000000E+00 0.  1.
</event>
<event>
 7    1  0.2642243E-009  0.4778727E+02  0.7816164E-02  0.1312668E+00
        -11   -1    0    0    0    0  0.00000000000E+00  0.00000000000E+00  0.45593999997E+02  0.45594000000E+02  0.51100000000E-03 0.  1.
         11   -1    0    0    0    0 -0.00000000000E+00 -0.00000000000E+00 -0.45593999997E+02  0.45594000000E+02  0.51100000000E-03 0. -1.
    9900012    2    1    2    0    0 -0.33795826353E+02 -0.30993017469E+01 -0.27052912637E+02  0.47787266915E+02  0.19999981173E+02 0.  0.
        -12    1    1    2    0    0  0.33795826353E+02  0.30993017469E+01  0.27052912637E+02  0.43400733085E+02  0.00000000000E+00 0.  1.
         11    1    3    3    0    0 -0.17284457229E+02 -0.74816206010E+01 -0.15670939774E+02  0.24501131855E+02  0.51100000000E-03 0. -1.
        -11    1    3    3    0    0 -0.51005497907E+01  0.58284056807E+01 -0.83545617527E+01  0.11392305442E+02  0.51100000000E-03 0.  1.
        -12    1    3    3    0    0 -0.11410819333E+02 -0.14460868266E+01 -0.30274111102E+01  0.11893829618E+02  0.00000000000E+00 0.  1.
</event>
<event>
 7    1  0.2642243E-009  0.4778728E+02  0.7816164E-02  0.1312668E+00
        -11   -1    0    0    0    0  0.00000000000E+00  0.00000000000E+00  0.45593999997E+02  0.45594000000E+02  0.51100000000E-03 0.  1.
         11   -1    0    0    0    0 -0.00000000000E+00 -0.00000000000E+00 -0.45593999997E+02  0.45594000000E+02  0.51100000000E-03 0. -1.
    9900012    2    1    2    0    0 -0.27367271150E+02  0.28147882530E+02 -0.18502757943E+02  0.47787275668E+02  0.20000021079E+02 0.  0.
        -12    1    1    2    0    0  0.27367271150E+02 -0.28147882530E+02  0.18502757943E+02  0.43400724332E+02  0.00000000000E+00 0.  1.
         11    1    3    3    0    0 -0.19728205537E+02  0.13541838999E+02 -0.31847311273E+01  0.24139718511E+02  0.51100000000E-03 0. -1.
        -11    1    3    3    0    0  0.14002283652E+01  0.29327503758E+01 -0.28949665043E+01  0.43522977338E+01  0.51100000000E-03 0.  1.
         12    1    3    3    0    0 -0.90392939776E+01  0.11673293155E+02 -0.12423060311E+02  0.19295259423E+02  0.00000000000E+00 0. -1.
</event>
<event>
 7    1  0.2642243E-009  0.4778728E+02  0.7816164E-02  0.1312668E+00
        -11   -1    0    0    0    0  0.00000000000E+00  0.00000000000E+00  0.45593999997E+02  0.45594000000E+02  0.51100000000E-03 0.  1.
         11   -1    0    0    0    0 -0.00000000000E+00 -0.00000000000E+00 -0.45593999997E+02  0.45594000000E+02  0.51100000000E-03 0. -1.
    9900012    2    1    2    0    0 -0.10583177178E+02  0.40913392745E+02  0.98849892808E+01  0.47787281594E+02  0.20000048098E+02 0.  0.
        -12    1    1    2    0    0  0.10583177178E+02 -0.40913392745E+02 -0.98849892808E+01  0.43400718406E+02  0.00000000000E+00 0.  1.
         11    1    3    3    0    0 -0.22843431272E+01  0.11198958243E+02  0.61235317947E+01  0.12966592889E+02  0.51100000000E-03 0. -1.
        -11    1    3    3    0    0 -0.30266349261E+01  0.29150445641E+02  0.29235015836E+01  0.29452603651E+02  0.51100000000E-03 0.  1.
        -12    1    3    3    0    0 -0.52721991249E+01  0.56398886102E+00  0.83795590254E+00  0.53680850536E+01  0.00000000000E+00 0.  1.
</event>
<event>
 7    1  0.2642243E-009  0.4778728E+02  0.7816164E-02  0.1312668E+00
        -11   -1    0    0    0    0  0.00000000000E+00  0.00000000000E+00  0.45593999997E+02  0.45594000000E+02  0.51100000000E-03 0. -1.
         11   -1    0    0    0    0 -0.00000000000E+00 -0.00000000000E+00 -0.45593999997E+02  0.45594000000E+02  0.51100000000E-03 0.  1.
    9900012    2    1    2    0    0 -0.34919201497E+02 -0.23269924919E+02 -0.11080739378E+02  0.47787276226E+02  0.20000023626E+02 0.  0.
        -12    1    1    2    0    0  0.34919201497E+02  0.23269924919E+02  0.11080739378E+02  0.43400723774E+02  0.00000000000E+00 0.  1.
         11    1    3    3    0    0 -0.20461037749E+02 -0.44111136310E+01 -0.45292785085E+01  0.21415563343E+02  0.51100000000E-03 0. -1.
        -11    1    3    3    0    0 -0.14727750996E+02 -0.14143384963E+02 -0.70966496224E+01  0.21617225162E+02  0.51100000000E-03 0.  1.
         12    1    3    3    0    0  0.26958724746E+00 -0.47154263255E+01  0.54518875300E+00  0.47544877212E+01  0.00000000000E+00 0. -1.
</event>
<event>
 7    1  0.2642243E-009  0.4778727E+02  0.7816164E-02  0.1312668E+00
        -11   -1    0    0    0    0  0.00000000000E+00  0.00000000000E+00  0.45593999997E+02  0.45594000000E+02  0.51100000000E-03 0.  1.
         11   -1    0    0    0    0 -0.00000000000E+00 -0.00000000000E+00 -0.45593999997E+02  0.45594000000E+02  0.51100000000E-03 0. -1.
    9900012    2    1    2    0    0  0.29818035936E+02  0.26837065580E+02 -0.16561401056E+02  0.47787270041E+02  0.19999995424E+02 0.  0.
        -12    1    1    2    0    0 -0.29818035936E+02 -0.26837065580E+02  0.16561401056E+02  0.43400729959E+02  0.00000000000E+00 0.  1.
         11    1    3    3    0    0 -0.13527401623E+01  0.23872296306E+01  0.14142683053E+01  0.30868959096E+01  0.51100000000E-03 0. -1.
        -11    1    3    3    0    0  0.18094789777E+02  0.99048080869E+01 -0.49894607483E+01  0.21223132642E+02  0.51100000000E-03 0.  1.
         12    1    3    3    0    0  0.13075986321E+02  0.14545027862E+02 -0.12986208613E+02  0.23477241489E+02  0.00000000000E+00 0. -1.
</event>
<event>
 7    1  0.2642243E-009  0.4778727E+02  0.7816164E-02  0.1312668E+00
        -11   -1    0    0    0    0  0.00000000000E+00  0.00000000000E+00  0.45593999997E+02  0.45594000000E+02  0.51100000000E-03 0.  1.
         11   -1    0    0    0    0 -0.00000000000E+00 -0.00000000000E+00 -0.45593999997E+02  0.45594000000E+02  0.51100000000E-03 0. -1.
    9900012    2    1    2    0    0  0.40901444537E+02 -0.36964844640E+01 -0.14036777079E+02  0.47787271050E+02  0.20000000025E+02 0.  0.
        -12    1    1    2    0    0 -0.40901444537E+02  0.36964844640E+01  0.14036777079E+02  0.43400728950E+02  0.00000000000E+00 0.  1.
         11    1    3    3    0    0  0.28473334458E+02 -0.11629303622E+01 -0.24667036474E+01  0.28603632799E+02  0.51100000000E-03 0. -1.
        -11    1    3    3    0    0  0.26877063447E+01  0.22465317285E+01 -0.60961743337E+01  0.70309325107E+01  0.51100000000E-03 0.  1.
         12    1    3    3    0    0  0.97404037348E+01 -0.47800858304E+01 -0.54738990979E+01  0.12152705740E+02  0.00000000000E+00 0. -1.
</event>
<event>
 7    1  0.2642243E-009  0.4778727E+02  0.7816164E-02  0.1312668E+00
        -11   -1    0    0    0    0  0.00000000000E+00  0.00000000000E+00  0.45593999997E+02  0.45594000000E+02  0.51100000000E-03 0.  1.
         11   -1    0    0    0    0 -0.00000000000E+00 -0.00000000000E+00 -0.45593999997E+02  0.45594000000E+02  0.51100000000E-03 0. -1.
    9900012    2    1    2    0    0 -0.40570236582E+02  0.87616773945E+00 -0.15391943296E+02  0.47787266312E+02  0.19999978423E+02 0.  0.
        -12    1    1    2    0    0  0.40570236582E+02 -0.87616773945E+00  0.15391943296E+02  0.43400733688E+02  0.00000000000E+00 0.  1.
         11    1    3    3    0    0 -0.62728696030E+01 -0.55001837425E+01 -0.54321083639E+01  0.99553360464E+01  0.51100000000E-03 0. -1.
        -11    1    3    3    0    0 -0.32991033327E+02  0.34949644953E+01 -0.80566076269E+01  0.34139888452E+02  0.51100000000E-03 0.  1.
         12    1    3    3    0    0 -0.13063336522E+01  0.28813869867E+01 -0.19032273055E+01  0.36920418137E+01  0.00000000000E+00 0. -1.
</event>
<event>
 7    1  0.2642243E-009  0.4778727E+02  0.7816164E-02  0.1312668E+00
        -11   -1    0    0    0    0  0.00000000000E+00  0.00000000000E+00  0.45593999997E+02  0.45594000000E+02  0.51100000000E-03 0. -1.
         11   -1    0    0    0    0 -0.00000000000E+00 -0.00000000000E+00 -0.45593999997E+02  0.45594000000E+02  0.51100000000E-03 0.  1.
    9900012    2    1    2    0    0  0.36393707479E+02 -0.21301596089E+02  0.10264665266E+02  0.47787270824E+02  0.19999998994E+02 0.  0.
        -12    1    1    2    0    0 -0.36393707479E+02  0.21301596089E+02 -0.10264665266E+02  0.43400729176E+02  0.00000000000E+00 0.  1.
         11    1    3    3    0    0  0.19374298872E+02 -0.59012087718E+01  0.72217029096E+01  0.21502109546E+02  0.51100000000E-03 0. -1.
        -11    1    3    3    0    0  0.24302077314E+01 -0.18471609411E+01 -0.41158506742E+01  0.51242697230E+01  0.51100000000E-03 0.  1.
        -12    1    3    3    0    0  0.14589200875E+02 -0.13553226376E+02  0.71588130301E+01  0.21160891554E+02  0.00000000000E+00 0.  1.
</event>
<event>
 7    1  0.2642243E-009  0.4778727E+02  0.7816164E-02  0.1312668E+00
        -11   -1    0    0    0    0  0.00000000000E+00  0.00000000000E+00  0.45593999997E+02  0.45594000000E+02  0.51100000000E-03 0.  1.
         11   -1    0    0    0    0 -0.00000000000E+00 -0.00000000000E+00 -0.45593999997E+02  0.45594000000E+02  0.51100000000E-03 0. -1.
    9900012    2    1    2    0    0  0.35248984104E+01 -0.41467320383E+02  0.12315025843E+02  0.47787269245E+02  0.19999991795E+02 0.  0.
        -12    1    1    2    0    0 -0.35248984104E+01  0.41467320383E+02 -0.12315025843E+02  0.43400730755E+02  0.00000000000E+00 0.  1.
         11    1    3    3    0    0 -0.58865172890E+00 -0.34654491384E+01  0.85074271134E+01  0.92050076013E+01  0.51100000000E-03 0.  1.
        -11    1    3    3    0    0  0.10480021248E+01 -0.24215794955E+02  0.31723686143E+01  0.24445182687E+02  0.51100000000E-03 0. -1.
        -12    1    3    3    0    0  0.30655480145E+01 -0.13786076290E+02  0.63523011568E+00  0.14137078956E+02  0.00000000000E+00 0.  1.
</event>
<event>
 7    1  0.2642243E-009  0.4778727E+02  0.7816164E-02  0.1312668E+00
        -11   -1    0    0    0    0  0.00000000000E+00  0.00000000000E+00  0.45593999997E+02  0.45594000000E+02  0.51100000000E-03 0.  1.
         11   -1    0    0    0    0 -0.00000000000E+00 -0.00000000000E+00 -0.45593999997E+02  0.45594000000E+02  0.51100000000E-03 0. -1.
    9900012    2    1    2    0    0  0.23853595071E+01  0.42978313199E+02  0.55496002065E+01  0.47787269501E+02  0.19999992963E+02 0.  0.
        -12    1    1    2    0    0 -0.23853595071E+01 -0.42978313199E+02 -0.55496002065E+01  0.43400730499E+02  0.00000000000E+00 0.  1.
         11    1    3    3    0    0  0.72212965834E+01  0.20289072392E+02  0.21794466838E+01  0.21645867296E+02  0.51100000000E-03 0. -1.
        -11    1    3    3    0    0 -0.42130502940E+01  0.94791251889E+01  0.68940348174E+01  0.12455172558E+02  0.51100000000E-03 0.  1.
        -12    1    3    3    0    0 -0.62288678228E+00  0.13210115618E+02 -0.35238812947E+01  0.13686229647E+02  0.00000000000E+00 0.  1.
</event>
<event>
 7    1  0.2642243E-009  0.4778727E+02  0.7816164E-02  0.1312668E+00
        -11   -1    0    0    0    0  0.00000000000E+00  0.00000000000E+00  0.45593999997E+02  0.45594000000E+02  0.51100000000E-03 0.  1.
         11   -1    0    0    0    0 -0.00000000000E+00 -0.00000000000E+00 -0.45593999997E+02  0.45594000000E+02  0.51100000000E-03 0. -1.
    9900012    2    1    2    0    0  0.12753244831E+02 -0.32346093516E+02 -0.25975144628E+02  0.47787272380E+02  0.20000006091E+02 0.  0.
        -12    1    1    2    0    0 -0.12753244831E+02  0.32346093516E+02  0.25975144628E+02  0.43400727620E+02  0.00000000000E+00 0.  1.
         11    1    3    3    0    0  0.82379453036E+01 -0.22597405515E+01 -0.10654903583E+02  0.13656395601E+02  0.51100000000E-03 0.  1.
        -11    1    3    3    0    0  0.27290536381E+01 -0.22812669102E+02 -0.10849367591E+02  0.25408155830E+02  0.51100000000E-03 0. -1.
        -12    1    3    3    0    0  0.17862458897E+01 -0.72736838630E+01 -0.44708734529E+01  0.87227209487E+01  0.00000000000E+00 0.  1.
</event>
<event>
 7    1  0.2642243E-009  0.4778728E+02  0.7816164E-02  0.1312668E+00
        -11   -1    0    0    0    0  0.00000000000E+00  0.00000000000E+00  0.45593999997E+02  0.45594000000E+02  0.51100000000E-03 0.  1.
         11   -1    0    0    0    0 -0.00000000000E+00 -0.00000000000E+00 -0.45593999997E+02  0.45594000000E+02  0.51100000000E-03 0. -1.
    9900012    2    1    2    0    0  0.27504958794E+02 -0.37180744193E+01 -0.33365790679E+02  0.47787276236E+02  0.20000023670E+02 0.  0.
        -12    1    1    2    0    0 -0.27504958794E+02  0.37180744193E+01  0.33365790679E+02  0.43400723764E+02  0.00000000000E+00 0.  1.
         11    1    3    3    0    0  0.11859348042E+02  0.37360994191E+01 -0.21023630611E+02  0.24425306941E+02  0.51100000000E-03 0. -1.
        -11    1    3    3    0    0  0.51873038932E+01 -0.73838461225E+01 -0.79216898413E+01  0.12007600736E+02  0.51100000000E-03 0.  1.
        -12    1    3    3    0    0  0.10458306859E+02 -0.70327715894E-01 -0.44204702263E+01  0.11354368558E+02  0.00000000000E+00 0.  1.
</event>
<event>
 7    1  0.2642243E-009  0.4778729E+02  0.7816164E-02  0.1312668E+00
        -11   -1    0    0    0    0  0.00000000000E+00  0.00000000000E+00  0.45593999997E+02  0.45594000000E+02  0.51100000000E-03 0.  1.
         11   -1    0    0    0    0 -0.00000000000E+00 -0.00000000000E+00 -0.45593999997E+02  0.45594000000E+02  0.51100000000E-03 0. -1.
    9900012    2    1    2    0    0 -0.17816463767E+02  0.27530457713E+02 -0.28430068974E+02  0.47787293728E+02  0.20000103422E+02 0.  0.
        -12    1    1    2    0    0  0.17816463767E+02 -0.27530457713E+02  0.28430068974E+02  0.43400706272E+02  0.00000000000E+00 0.  1.
         11    1    3    3    0    0 -0.13209566683E+02  0.23417393274E+02 -0.16120299474E+02  0.31348540877E+02  0.51100000000E-03 0. -1.
        -11    1    3    3    0    0 -0.34137452387E+01  0.65928345726E+00  0.12413327271E+00  0.34790401783E+01  0.51100000000E-03 0.  1.
         12    1    3    3    0    0 -0.11931518445E+01  0.34537809819E+01 -0.12433902773E+02  0.12959712673E+02  0.00000000000E+00 0. -1.
</event>
<event>
 7    1  0.2642243E-009  0.4778727E+02  0.7816164E-02  0.1312668E+00
        -11   -1    0    0    0    0  0.00000000000E+00  0.00000000000E+00  0.45593999997E+02  0.45594000000E+02  0.51100000000E-03 0.  1.
         11   -1    0    0    0    0 -0.00000000000E+00 -0.00000000000E+00 -0.45593999997E+02  0.45594000000E+02  0.51100000000E-03 0. -1.
    9900012    2    1    2    0    0 -0.22504474515E+02  0.31274428441E+02 -0.19977038383E+02  0.47787270627E+02  0.19999998097E+02 0.  0.
        -12    1    1    2    0    0  0.22504474515E+02 -0.31274428441E+02  0.19977038383E+02  0.43400729373E+02  0.00000000000E+00 0.  1.
         11    1    3    3    0    0 -0.10392720934E+02  0.25345915241E+02 -0.16465175821E+02  0.31961321670E+02  0.51100000000E-03 0. -1.
        -11    1    3    3    0    0  0.46485611353E+00  0.22774011417E+01 -0.31573801068E+00  0.23457062730E+01  0.51100000000E-03 0.  1.
         12    1    3    3    0    0 -0.12576609695E+02  0.36511120590E+01 -0.31961245515E+01  0.13480242684E+02  0.00000000000E+00 0. -1.
</event>
<event>
 7    1  0.2642243E-009  0.4778727E+02  0.7816164E-02  0.1312668E+00
        -11   -1    0    0    0    0  0.00000000000E+00  0.00000000000E+00  0.45593999997E+02  0.45594000000E+02  0.51100000000E-03 0.  1.
         11   -1    0    0    0    0 -0.00000000000E+00 -0.00000000000E+00 -0.45593999997E+02  0.45594000000E+02  0.51100000000E-03 0. -1.
    9900012    2    1    2    0    0 -0.23776418016E+01 -0.21301537468E+02 -0.37738770331E+02  0.47787268841E+02  0.19999989955E+02 0.  0.
        -12    1    1    2    0    0  0.23776418016E+01  0.21301537468E+02  0.37738770331E+02  0.43400731159E+02  0.00000000000E+00 0.  1.
         11    1    3    3    0    0  0.29634787084E+01 -0.31868879574E+00 -0.16925613234E+01  0.34276132656E+01  0.51100000000E-03 0. -1.
        -11    1    3    3    0    0 -0.95319994786E+01 -0.17476929034E+02 -0.24363870350E+02  0.31462680134E+02  0.51100000000E-03 0.  1.
        -12    1    3    3    0    0  0.41908789686E+01 -0.35059196384E+01 -0.11682338657E+02  0.12896975442E+02  0.00000000000E+00 0.  1.
</event>
<event>
 7    1  0.2642243E-009  0.4778727E+02  0.7816164E-02  0.1312668E+00
        -11   -1    0    0    0    0  0.00000000000E+00  0.00000000000E+00  0.45593999997E+02  0.45594000000E+02  0.51100000000E-03 0. -1.
         11   -1    0    0    0    0 -0.00000000000E+00 -0.00000000000E+00 -0.45593999997E+02  0.45594000000E+02  0.51100000000E-03 0.  1.
    9900012    2    1    2    0    0  0.15023866415E+02  0.40327287385E+02  0.56228888196E+01  0.47787267880E+02  0.19999985572E+02 0.  0.
        -12    1    1    2    0    0 -0.15023866415E+02 -0.40327287385E+02 -0.56228888196E+01  0.43400732120E+02  0.00000000000E+00 0.  1.
         11    1    3    3    0    0  0.10532095129E+02  0.19104836627E+02  0.10100804515E+02  0.24040508782E+02  0.51100000000E-03 0. -1.
        -11    1    3    3    0    0  0.44716373513E+01  0.21261776846E+02 -0.26154476208E+01  0.21883767083E+02  0.51100000000E-03 0.  1.
         12    1    3    3    0    0  0.20133934655E-01 -0.39326088251E-01 -0.18624680750E+01  0.18629920147E+01  0.00000000000E+00 0. -1.
</event>
<event>
 7    1  0.2642243E-009  0.4778727E+02  0.7816164E-02  0.1312668E+00
        -11   -1    0    0    0    0  0.00000000000E+00  0.00000000000E+00  0.45593999997E+02  0.45594000000E+02  0.51100000000E-03 0. -1.
         11   -1    0    0    0    0 -0.00000000000E+00 -0.00000000000E+00 -0.45593999997E+02  0.45594000000E+02  0.51100000000E-03 0.  1.
    9900012    2    1    2    0    0  0.23338307661E+02 -0.32461468191E+02  0.16887856333E+02  0.47787271744E+02  0.20000003192E+02 0.  0.
        -12    1    1    2    0    0 -0.23338307661E+02  0.32461468191E+02 -0.16887856333E+02  0.43400728256E+02  0.00000000000E+00 0.  1.
         11    1    3    3    0    0  0.15631303878E+02 -0.17572305523E+02  0.14982047693E+02  0.27885217153E+02  0.51100000000E-03 0. -1.
        -11    1    3    3    0    0 -0.11843572464E+01 -0.82120049037E+01 -0.11353451405E+01  0.83742901475E+01  0.51100000000E-03 0.  1.
        -12    1    3    3    0    0  0.88913610297E+01 -0.66771577641E+01  0.30411537806E+01  0.11527764444E+02  0.00000000000E+00 0.  1.
</event>
<event>
 7    1  0.2642243E-009  0.4778727E+02  0.7816164E-02  0.1312668E+00
        -11   -1    0    0    0    0  0.00000000000E+00  0.00000000000E+00  0.45593999997E+02  0.45594000000E+02  0.51100000000E-03 0.  1.
         11   -1    0    0    0    0 -0.00000000000E+00 -0.00000000000E+00 -0.45593999997E+02  0.45594000000E+02  0.51100000000E-03 0. -1.
    9900012    2    1    2    0    0  0.16216309735E+01  0.30839890850E+01 -0.43260639616E+02  0.47787267107E+02  0.19999982046E+02 0.  0.
        -12    1    1    2    0    0 -0.16216309735E+01 -0.30839890850E+01  0.43260639616E+02  0.43400732893E+02  0.00000000000E+00 0.  1.
         11    1    3    3    0    0  0.37015594253E+01  0.33940544083E+01 -0.19684985803E+02  0.20315506733E+02  0.51100000000E-03 0. -1.
        -11    1    3    3    0    0 -0.31269499935E+01  0.40125778684E+01 -0.20387895843E+01  0.54804434713E+01  0.51100000000E-03 0.  1.
        -12    1    3    3    0    0  0.10470215417E+01 -0.43226431918E+01 -0.21536864229E+02  0.21991316902E+02  0.00000000000E+00 0.  1.
</event>
<event>
 7    1  0.2642243E-009  0.4778727E+02  0.7816164E-02  0.1312668E+00
        -11   -1    0    0    0    0  0.00000000000E+00  0.00000000000E+00  0.45593999997E+02  0.45594000000E+02  0.51100000000E-03 0. -1.
         11   -1    0    0    0    0 -0.00000000000E+00 -0.00000000000E+00 -0.45593999997E+02  0.45594000000E+02  0.51100000000E-03 0.  1.
    9900012    2    1    2    0    0 -0.43362193375E+02  0.23474368953E+00 -0.18133034122E+01  0.47787274336E+02  0.20000015006E+02 0.  0.
        -12    1    1    2    0    0  0.43362193375E+02 -0.23474368953E+00  0.18133034122E+01  0.43400725664E+02  0.00000000000E+00 0.  1.
         11    1    3    3    0    0 -0.46842358309E+01 -0.50068645312E+01 -0.99447889878E+00  0.69281849206E+01  0.51100000000E-03 0. -1.
        -11    1    3    3    0    0 -0.34458770279E+02  0.10499739115E+01 -0.28053416456E+01  0.34588715448E+02  0.51100000000E-03 0.  1.
        -12    1    3    3    0    0 -0.42191872656E+01  0.41916343093E+01  0.19865171323E+01  0.62703739667E+01  0.00000000000E+00 0.  1.
</event>
<event>
 7    1  0.2642243E-009  0.4778727E+02  0.7816164E-02  0.1312668E+00
        -11   -1    0    0    0    0  0.00000000000E+00  0.00000000000E+00  0.45593999997E+02  0.45594000000E+02  0.51100000000E-03 0.  1.
         11   -1    0    0    0    0 -0.00000000000E+00 -0.00000000000E+00 -0.45593999997E+02  0.45594000000E+02  0.51100000000E-03 0. -1.
    9900012    2    1    2    0    0  0.26249874340E+01  0.18856749454E+02 -0.39001993757E+02  0.47787273324E+02  0.20000010394E+02 0.  0.
        -12    1    1    2    0    0 -0.26249874340E+01 -0.18856749454E+02  0.39001993757E+02  0.43400726676E+02  0.00000000000E+00 0.  1.
         11    1    3    3    0    0 -0.60132694249E+00  0.22006102021E+02 -0.31376754090E+02  0.38329242332E+02  0.51100000000E-03 0. -1.
        -11    1    3    3    0    0  0.26806649757E+01 -0.59582714336E+00 -0.25356940222E+01  0.37377425182E+01  0.51100000000E-03 0.  1.
         12    1    3    3    0    0  0.54564940071E+00 -0.25535254236E+01 -0.50895456449E+01  0.57202884743E+01  0.00000000000E+00 0. -1.
</event>
<event>
 7    1  0.2642243E-009  0.4778727E+02  0.7816164E-02  0.1312668E+00
        -11   -1    0    0    0    0  0.00000000000E+00  0.00000000000E+00  0.45593999997E+02  0.45594000000E+02  0.51100000000E-03 0. -1.
         11   -1    0    0    0    0 -0.00000000000E+00 -0.00000000000E+00 -0.45593999997E+02  0.45594000000E+02  0.51100000000E-03 0.  1.
    9900012    2    1    2    0    0 -0.25463712142E+02 -0.77332501629E+01  0.34284394590E+02  0.47787268364E+02  0.19999987780E+02 0.  0.
        -12    1    1    2    0    0  0.25463712142E+02  0.77332501629E+01 -0.34284394590E+02  0.43400731636E+02  0.00000000000E+00 0.  1.
         11    1    3    3    0    0 -0.93971265569E+01 -0.37451070936E+00  0.77907151228E+01  0.12212349822E+02  0.51100000000E-03 0. -1.
        -11    1    3    3    0    0 -0.16512333854E+02 -0.93613123373E+01  0.15830910634E+02  0.24716574798E+02  0.51100000000E-03 0.  1.
        -12    1    3    3    0    0  0.44574826911E+00  0.20025728837E+01  0.10662768833E+02  0.10858343744E+02  0.00000000000E+00 0.  1.
</event>
<event>
 7    1  0.2642243E-009  0.4778727E+02  0.7816164E-02  0.1312668E+00
        -11   -1    0    0    0    0  0.00000000000E+00  0.00000000000E+00  0.45593999997E+02  0.45594000000E+02  0.51100000000E-03 0. -1.
         11   -1    0    0    0    0 -0.00000000000E+00 -0.00000000000E+00 -0.45593999997E+02  0.45594000000E+02  0.51100000000E-03 0.  1.
    9900012    2    1    2    0    0 -0.26541868148E+02 -0.30451203695E+02  0.15870628324E+02  0.47787269422E+02  0.19999992602E+02 0.  0.
        -12    1    1    2    0    0  0.26541868148E+02  0.30451203695E+02 -0.15870628324E+02  0.43400730578E+02  0.00000000000E+00 0.  1.
         11    1    3    3    0    0 -0.18953918835E+02 -0.23727444368E+02  0.56270270114E+01  0.30885370140E+02  0.51100000000E-03 0. -1.
        -11    1    3    3    0    0 -0.68525689041E+01 -0.49346640736E+01  0.11736330819E+02  0.14458563949E+02  0.51100000000E-03 0.  1.
        -12    1    3    3    0    0 -0.73538040965E+00 -0.17890952536E+01 -0.14927295058E+01  0.24433353333E+01  0.00000000000E+00 0.  1.
</event>
<event>
 7    1  0.2642243E-009  0.4778727E+02  0.7816164E-02  0.1312668E+00
        -11   -1    0    0    0    0  0.00000000000E+00  0.00000000000E+00  0.45593999997E+02  0.45594000000E+02  0.51100000000E-03 0.  1.
         11   -1    0    0    0    0 -0.00000000000E+00 -0.00000000000E+00 -0.45593999997E+02  0.45594000000E+02  0.51100000000E-03 0. -1.
    9900012    2    1    2    0    0  0.91329828328E+01 -0.22587326803E+02 -0.35916913972E+02  0.47787269398E+02  0.19999992492E+02 0.  0.
        -12    1    1    2    0    0 -0.91329828328E+01  0.22587326803E+02  0.35916913972E+02  0.43400730602E+02  0.00000000000E+00 0.  1.
         11    1    3    3    0    0  0.74021652538E+01 -0.51876623444E+01 -0.41051576362E+01  0.99275480620E+01  0.51100000000E-03 0.  1.
        -11    1    3    3    0    0 -0.18355156760E+01  0.20813118671E+00 -0.78518013318E+00  0.20072230794E+01  0.51100000000E-03 0. -1.
         12    1    3    3    0    0  0.35663332550E+01 -0.17607795646E+02 -0.31026576202E+02  0.35852498256E+02  0.00000000000E+00 0. -1.
</event>
<event>
 7    1  0.2642243E-009  0.4778730E+02  0.7816164E-02  0.1312668E+00
        -11   -1    0    0    0    0  0.00000000000E+00  0.00000000000E+00  0.45593999997E+02  0.45594000000E+02  0.51100000000E-03 0.  1.
         11   -1    0    0    0    0 -0.00000000000E+00 -0.00000000000E+00 -0.45593999997E+02  0.45594000000E+02  0.51100000000E-03 0. -1.
    9900012    2    1    2    0    0 -0.19311547469E+02  0.24222232777E+01 -0.38791985238E+02  0.47787295513E+02  0.20000111560E+02 0.  0.
        -12    1    1    2    0    0  0.19311547469E+02 -0.24222232777E+01  0.38791985238E+02  0.43400704487E+02  0.00000000000E+00 0.  1.
         11    1    3    3    0    0 -0.79152981732E+01  0.85375583530E+00 -0.20521400191E+02  0.22011558560E+02  0.51100000000E-03 0. -1.
        -11    1    3    3    0    0 -0.88339659640E+00 -0.54321606105E+01 -0.47054501038E+01  0.72408576415E+01  0.51100000000E-03 0.  1.
        -12    1    3    3    0    0 -0.10512852700E+02  0.70006280529E+01 -0.13565134944E+02  0.18534879311E+02  0.00000000000E+00 0.  1.
</event>
<event>
 7    1  0.2642243E-009  0.4778727E+02  0.7816164E-02  0.1312668E+00
        -11   -1    0    0    0    0  0.00000000000E+00  0.00000000000E+00  0.45593999997E+02  0.45594000000E+02  0.51100000000E-03 0.  1.
         11   -1    0    0    0    0 -0.00000000000E+00 -0.00000000000E+00 -0.45593999997E+02  0.45594000000E+02  0.51100000000E-03 0. -1.
    9900012    2    1    2    0    0  0.21246272415E+02 -0.23988864466E+02 -0.29270347889E+02  0.47787274483E+02  0.20000015677E+02 0.  0.
        -12    1    1    2    0    0 -0.21246272415E+02  0.23988864466E+02  0.29270347889E+02  0.43400725517E+02  0.00000000000E+00 0.  1.
         11    1    3    3    0    0  0.88357776501E+01 -0.50398664300E+01 -0.60189871899E+01  0.11819451230E+02  0.51100000000E-03 0. -1.
        -11    1    3    3    0    0  0.76381409386E+00  0.26152327368E+01 -0.38146486459E+01  0.46876858673E+01  0.51100000000E-03 0.  1.
        -12    1    3    3    0    0  0.11646680671E+02 -0.21564230773E+02 -0.19436712053E+02  0.31280137386E+02  0.00000000000E+00 0.  1.
</event>
<event>
 7    1  0.2642243E-009  0.4778727E+02  0.7816164E-02  0.1312668E+00
        -11   -1    0    0    0    0  0.00000000000E+00  0.00000000000E+00  0.45593999997E+02  0.45594000000E+02  0.51100000000E-03 0.  1.
         11   -1    0    0    0    0 -0.00000000000E+00 -0.00000000000E+00 -0.45593999997E+02  0.45594000000E+02  0.51100000000E-03 0. -1.
    9900012    2    1    2    0    0 -0.30312192455E+02  0.25451337830E+01 -0.30956691360E+02  0.47787268930E+02  0.19999990362E+02 0.  0.
        -12    1    1    2    0    0  0.30312192455E+02 -0.25451337830E+01  0.30956691360E+02  0.43400731070E+02  0.00000000000E+00 0.  1.
         11    1    3    3    0    0 -0.21080541795E+02 -0.50333359845E+01 -0.24771539764E+02  0.32914326608E+02  0.51100000000E-03 0. -1.
        -11    1    3    3    0    0 -0.69134487508E+01  0.45773719941E+01 -0.86057428519E+00  0.83359880257E+01  0.51100000000E-03 0.  1.
         12    1    3    3    0    0 -0.23182019085E+01  0.30010977734E+01 -0.53245773117E+01  0.65369542971E+01  0.00000000000E+00 0. -1.
</event>
<event>
 7    1  0.2642243E-009  0.4778727E+02  0.7816164E-02  0.1312668E+00
        -11   -1    0    0    0    0  0.00000000000E+00  0.00000000000E+00  0.45593999997E+02  0.45594000000E+02  0.51100000000E-03 0. -1.
         11   -1    0    0    0    0 -0.00000000000E+00 -0.00000000000E+00 -0.45593999997E+02  0.45594000000E+02  0.51100000000E-03 0.  1.
    9900012    2    1    2    0    0 -0.34142708896E+02  0.15381347441E+02 -0.21938843987E+02  0.47787270797E+02  0.19999998872E+02 0.  0.
        -12    1    1    2    0    0  0.34142708896E+02 -0.15381347441E+02  0.21938843987E+02  0.43400729203E+02  0.00000000000E+00 0.  1.
         11    1    3    3    0    0 -0.17395715253E+02  0.44758572275E+01 -0.86543414569E+01  0.19938451128E+02  0.51100000000E-03 0. -1.
        -11    1    3    3    0    0 -0.61245764220E+01  0.10220579980E+02 -0.12354108351E+02  0.17163760803E+02  0.51100000000E-03 0.  1.
        -12    1    3    3    0    0 -0.10622417221E+02  0.68491023370E+00 -0.93039417908E+00  0.10685058866E+02  0.00000000000E+00 0.  1.
</event>
<event>
 7    1  0.2642243E-009  0.4778727E+02  0.7816164E-02  0.1312668E+00
        -11   -1    0    0    0    0  0.00000000000E+00  0.00000000000E+00  0.45593999997E+02  0.45594000000E+02  0.51100000000E-03 0. -1.
         11   -1    0    0    0    0 -0.00000000000E+00 -0.00000000000E+00 -0.45593999997E+02  0.45594000000E+02  0.51100000000E-03 0.  1.
    9900012    2    1    2    0    0 -0.14893627675E+01 -0.43369313664E+02  0.71246734924E+00  0.47787272139E+02  0.20000004992E+02 0.  0.
        -12    1    1    2    0    0  0.14893627675E+01  0.43369313664E+02 -0.71246734924E+00  0.43400727861E+02  0.00000000000E+00 0.  1.
         11    1    3    3    0    0  0.56817459491E+01 -0.57794168236E+01  0.29074040245E+01  0.86102784086E+01  0.51100000000E-03 0. -1.
        -11    1    3    3    0    0 -0.22943112556E+01 -0.33581544220E+01 -0.21482721789E+01  0.45995802934E+01  0.51100000000E-03 0.  1.
         12    1    3    3    0    0 -0.48767974609E+01 -0.34231742418E+02 -0.46664496328E-01  0.34577413437E+02  0.00000000000E+00 0. -1.
</event>
<event>
 7    1  0.2642243E-009  0.4778727E+02  0.7816164E-02  0.1312668E+00
        -11   -1    0    0    0    0  0.00000000000E+00  0.00000000000E+00  0.45593999997E+02  0.45594000000E+02  0.51100000000E-03 0.  1.
         11   -1    0    0    0    0 -0.00000000000E+00 -0.00000000000E+00 -0.45593999997E+02  0.45594000000E+02  0.51100000000E-03 0. -1.
    9900012    2    1    2    0    0 -0.21046617745E+02  0.37785808098E+02 -0.35910713380E+01  0.47787271832E+02  0.20000003592E+02 0.  0.
        -12    1    1    2    0    0  0.21046617745E+02 -0.37785808098E+02  0.35910713380E+01  0.43400728168E+02  0.00000000000E+00 0.  1.
         11    1    3    3    0    0  0.17031995179E-01  0.12694392795E+02 -0.54337347323E+01  0.13808452916E+02  0.51100000000E-03 0. -1.
        -11    1    3    3    0    0 -0.20616298314E+02  0.24611602964E+02  0.88083767008E-01  0.32105615017E+02  0.51100000000E-03 0.  1.
        -12    1    3    3    0    0 -0.44735142601E+00  0.47981233924E+00  0.17545796273E+01  0.18732038992E+01  0.00000000000E+00 0.  1.
</event>
<event>
 7    1  0.2642243E-009  0.4778728E+02  0.7816164E-02  0.1312668E+00
        -11   -1    0    0    0    0  0.00000000000E+00  0.00000000000E+00  0.45593999997E+02  0.45594000000E+02  0.51100000000E-03 0.  1.
         11   -1    0    0    0    0 -0.00000000000E+00 -0.00000000000E+00 -0.45593999997E+02  0.45594000000E+02  0.51100000000E-03 0. -1.
    9900012    2    1    2    0    0  0.18074038939E+02 -0.39455264323E+02  0.48354415549E+00  0.47787279023E+02  0.20000036378E+02 0.  0.
        -12    1    1    2    0    0 -0.18074038939E+02  0.39455264323E+02 -0.48354415549E+00  0.43400720977E+02  0.00000000000E+00 0.  1.
         11    1    3    3    0    0  0.13026683219E+02 -0.12598669052E+02  0.27631184454E+01  0.18331823733E+02  0.51100000000E-03 0.  1.
        -11    1    3    3    0    0  0.18772403763E+01 -0.22644079409E+01  0.28933919910E+01  0.41259292563E+01  0.51100000000E-03 0. -1.
         12    1    3    3    0    0  0.31701153436E+01 -0.24592187330E+02 -0.51729662809E+01  0.25329526034E+02  0.00000000000E+00 0. -1.
</event>
<event>
 7    1  0.2642243E-009  0.4778727E+02  0.7816164E-02  0.1312668E+00
        -11   -1    0    0    0    0  0.00000000000E+00  0.00000000000E+00  0.45593999997E+02  0.45594000000E+02  0.51100000000E-03 0.  1.
         11   -1    0    0    0    0 -0.00000000000E+00 -0.00000000000E+00 -0.45593999997E+02  0.45594000000E+02  0.51100000000E-03 0. -1.
    9900012    2    1    2    0    0  0.41181507907E+02 -0.95280219598E+01 -0.98449724062E+01  0.47787271002E+02  0.19999999804E+02 0.  0.
        -12    1    1    2    0    0 -0.41181507907E+02  0.95280219598E+01  0.98449724062E+01  0.43400728998E+02  0.00000000000E+00 0.  1.
         11    1    3    3    0    0  0.45104465883E+01  0.59319231944E+00 -0.22026796616E+01  0.50544835054E+01  0.51100000000E-03 0. -1.
        -11    1    3    3    0    0  0.23168383229E+02 -0.25491988489E+01  0.36213967497E+01  0.23587855156E+02  0.51100000000E-03 0.  1.
        -12    1    3    3    0    0  0.13502678090E+02 -0.75720154303E+01 -0.11263689494E+02  0.19144932340E+02  0.00000000000E+00 0.  1.
</event>
<event>
 7    1  0.2642243E-009  0.4778727E+02  0.7816164E-02  0.1312668E+00
        -11   -1    0    0    0    0  0.00000000000E+00  0.00000000000E+00  0.45593999997E+02  0.45594000000E+02  0.51100000000E-03 0.  1.
         11   -1    0    0    0    0 -0.00000000000E+00 -0.00000000000E+00 -0.45593999997E+02  0.45594000000E+02  0.51100000000E-03 0. -1.
    9900012    2    1    2    0    0 -0.20267509339E+02 -0.26858948271E+02 -0.27412558627E+02  0.47787269505E+02  0.19999992980E+02 0.  0.
        -12    1    1    2    0    0  0.20267509339E+02  0.26858948271E+02  0.27412558627E+02  0.43400730495E+02  0.00000000000E+00 0.  1.
         11    1    3    3    0    0  0.17149718842E+01 -0.51422446685E+01 -0.38611512437E+00  0.54344175350E+01  0.51100000000E-03 0. -1.
        -11    1    3    3    0    0 -0.20086293611E+02 -0.22700641240E+02 -0.24072640585E+02  0.38707497061E+02  0.51100000000E-03 0.  1.
         12    1    3    3    0    0 -0.18961876124E+01  0.98393763718E+00 -0.29538029176E+01  0.36453549088E+01  0.00000000000E+00 0. -1.
</event>
<event>
 7    1  0.2642243E-009  0.4778727E+02  0.7816164E-02  0.1312668E+00
        -11   -1    0    0    0    0  0.00000000000E+00  0.00000000000E+00  0.45593999997E+02  0.45594000000E+02  0.51100000000E-03 0. -1.
         11   -1    0    0    0    0 -0.00000000000E+00 -0.00000000000E+00 -0.45593999997E+02  0.45594000000E+02  0.51100000000E-03 0.  1.
    9900012    2    1    2    0    0  0.17218840048E+02  0.19299298278E+02  0.34852144433E+02  0.47787270303E+02  0.19999996621E+02 0.  0.
        -12    1    1    2    0    0 -0.17218840048E+02 -0.19299298278E+02 -0.34852144433E+02  0.43400729697E+02  0.00000000000E+00 0.  1.
         11    1    3    3    0    0 -0.32014494322E+01 -0.22485590751E+00  0.51768471743E+01  0.60909429133E+01  0.51100000000E-03 0.  1.
        -11    1    3    3    0    0  0.17908752105E+02  0.13096879407E+02  0.24620693326E+02  0.33142573712E+02  0.51100000000E-03 0. -1.
         12    1    3    3    0    0  0.25115373754E+01  0.64272747784E+01  0.50546039333E+01  0.85537536782E+01  0.00000000000E+00 0. -1.
</event>
<event>
 7    1  0.2642243E-009  0.4778728E+02  0.7816164E-02  0.1312668E+00
        -11   -1    0    0    0    0  0.00000000000E+00  0.00000000000E+00  0.45593999997E+02  0.45594000000E+02  0.51100000000E-03 0. -1.
         11   -1    0    0    0    0 -0.00000000000E+00 -0.00000000000E+00 -0.45593999997E+02  0.45594000000E+02  0.51100000000E-03 0.  1.
    9900012    2    1    2    0    0  0.39110208320E+02  0.18696956988E+02  0.21066841886E+01  0.47787277498E+02  0.20000029423E+02 0.  0.
        -12    1    1    2    0    0 -0.39110208320E+02 -0.18696956988E+02 -0.21066841886E+01  0.43400722502E+02  0.00000000000E+00 0.  1.
         11    1    3    3    0    0  0.72160081640E+01  0.55663437456E+01  0.18110200857E+01  0.92916495053E+01  0.51100000000E-03 0.  1.
        -11    1    3    3    0    0  0.22884740959E+02  0.14226934055E+02  0.62227902735E+01  0.27655743353E+02  0.51100000000E-03 0. -1.
        -12    1    3    3    0    0  0.90094591974E+01 -0.10963208128E+01 -0.59271261705E+01  0.10839884639E+02  0.00000000000E+00 0.  1.
</event>
<event>
 7    1  0.2642243E-009  0.4778727E+02  0.7816164E-02  0.1312668E+00
        -11   -1    0    0    0    0  0.00000000000E+00  0.00000000000E+00  0.45593999997E+02  0.45594000000E+02  0.51100000000E-03 0.  1.
         11   -1    0    0    0    0 -0.00000000000E+00 -0.00000000000E+00 -0.45593999997E+02  0.45594000000E+02  0.51100000000E-03 0. -1.
    9900012    2    1    2    0    0  0.38666312548E+02  0.65548817891E+01 -0.18589591663E+02  0.47787272822E+02  0.20000008106E+02 0.  0.
        -12    1    1    2    0    0 -0.38666312548E+02 -0.65548817891E+01  0.18589591663E+02  0.43400727178E+02  0.00000000000E+00 0.  1.
         11    1    3    3    0    0  0.24795071594E+02  0.12079635597E+01 -0.18915639290E+02  0.31209872818E+02  0.51100000000E-03 0. -1.
        -11    1    3    3    0    0  0.13789789475E+02  0.43538584095E+01  0.20309264965E+01  0.14602706582E+02  0.51100000000E-03 0.  1.
        -12    1    3    3    0    0  0.81451478590E-01  0.99305981994E+00 -0.17048788699E+01  0.19746934219E+01  0.00000000000E+00 0.  1.
</event>
<event>
 7    1  0.2642243E-009  0.4778727E+02  0.7816164E-02  0.1312668E+00
        -11   -1    0    0    0    0  0.00000000000E+00  0.00000000000E+00  0.45593999997E+02  0.45594000000E+02  0.51100000000E-03 0. -1.
         11   -1    0    0    0    0 -0.00000000000E+00 -0.00000000000E+00 -0.45593999997E+02  0.45594000000E+02  0.51100000000E-03 0.  1.
    9900012    2    1    2    0    0  0.18783050990E+02 -0.32272905485E+02  0.22119667258E+02  0.47787272903E+02  0.20000008473E+02 0.  0.
        -12    1    1    2    0    0 -0.18783050990E+02  0.32272905485E+02 -0.22119667258E+02  0.43400727097E+02  0.00000000000E+00 0.  1.
         11    1    3    3    0    0  0.58434253037E+01 -0.10185224993E+02  0.15014415207E+02  0.19060878566E+02  0.51100000000E-03 0. -1.
        -11    1    3    3    0    0  0.21287437183E+01 -0.62199402167E+01 -0.27715370173E+01  0.71344673114E+01  0.51100000000E-03 0.  1.
         12    1    3    3    0    0  0.10810881968E+02 -0.15867740275E+02  0.98767890687E+01  0.21591927026E+02  0.00000000000E+00 0. -1.
</event>
<event>
 7    1  0.2642243E-009  0.4778727E+02  0.7816164E-02  0.1312668E+00
        -11   -1    0    0    0    0  0.00000000000E+00  0.00000000000E+00  0.45593999997E+02  0.45594000000E+02  0.51100000000E-03 0.  1.
         11   -1    0    0    0    0 -0.00000000000E+00 -0.00000000000E+00 -0.45593999997E+02  0.45594000000E+02  0.51100000000E-03 0. -1.
    9900012    2    1    2    0    0  0.20556376011E+02 -0.37085028885E+02 -0.92606325729E+01  0.47787271000E+02  0.19999999795E+02 0.  0.
        -12    1    1    2    0    0 -0.20556376011E+02  0.37085028885E+02  0.92606325729E+01  0.43400729000E+02  0.00000000000E+00 0.  1.
         11    1    3    3    0    0  0.60354467801E+00 -0.10741387511E+02 -0.60945187473E+01  0.12364660564E+02  0.51100000000E-03 0. -1.
        -11    1    3    3    0    0  0.98502304523E+01 -0.13608232781E+02  0.45846686791E+01  0.17413507015E+02  0.51100000000E-03 0.  1.
        -12    1    3    3    0    0  0.10102600881E+02 -0.12735408593E+02 -0.77507825047E+01  0.18009103421E+02  0.00000000000E+00 0.  1.
</event>
<event>
 7    1  0.2642243E-009  0.4778727E+02  0.7816164E-02  0.1312668E+00
        -11   -1    0    0    0    0  0.00000000000E+00  0.00000000000E+00  0.45593999997E+02  0.45594000000E+02  0.51100000000E-03 0.  1.
         11   -1    0    0    0    0 -0.00000000000E+00 -0.00000000000E+00 -0.45593999997E+02  0.45594000000E+02  0.51100000000E-03 0. -1.
    9900012    2    1    2    0    0  0.19388909818E+02  0.19740427280E+02 -0.33436640210E+02  0.47787271876E+02  0.20000003791E+02 0.  0.
        -12    1    1    2    0    0 -0.19388909818E+02 -0.19740427280E+02  0.33436640210E+02  0.43400728124E+02  0.00000000000E+00 0.  1.
         11    1    3    3    0    0  0.36214075102E+01  0.33728495936E+01 -0.89262384740E+01  0.10206294151E+02  0.51100000000E-03 0. -1.
        -11    1    3    3    0    0  0.11367495284E+02 -0.12283108352E+00 -0.10926108423E+02  0.15767526186E+02  0.51100000000E-03 0.  1.
        -12    1    3    3    0    0  0.44000070242E+01  0.16490408770E+02 -0.13584293313E+02  0.21813451539E+02  0.00000000000E+00 0.  1.
</event>
<event>
 7    1  0.2642243E-009  0.4778727E+02  0.7816164E-02  0.1312668E+00
        -11   -1    0    0    0    0  0.00000000000E+00  0.00000000000E+00  0.45593999997E+02  0.45594000000E+02  0.51100000000E-03 0.  1.
         11   -1    0    0    0    0 -0.00000000000E+00 -0.00000000000E+00 -0.45593999997E+02  0.45594000000E+02  0.51100000000E-03 0. -1.
    9900012    2    1    2    0    0  0.50256824095E+01  0.39652030154E+01 -0.42926019697E+02  0.47787268604E+02  0.19999988874E+02 0.  0.
        -12    1    1    2    0    0 -0.50256824095E+01 -0.39652030154E+01  0.42926019697E+02  0.43400731396E+02  0.00000000000E+00 0.  1.
         11    1    3    3    0    0  0.64719042539E+01  0.48611283525E+00 -0.22932187713E+02  0.23832899193E+02  0.51100000000E-03 0. -1.
        -11    1    3    3    0    0  0.12423876666E+01  0.23189276883E+01  0.95734683358E+00  0.27995474560E+01  0.51100000000E-03 0.  1.
        -12    1    3    3    0    0 -0.26886095110E+01  0.11601624918E+01 -0.20951178818E+02  0.21154821956E+02  0.00000000000E+00 0.  1.
</event>
<event>
 7    1  0.2642243E-009  0.4778727E+02  0.7816164E-02  0.1312668E+00
        -11   -1    0    0    0    0  0.00000000000E+00  0.00000000000E+00  0.45593999997E+02  0.45594000000E+02  0.51100000000E-03 0. -1.
         11   -1    0    0    0    0 -0.00000000000E+00 -0.00000000000E+00 -0.45593999997E+02  0.45594000000E+02  0.51100000000E-03 0.  1.
    9900012    2    1    2    0    0  0.39518181515E+02  0.28605866596E+01  0.17713086285E+02  0.47787273601E+02  0.20000011654E+02 0.  0.
        -12    1    1    2    0    0 -0.39518181515E+02 -0.28605866596E+01 -0.17713086285E+02  0.43400726399E+02  0.00000000000E+00 0.  1.
         11    1    3    3    0    0  0.78705981667E+01  0.69448218696E+01 -0.62869632156E+00  0.10515328127E+02  0.51100000000E-03 0. -1.
        -11    1    3    3    0    0  0.13219358835E+02 -0.46203611368E+01  0.75359542608E+01  0.15902508982E+02  0.51100000000E-03 0.  1.
         12    1    3    3    0    0  0.18428224513E+02  0.53612592682E+00  0.10805828346E+02  0.21369436491E+02  0.00000000000E+00 0. -1.
</event>
<event>
 7    1  0.2642243E-009  0.4778727E+02  0.7816164E-02  0.1312668E+00
        -11   -1    0    0    0    0  0.00000000000E+00  0.00000000000E+00  0.45593999997E+02  0.45594000000E+02  0.51100000000E-03 0. -1.
         11   -1    0    0    0    0 -0.00000000000E+00 -0.00000000000E+00 -0.45593999997E+02  0.45594000000E+02  0.51100000000E-03 0.  1.
    9900012    2    1    2    0    0  0.35515966625E+02 -0.21985108676E+02 -0.11785344708E+02  0.47787271450E+02  0.20000001849E+02 0.  0.
        -12    1    1    2    0    0 -0.35515966625E+02  0.21985108676E+02  0.11785344708E+02  0.43400728550E+02  0.00000000000E+00 0.  1.
         11    1    3    3    0    0  0.17685050210E+02 -0.89708085890E+01  0.70899973850E+00  0.19842859888E+02  0.51100000000E-03 0. -1.
        -11    1    3    3    0    0  0.64649869351E+01 -0.53669146937E+01 -0.11454534363E+02  0.14205850454E+02  0.51100000000E-03 0.  1.
        -12    1    3    3    0    0  0.11365929480E+02 -0.76473853933E+01 -0.10398100843E+01  0.13738561108E+02  0.00000000000E+00 0.  1.
</event>
<event>
 7    1  0.2642243E-009  0.4778727E+02  0.7816164E-02  0.1312668E+00
        -11   -1    0    0    0    0  0.00000000000E+00  0.00000000000E+00  0.45593999997E+02  0.45594000000E+02  0.51100000000E-03 0.  1.
         11   -1    0    0    0    0 -0.00000000000E+00 -0.00000000000E+00 -0.45593999997E+02  0.45594000000E+02  0.51100000000E-03 0. -1.
    9900012    2    1    2    0    0 -0.18286043611E+02 -0.20883134693E+02 -0.33363733019E+02  0.47787269746E+02  0.19999994082E+02 0.  0.
        -12    1    1    2    0    0  0.18286043611E+02  0.20883134693E+02  0.33363733019E+02  0.43400730254E+02  0.00000000000E+00 0.  1.
         11    1    3    3    0    0 -0.11368663568E+02 -0.13734565163E+02 -0.20621027046E+02  0.27260072418E+02  0.51100000000E-03 0. -1.
        -11    1    3    3    0    0  0.35894303624E+01 -0.18213483561E+01 -0.50494669609E+01  0.64574326950E+01  0.51100000000E-03 0.  1.
        -12    1    3    3    0    0 -0.10506810406E+02 -0.53272211737E+01 -0.76932390122E+01  0.14069764633E+02  0.00000000000E+00 0.  1.
</event>
<event>
 7    1  0.2642243E-009  0.4778727E+02  0.7816164E-02  0.1312668E+00
        -11   -1    0    0    0    0  0.00000000000E+00  0.00000000000E+00  0.45593999997E+02  0.45594000000E+02  0.51100000000E-03 0. -1.
         11   -1    0    0    0    0 -0.00000000000E+00 -0.00000000000E+00 -0.45593999997E+02  0.45594000000E+02  0.51100000000E-03 0.  1.
    9900012    2    1    2    0    0 -0.27136635910E+02 -0.13850938650E+02  0.30909187182E+02  0.47787270027E+02  0.19999995359E+02 0.  0.
        -12    1    1    2    0    0  0.27136635910E+02  0.13850938650E+02 -0.30909187182E+02  0.43400729973E+02  0.00000000000E+00 0.  1.
         11    1    3    3    0    0 -0.20871182056E+02 -0.65225756581E+01  0.29403111018E+02  0.36642777889E+02  0.51100000000E-03 0. -1.
        -11    1    3    3    0    0 -0.60962281314E+01 -0.74365448987E+01  0.26569282661E+01  0.99762450618E+01  0.51100000000E-03 0.  1.
         12    1    3    3    0    0 -0.16922572201E+00  0.10818190653E+00 -0.11508521019E+01  0.11682470759E+01  0.00000000000E+00 0. -1.
</event>
<event>
 7    1  0.2642243E-009  0.4778727E+02  0.7816164E-02  0.1312668E+00
        -11   -1    0    0    0    0  0.00000000000E+00  0.00000000000E+00  0.45593999997E+02  0.45594000000E+02  0.51100000000E-03 0.  1.
         11   -1    0    0    0    0 -0.00000000000E+00 -0.00000000000E+00 -0.45593999997E+02  0.45594000000E+02  0.51100000000E-03 0. -1.
    9900012    2    1    2    0    0 -0.21506426138E+02 -0.52072573323E+01 -0.37336061908E+02  0.47787269442E+02  0.19999992693E+02 0.  0.
        -12    1    1    2    0    0  0.21506426138E+02  0.52072573323E+01  0.37336061908E+02  0.43400730558E+02  0.00000000000E+00 0.  1.
         11    1    3    3    0    0 -0.13906464264E+02 -0.81303267450E+01 -0.34573049568E+02  0.38141679538E+02  0.51100000000E-03 0. -1.
        -11    1    3    3    0    0 -0.20937416786E+01 -0.71926668699E+00  0.51755455996E+00  0.22735350817E+01  0.51100000000E-03 0.  1.
         12    1    3    3    0    0 -0.55062201960E+01  0.36423360997E+01 -0.32805668999E+01  0.73720548217E+01  0.00000000000E+00 0. -1.
</event>
<event>
 7    1  0.2642243E-009  0.4778727E+02  0.7816164E-02  0.1312668E+00
        -11   -1    0    0    0    0  0.00000000000E+00  0.00000000000E+00  0.45593999997E+02  0.45594000000E+02  0.51100000000E-03 0.  1.
         11   -1    0    0    0    0 -0.00000000000E+00 -0.00000000000E+00 -0.45593999997E+02  0.45594000000E+02  0.51100000000E-03 0. -1.
    9900012    2    1    2    0    0  0.68319930594E+01  0.18340922397E+02 -0.38737036944E+02  0.47787267348E+02  0.19999983146E+02 0.  0.
        -12    1    1    2    0    0 -0.68319930594E+01 -0.18340922397E+02  0.38737036944E+02  0.43400732652E+02  0.00000000000E+00 0.  1.
         11    1    3    3    0    0  0.94388283148E+01  0.10538028346E+02 -0.25962968899E+02  0.29567165500E+02  0.51100000000E-03 0. -1.
        -11    1    3    3    0    0 -0.89641145726E+00 -0.84153662402E+00  0.11880436574E+01  0.17097325473E+01  0.51100000000E-03 0.  1.
        -12    1    3    3    0    0 -0.17104237982E+01  0.86444306753E+01 -0.13962111702E+02  0.16510369301E+02  0.00000000000E+00 0.  1.
</event>
<event>
 7    1  0.2642243E-009  0.4778728E+02  0.7816164E-02  0.1312668E+00
        -11   -1    0    0    0    0  0.00000000000E+00  0.00000000000E+00  0.45593999997E+02  0.45594000000E+02  0.51100000000E-03 0.  1.
         11   -1    0    0    0    0 -0.00000000000E+00 -0.00000000000E+00 -0.45593999997E+02  0.45594000000E+02  0.51100000000E-03 0. -1.
    9900012    2    1    2    0    0  0.88146596008E+01 -0.36249256584E+01 -0.42341278797E+02  0.47787283416E+02  0.20000056405E+02 0.  0.
        -12    1    1    2    0    0 -0.88146596008E+01  0.36249256584E+01  0.42341278797E+02  0.43400716584E+02  0.00000000000E+00 0.  1.
         11    1    3    3    0    0  0.76421321496E+01  0.58288938250E+01 -0.15599414377E+02  0.18322661275E+02  0.51100000000E-03 0. -1.
        -11    1    3    3    0    0  0.18601858166E+01 -0.80348644978E+01 -0.11556469960E+02  0.14197582082E+02  0.51100000000E-03 0.  1.
         12    1    3    3    0    0 -0.68765836538E+00 -0.14189549856E+01 -0.15185394459E+02  0.15267040059E+02  0.00000000000E+00 0. -1.
</event>
<event>
 7    1  0.2642243E-009  0.4778727E+02  0.7816164E-02  0.1312668E+00
        -11   -1    0    0    0    0  0.00000000000E+00  0.00000000000E+00  0.45593999997E+02  0.45594000000E+02  0.51100000000E-03 0.  1.
         11   -1    0    0    0    0 -0.00000000000E+00 -0.00000000000E+00 -0.45593999997E+02  0.45594000000E+02  0.51100000000E-03 0. -1.
    9900012    2    1    2    0    0  0.48764623731E+01 -0.37772726126E+01 -0.42960160186E+02  0.47787273775E+02  0.20000012451E+02 0.  0.
        -12    1    1    2    0    0 -0.48764623731E+01  0.37772726126E+01  0.42960160186E+02  0.43400726225E+02  0.00000000000E+00 0.  1.
         11    1    3    3    0    0  0.21669464975E+01  0.62976510294E+01 -0.12100102658E+02  0.13811898863E+02  0.51100000000E-03 0. -1.
        -11    1    3    3    0    0  0.16293581407E+01 -0.51301046788E+01 -0.41681121371E+01  0.68077853238E+01  0.51100000000E-03 0.  1.
         12    1    3    3    0    0  0.10801577349E+01 -0.49448189632E+01 -0.26691945390E+02  0.27167589588E+02  0.00000000000E+00 0. -1.
</event>
<event>
 7    1  0.2642243E-009  0.4778727E+02  0.7816164E-02  0.1312668E+00
        -11   -1    0    0    0    0  0.00000000000E+00  0.00000000000E+00  0.45593999997E+02  0.45594000000E+02  0.51100000000E-03 0.  1.
         11   -1    0    0    0    0 -0.00000000000E+00 -0.00000000000E+00 -0.45593999997E+02  0.45594000000E+02  0.51100000000E-03 0. -1.
    9900012    2    1    2    0    0 -0.63576522829E+01  0.37137833841E+02 -0.21540318140E+02  0.47787265553E+02  0.19999974964E+02 0.  0.
        -12    1    1    2    0    0  0.63576522829E+01 -0.37137833841E+02  0.21540318140E+02  0.43400734447E+02  0.00000000000E+00 0.  1.
         11    1    3    3    0    0  0.11012192079E+01  0.26185549222E+02 -0.87859914101E+01  0.27642165565E+02  0.51100000000E-03 0. -1.
        -11    1    3    3    0    0 -0.33405068682E+01 -0.51519528864E-01 -0.51869450844E+01  0.61697682265E+01  0.51100000000E-03 0.  1.
         12    1    3    3    0    0 -0.41183646226E+01  0.11003804148E+02 -0.75673816451E+01  0.13975331762E+02  0.00000000000E+00 0. -1.
</event>
<event>
 7    1  0.2642243E-009  0.4778727E+02  0.7816164E-02  0.1312668E+00
        -11   -1    0    0    0    0  0.00000000000E+00  0.00000000000E+00  0.45593999997E+02  0.45594000000E+02  0.51100000000E-03 0.  1.
         11   -1    0    0    0    0 -0.00000000000E+00 -0.00000000000E+00 -0.45593999997E+02  0.45594000000E+02  0.51100000000E-03 0. -1.
    9900012    2    1    2    0    0 -0.20342036578E+02 -0.30791205966E+02 -0.22841334719E+02  0.47787269721E+02  0.19999993967E+02 0.  0.
        -12    1    1    2    0    0  0.20342036578E+02  0.30791205966E+02  0.22841334719E+02  0.43400730279E+02  0.00000000000E+00 0.  1.
         11    1    3    3    0    0 -0.13001832618E+01 -0.17201735992E+02 -0.61990086573E+01  0.18330791207E+02  0.51100000000E-03 0.  1.
        -11    1    3    3    0    0 -0.97958066808E+00 -0.31627125244E+01 -0.34329194035E+01  0.47694092600E+01  0.51100000000E-03 0. -1.
         12    1    3    3    0    0 -0.18062272648E+02 -0.10426757449E+02 -0.13209406659E+02  0.24687069255E+02  0.00000000000E+00 0. -1.
</event>
<event>
 7    1  0.2642243E-009  0.4778727E+02  0.7816164E-02  0.1312668E+00
        -11   -1    0    0    0    0  0.00000000000E+00  0.00000000000E+00  0.45593999997E+02  0.45594000000E+02  0.51100000000E-03 0.  1.
         11   -1    0    0    0    0 -0.00000000000E+00 -0.00000000000E+00 -0.45593999997E+02  0.45594000000E+02  0.51100000000E-03 0. -1.
    9900012    2    1    2    0    0 -0.72981359743E+01 -0.25341210065E+02 -0.34470040840E+02  0.47787269226E+02  0.19999991708E+02 0.  0.
        -12    1    1    2    0    0  0.72981359743E+01  0.25341210065E+02  0.34470040840E+02  0.43400730774E+02  0.00000000000E+00 0.  1.
         11    1    3    3    0    0  0.36022425328E+01 -0.30519905077E+01 -0.14767767296E+02  0.15504120371E+02  0.51100000000E-03 0. -1.
        -11    1    3    3    0    0 -0.50102247457E+01 -0.11235291641E+02 -0.58954895338E+01  0.13641514849E+02  0.51100000000E-03 0.  1.
         12    1    3    3    0    0 -0.58901537613E+01 -0.11053927916E+02 -0.13806784010E+02  0.18641634006E+02  0.00000000000E+00 0. -1.
</event>
<event>
 7    1  0.2642243E-009  0.4778728E+02  0.7816164E-02  0.1312668E+00
        -11   -1    0    0    0    0  0.00000000000E+00  0.00000000000E+00  0.45593999997E+02  0.45594000000E+02  0.51100000000E-03 0.  1.
         11   -1    0    0    0    0 -0.00000000000E+00 -0.00000000000E+00 -0.45593999997E+02  0.45594000000E+02  0.51100000000E-03 0. -1.
    9900012    2    1    2    0    0  0.38704550233E+02 -0.19268876073E+02 -0.37802487643E+01  0.47787284861E+02  0.20000062997E+02 0.  0.
        -12    1    1    2    0    0 -0.38704550233E+02  0.19268876073E+02  0.37802487643E+01  0.43400715139E+02  0.00000000000E+00 0.  1.
         11    1    3    3    0    0  0.30972742007E+02 -0.18031454184E+02  0.18431236563E-01  0.35839146578E+02  0.51100000000E-03 0. -1.
        -11    1    3    3    0    0  0.87593614054E+01  0.10181593356E+00 -0.47966035465E+01  0.99872010372E+01  0.51100000000E-03 0.  1.
         12    1    3    3    0    0 -0.10275531799E+01 -0.13392378219E+01  0.99792354562E+00  0.19609372463E+01  0.00000000000E+00 0. -1.
</event>
<event>
 7    1  0.2642243E-009  0.4778727E+02  0.7816164E-02  0.1312668E+00
        -11   -1    0    0    0    0  0.00000000000E+00  0.00000000000E+00  0.45593999997E+02  0.45594000000E+02  0.51100000000E-03 0.  1.
         11   -1    0    0    0    0 -0.00000000000E+00 -0.00000000000E+00 -0.45593999997E+02  0.45594000000E+02  0.51100000000E-03 0. -1.
    9900012    2    1    2    0    0  0.17751282250E+02  0.35867873109E+02 -0.16793180256E+02  0.47787271365E+02  0.20000001463E+02 0.  0.
        -12    1    1    2    0    0 -0.17751282250E+02 -0.35867873109E+02  0.16793180256E+02  0.43400728635E+02  0.00000000000E+00 0.  1.
         11    1    3    3    0    0  0.13061478256E+02  0.17417774450E+02 -0.81570558668E+01  0.23249056792E+02  0.51100000000E-03 0. -1.
        -11    1    3    3    0    0  0.67335346338E+00  0.34932527276E+01  0.34024964965E+01  0.49227230448E+01  0.51100000000E-03 0.  1.
        -12    1    3    3    0    0  0.40164505305E+01  0.14956845931E+02 -0.12038620886E+02  0.19615491528E+02  0.00000000000E+00 0.  1.
</event>
<event>
 7    1  0.2642243E-009  0.4778727E+02  0.7816164E-02  0.1312668E+00
        -11   -1    0    0    0    0  0.00000000000E+00  0.00000000000E+00  0.45593999997E+02  0.45594000000E+02  0.51100000000E-03 0.  1.
         11   -1    0    0    0    0 -0.00000000000E+00 -0.00000000000E+00 -0.45593999997E+02  0.45594000000E+02  0.51100000000E-03 0. -1.
    9900012    2    1    2    0    0 -0.96277788510E+01  0.12307439890E+02 -0.40490197261E+02  0.47787271014E+02  0.19999999861E+02 0.  0.
        -12    1    1    2    0    0  0.96277788510E+01 -0.12307439890E+02  0.40490197261E+02  0.43400728986E+02  0.00000000000E+00 0.  1.
         11    1    3    3    0    0 -0.59059542052E+01  0.16145160266E+02 -0.19203961370E+02  0.25774767267E+02  0.51100000000E-03 0. -1.
        -11    1    3    3    0    0 -0.86228165259E+00 -0.20787375401E+01 -0.85438513885E+01  0.88352745412E+01  0.51100000000E-03 0.  1.
         12    1    3    3    0    0 -0.28595429932E+01 -0.17589828352E+01 -0.12742384502E+02  0.13177229206E+02  0.00000000000E+00 0. -1.
</event>
<event>
 7    1  0.2642243E-009  0.4778727E+02  0.7816164E-02  0.1312668E+00
        -11   -1    0    0    0    0  0.00000000000E+00  0.00000000000E+00  0.45593999997E+02  0.45594000000E+02  0.51100000000E-03 0.  1.
         11   -1    0    0    0    0 -0.00000000000E+00 -0.00000000000E+00 -0.45593999997E+02  0.45594000000E+02  0.51100000000E-03 0. -1.
    9900012    2    1    2    0    0 -0.18428316210E+01 -0.15151284744E+02 -0.40628388354E+02  0.47787269615E+02  0.19999993481E+02 0.  0.
        -12    1    1    2    0    0  0.18428316210E+01  0.15151284744E+02  0.40628388354E+02  0.43400730385E+02  0.00000000000E+00 0.  1.
         11    1    3    3    0    0  0.18041535493E+01  0.33006895830E+01 -0.62039168835E+01  0.72552123822E+01  0.51100000000E-03 0. -1.
        -11    1    3    3    0    0  0.21729569322E+01 -0.13375287979E+02 -0.19787986179E+02  0.23983003724E+02  0.51100000000E-03 0.  1.
         12    1    3    3    0    0 -0.58199421024E+01 -0.50766863475E+01 -0.14636485291E+02  0.16549053508E+02  0.00000000000E+00 0. -1.
</event>
<event>
 7    1  0.2642243E-009  0.4778727E+02  0.7816164E-02  0.1312668E+00
        -11   -1    0    0    0    0  0.00000000000E+00  0.00000000000E+00  0.45593999997E+02  0.45594000000E+02  0.51100000000E-03 0. -1.
         11   -1    0    0    0    0 -0.00000000000E+00 -0.00000000000E+00 -0.45593999997E+02  0.45594000000E+02  0.51100000000E-03 0.  1.
    9900012    2    1    2    0    0  0.74560396937E+01 -0.11291598718E+01  0.42740566543E+02  0.47787267767E+02  0.19999985058E+02 0.  0.
        -12    1    1    2    0    0 -0.74560396937E+01  0.11291598718E+01 -0.42740566543E+02  0.43400732233E+02  0.00000000000E+00 0.  1.
         11    1    3    3    0    0  0.77733906913E+01  0.47216309779E+00  0.17415508506E+02  0.19077433727E+02  0.51100000000E-03 0. -1.
        -11    1    3    3    0    0 -0.25756312556E+01 -0.35270048872E+01  0.13780106973E+01  0.45795800662E+01  0.51100000000E-03 0.  1.
        -12    1    3    3    0    0  0.22582802580E+01  0.19256819176E+01  0.23947047339E+02  0.24130253974E+02  0.00000000000E+00 0.  1.
</event>
<event>
 7    1  0.2642243E-009  0.4778727E+02  0.7816164E-02  0.1312668E+00
        -11   -1    0    0    0    0  0.00000000000E+00  0.00000000000E+00  0.45593999997E+02  0.45594000000E+02  0.51100000000E-03 0. -1.
         11   -1    0    0    0    0 -0.00000000000E+00 -0.00000000000E+00 -0.45593999997E+02  0.45594000000E+02  0.51100000000E-03 0.  1.
    9900012    2    1    2    0    0 -0.32465901746E+01 -0.26110021184E+02  0.34515935278E+02  0.47787270259E+02  0.19999996418E+02 0.  0.
        -12    1    1    2    0    0  0.32465901746E+01  0.26110021184E+02 -0.34515935278E+02  0.43400729741E+02  0.00000000000E+00 0.  1.
         11    1    3    3    0    0 -0.32552130019E+00 -0.11667156795E+00  0.10984594078E+02  0.10990035654E+02  0.51100000000E-03 0. -1.
        -11    1    3    3    0    0 -0.16758616484E+01 -0.14033507885E+00 -0.18486806843E+00  0.16918577549E+01  0.51100000000E-03 0.  1.
         12    1    3    3    0    0 -0.12452072261E+01 -0.25853014537E+02  0.23716209269E+02  0.35105376850E+02  0.00000000000E+00 0. -1.
</event>
<event>
 7    1  0.2642243E-009  0.4778727E+02  0.7816164E-02  0.1312668E+00
        -11   -1    0    0    0    0  0.00000000000E+00  0.00000000000E+00  0.45593999997E+02  0.45594000000E+02  0.51100000000E-03 0.  1.
         11   -1    0    0    0    0 -0.00000000000E+00 -0.00000000000E+00 -0.45593999997E+02  0.45594000000E+02  0.51100000000E-03 0. -1.
    9900012    2    1    2    0    0 -0.40058437596E+02  0.11641538844E+02  0.11975778845E+02  0.47787272723E+02  0.20000007651E+02 0.  0.
        -12    1    1    2    0    0  0.40058437596E+02 -0.11641538844E+02 -0.11975778845E+02  0.43400727277E+02  0.00000000000E+00 0.  1.
         11    1    3    3    0    0 -0.29110035998E+01  0.93136084997E+00 -0.14331606731E+01  0.33756961900E+01  0.51100000000E-03 0. -1.
        -11    1    3    3    0    0 -0.26269337527E+02  0.10896025628E+01  0.28277591422E+01  0.26443554032E+02  0.51100000000E-03 0.  1.
        -12    1    3    3    0    0 -0.10878096469E+02  0.96205754314E+01  0.10581180376E+02  0.17968022500E+02  0.00000000000E+00 0.  1.
</event>
<event>
 7    1  0.2642243E-009  0.4778727E+02  0.7816164E-02  0.1312668E+00
        -11   -1    0    0    0    0  0.00000000000E+00  0.00000000000E+00  0.45593999997E+02  0.45594000000E+02  0.51100000000E-03 0.  1.
         11   -1    0    0    0    0 -0.00000000000E+00 -0.00000000000E+00 -0.45593999997E+02  0.45594000000E+02  0.51100000000E-03 0. -1.
    9900012    2    1    2    0    0 -0.29453651280E+02  0.47564659214E+00 -0.31872866293E+02  0.47787269371E+02  0.19999992372E+02 0.  0.
        -12    1    1    2    0    0  0.29453651280E+02 -0.47564659214E+00  0.31872866293E+02  0.43400730629E+02  0.00000000000E+00 0.  1.
         11    1    3    3    0    0 -0.16082804966E+02  0.82921420891E+01 -0.19393843399E+02  0.26524279407E+02  0.51100000000E-03 0. -1.
        -11    1    3    3    0    0 -0.14300275190E+02 -0.77175883454E+01 -0.11487006810E+02  0.19900009198E+02  0.51100000000E-03 0.  1.
        -12    1    3    3    0    0  0.92942887574E+00 -0.98907151569E-01 -0.99201608398E+00  0.13629807668E+01  0.00000000000E+00 0.  1.
</event>
<event>
 7    1  0.2642243E-009  0.4778727E+02  0.7816164E-02  0.1312668E+00
        -11   -1    0    0    0    0  0.00000000000E+00  0.00000000000E+00  0.45593999997E+02  0.45594000000E+02  0.51100000000E-03 0.  1.
         11   -1    0    0    0    0 -0.00000000000E+00 -0.00000000000E+00 -0.45593999997E+02  0.45594000000E+02  0.51100000000E-03 0. -1.
    9900012    2    1    2    0    0  0.36362251894E+02 -0.16632712923E+02  0.16874920427E+02  0.47787269115E+02  0.19999991201E+02 0.  0.
        -12    1    1    2    0    0 -0.36362251894E+02  0.16632712923E+02 -0.16874920427E+02  0.43400730885E+02  0.00000000000E+00 0.  1.
         11    1    3    3    0    0  0.14921123620E+02 -0.12937956744E+02  0.44974065638E+01  0.20254809820E+02  0.51100000000E-03 0.  1.
        -11    1    3    3    0    0  0.16273688794E+02 -0.62219337931E+01  0.49002568818E+01  0.18098561403E+02  0.51100000000E-03 0. -1.
         12    1    3    3    0    0  0.51674394798E+01  0.25271776134E+01  0.74772569810E+01  0.94338978915E+01  0.00000000000E+00 0. -1.
</event>
<event>
 7    1  0.2642243E-009  0.4778727E+02  0.7816164E-02  0.1312668E+00
        -11   -1    0    0    0    0  0.00000000000E+00  0.00000000000E+00  0.45593999997E+02  0.45594000000E+02  0.51100000000E-03 0.  1.
         11   -1    0    0    0    0 -0.00000000000E+00 -0.00000000000E+00 -0.45593999997E+02  0.45594000000E+02  0.51100000000E-03 0. -1.
    9900012    2    1    2    0    0 -0.55940647432E+01  0.18624884218E+02 -0.38800047227E+02  0.47787268010E+02  0.19999986163E+02 0.  0.
        -12    1    1    2    0    0  0.55940647432E+01 -0.18624884218E+02  0.38800047227E+02  0.43400731990E+02  0.00000000000E+00 0.  1.
         11    1    3    3    0    0 -0.13020194772E+01  0.18862958018E+00 -0.66752303216E+00  0.14752705166E+01  0.51100000000E-03 0. -1.
        -11    1    3    3    0    0 -0.58649408645E+01  0.22750778208E+01 -0.18426276901E+01  0.65550581615E+01  0.51100000000E-03 0.  1.
         12    1    3    3    0    0  0.15728955985E+01  0.16161176817E+02 -0.36289896505E+02  0.39756939331E+02  0.00000000000E+00 0. -1.
</event>
<event>
 7    1  0.2642243E-009  0.4778728E+02  0.7816164E-02  0.1312668E+00
        -11   -1    0    0    0    0  0.00000000000E+00  0.00000000000E+00  0.45593999997E+02  0.45594000000E+02  0.51100000000E-03 0. -1.
         11   -1    0    0    0    0 -0.00000000000E+00 -0.00000000000E+00 -0.45593999997E+02  0.45594000000E+02  0.51100000000E-03 0.  1.
    9900012    2    1    2    0    0 -0.33402525642E+02  0.16673891705E+02  0.22133127636E+02  0.47787277393E+02  0.20000028948E+02 0.  0.
        -12    1    1    2    0    0  0.33402525642E+02 -0.16673891705E+02 -0.22133127636E+02  0.43400722607E+02  0.00000000000E+00 0.  1.
         11    1    3    3    0    0 -0.18715727536E+02  0.90765349736E+01  0.25199799474E+01  0.20952619013E+02  0.51100000000E-03 0.  1.
        -11    1    3    3    0    0 -0.13120050770E+02  0.89835978217E+01  0.15426289553E+02  0.22154258544E+02  0.51100000000E-03 0. -1.
         12    1    3    3    0    0 -0.15667473367E+01 -0.13862410908E+01  0.41868581354E+01  0.46803998360E+01  0.00000000000E+00 0. -1.
</event>
<event>
 7    1  0.2642243E-009  0.4778726E+02  0.7816164E-02  0.1312668E+00
        -11   -1    0    0    0    0  0.00000000000E+00  0.00000000000E+00  0.45593999997E+02  0.45594000000E+02  0.51100000000E-03 0. -1.
         11   -1    0    0    0    0 -0.00000000000E+00 -0.00000000000E+00 -0.45593999997E+02  0.45594000000E+02  0.51100000000E-03 0.  1.
    9900012    2    1    2    0    0 -0.17699121432E+02 -0.91345003309E+01  0.38560681229E+02  0.47787261151E+02  0.19999954892E+02 0.  0.
        -12    1    1    2    0    0  0.17699121432E+02  0.91345003309E+01 -0.38560681229E+02  0.43400738849E+02  0.00000000000E+00 0.  1.
         11    1    3    3    0    0 -0.69912745136E+00 -0.54529673431E+01  0.10243776087E+01  0.55922251192E+01  0.51100000000E-03 0. -1.
        -11    1    3    3    0    0 -0.15744894353E+01 -0.76390940434E+00  0.28798698504E+00  0.17735589431E+01  0.51100000000E-03 0.  1.
         12    1    3    3    0    0 -0.15425504546E+02 -0.29176235835E+01  0.37248316635E+02  0.40421477089E+02  0.00000000000E+00 0. -1.
</event>
<event>
 7    1  0.2642243E-009  0.4778727E+02  0.7816164E-02  0.1312668E+00
        -11   -1    0    0    0    0  0.00000000000E+00  0.00000000000E+00  0.45593999997E+02  0.45594000000E+02  0.51100000000E-03 0.  1.
         11   -1    0    0    0    0 -0.00000000000E+00 -0.00000000000E+00 -0.45593999997E+02  0.45594000000E+02  0.51100000000E-03 0. -1.
    9900012    2    1    2    0    0  0.13104252762E+02 -0.40575056208E+02  0.80973250600E+01  0.47787270745E+02  0.19999998635E+02 0.  0.
        -12    1    1    2    0    0 -0.13104252762E+02  0.40575056208E+02 -0.80973250600E+01  0.43400729255E+02  0.00000000000E+00 0.  1.
         11    1    3    3    0    0 -0.15737385213E+01 -0.20427178457E+02  0.37449733347E+01  0.20827172112E+02  0.51100000000E-03 0. -1.
        -11    1    3    3    0    0  0.77749527627E+01 -0.54835726171E+01  0.49828070110E+01  0.10740010479E+02  0.51100000000E-03 0.  1.
         12    1    3    3    0    0  0.69030385203E+01 -0.14664305134E+02 -0.63045528563E+00  0.16220088155E+02  0.00000000000E+00 0. -1.
</event>
<event>
 7    1  0.2642243E-009  0.4778728E+02  0.7816164E-02  0.1312668E+00
        -11   -1    0    0    0    0  0.00000000000E+00  0.00000000000E+00  0.45593999997E+02  0.45594000000E+02  0.51100000000E-03 0.  1.
         11   -1    0    0    0    0 -0.00000000000E+00 -0.00000000000E+00 -0.45593999997E+02  0.45594000000E+02  0.51100000000E-03 0. -1.
    9900012    2    1    2    0    0  0.21021957433E+02  0.29329242434E+02 -0.24114211875E+02  0.47787281453E+02  0.20000047459E+02 0.  0.
        -12    1    1    2    0    0 -0.21021957433E+02 -0.29329242434E+02  0.24114211875E+02  0.43400718547E+02  0.00000000000E+00 0.  1.
         11    1    3    3    0    0  0.15205305055E+02  0.74452216535E+01 -0.87768250973E+01  0.19070010130E+02  0.51100000000E-03 0. -1.
        -11    1    3    3    0    0  0.16382392386E+01  0.99074676083E+00  0.71131849063E+00  0.20423959467E+01  0.51100000000E-03 0.  1.
         12    1    3    3    0    0  0.41784131387E+01  0.20893274019E+02 -0.16048705268E+02  0.26674875377E+02  0.00000000000E+00 0. -1.
</event>
<event>
 7    1  0.2642243E-009  0.4778727E+02  0.7816164E-02  0.1312668E+00
        -11   -1    0    0    0    0  0.00000000000E+00  0.00000000000E+00  0.45593999997E+02  0.45594000000E+02  0.51100000000E-03 0. -1.
         11   -1    0    0    0    0 -0.00000000000E+00 -0.00000000000E+00 -0.45593999997E+02  0.45594000000E+02  0.51100000000E-03 0.  1.
    9900012    2    1    2    0    0  0.17616731441E+02 -0.15734348972E+02  0.36410220730E+02  0.47787272612E+02  0.20000007145E+02 0.  0.
        -12    1    1    2    0    0 -0.17616731441E+02  0.15734348972E+02 -0.36410220730E+02  0.43400727388E+02  0.00000000000E+00 0.  1.
         11    1    3    3    0    0  0.91125658566E+01 -0.69005817498E+01  0.20043392273E+02  0.23073674589E+02  0.51100000000E-03 0. -1.
        -11    1    3    3    0    0  0.74235536576E+01 -0.20802962495E+01  0.84989443475E+00  0.77562298963E+01  0.51100000000E-03 0.  1.
        -12    1    3    3    0    0  0.10806119266E+01 -0.67534709723E+01  0.15516934022E+02  0.16957368126E+02  0.00000000000E+00 0.  1.
</event>
<event>
 7    1  0.2642243E-009  0.4778728E+02  0.7816164E-02  0.1312668E+00
        -11   -1    0    0    0    0  0.00000000000E+00  0.00000000000E+00  0.45593999997E+02  0.45594000000E+02  0.51100000000E-03 0. -1.
         11   -1    0    0    0    0 -0.00000000000E+00 -0.00000000000E+00 -0.45593999997E+02  0.45594000000E+02  0.51100000000E-03 0.  1.
    9900012    2    1    2    0    0  0.39121216946E+02  0.11034522605E+02  0.15211592652E+02  0.47787275864E+02  0.20000021976E+02 0.  0.
        -12    1    1    2    0    0 -0.39121216946E+02 -0.11034522605E+02 -0.15211592652E+02  0.43400724136E+02  0.00000000000E+00 0.  1.
         11    1    3    3    0    0  0.18042231627E+02  0.12372413337E+02  0.68576946407E+01  0.22926550327E+02  0.51100000000E-03 0. -1.
        -11    1    3    3    0    0  0.55727703200E+01  0.35575902247E+01  0.70709749804E-01  0.66118996798E+01  0.51100000000E-03 0.  1.
         12    1    3    3    0    0  0.15506214999E+02 -0.48954809567E+01  0.82831882614E+01  0.18248825858E+02  0.00000000000E+00 0. -1.
</event>
<event>
 7    1  0.2642243E-009  0.4778728E+02  0.7816164E-02  0.1312668E+00
        -11   -1    0    0    0    0  0.00000000000E+00  0.00000000000E+00  0.45593999997E+02  0.45594000000E+02  0.51100000000E-03 0.  1.
         11   -1    0    0    0    0 -0.00000000000E+00 -0.00000000000E+00 -0.45593999997E+02  0.45594000000E+02  0.51100000000E-03 0. -1.
    9900012    2    1    2    0    0 -0.12554370856E+02 -0.21254278066E+02 -0.35696863724E+02  0.47787278308E+02  0.20000033116E+02 0.  0.
        -12    1    1    2    0    0  0.12554370856E+02  0.21254278066E+02  0.35696863724E+02  0.43400721692E+02  0.00000000000E+00 0.  1.
         11    1    3    3    0    0 -0.78352338326E+01 -0.17988526224E+02 -0.35069234672E+02  0.40184937298E+02  0.51100000000E-03 0. -1.
        -11    1    3    3    0    0 -0.15713816474E+01  0.12764272475E+01  0.10778517847E+00  0.20273442495E+01  0.51100000000E-03 0.  1.
         12    1    3    3    0    0 -0.31477553759E+01 -0.45421790892E+01 -0.73541423041E+00  0.55749967601E+01  0.00000000000E+00 0. -1.
</event>
<event>
 7    1  0.2642243E-009  0.4778727E+02  0.7816164E-02  0.1312668E+00
        -11   -1    0    0    0    0  0.00000000000E+00  0.00000000000E+00  0.45593999997E+02  0.45594000000E+02  0.51100000000E-03 0.  1.
         11   -1    0    0    0    0 -0.00000000000E+00 -0.00000000000E+00 -0.45593999997E+02  0.45594000000E+02  0.51100000000E-03 0. -1.
    9900012    2    1    2    0    0  0.74035942081E+01  0.32002707993E+02 -0.28366116313E+02  0.47787273269E+02  0.20000010144E+02 0.  0.
        -12    1    1    2    0    0 -0.74035942081E+01 -0.32002707993E+02  0.28366116313E+02  0.43400726731E+02  0.00000000000E+00 0.  1.
         11    1    3    3    0    0  0.61353558301E+01  0.71409101536E+01 -0.12687161727E+02  0.15798710768E+02  0.51100000000E-03 0. -1.
        -11    1    3    3    0    0  0.24045461453E+01  0.15600608441E+02 -0.27160692211E+01  0.16016799249E+02  0.51100000000E-03 0.  1.
         12    1    3    3    0    0 -0.11363077673E+01  0.92611893982E+01 -0.12962885365E+02  0.15971763253E+02  0.00000000000E+00 0. -1.
</event>
<event>
 7    1  0.2642243E-009  0.4778727E+02  0.7816164E-02  0.1312668E+00
        -11   -1    0    0    0    0  0.00000000000E+00  0.00000000000E+00  0.45593999997E+02  0.45594000000E+02  0.51100000000E-03 0. -1.
         11   -1    0    0    0    0 -0.00000000000E+00 -0.00000000000E+00 -0.45593999997E+02  0.45594000000E+02  0.51100000000E-03 0.  1.
    9900012    2    1    2    0    0 -0.42767075912E+02  0.66587671070E+01  0.32033450180E+01  0.47787269813E+02  0.19999994386E+02 0.  0.
        -12    1    1    2    0    0  0.42767075912E+02 -0.66587671070E+01 -0.32033450180E+01  0.43400730187E+02  0.00000000000E+00 0.  1.
         11    1    3    3    0    0 -0.26047490177E+02  0.84865102139E+01 -0.57469874268E+01  0.27991435563E+02  0.51100000000E-03 0. -1.
        -11    1    3    3    0    0 -0.10868925227E+02  0.12881670833E+01  0.64949368393E+01  0.12727023015E+02  0.51100000000E-03 0.  1.
         12    1    3    3    0    0 -0.58506605084E+01 -0.31159101902E+01  0.24553956055E+01  0.70688112351E+01  0.00000000000E+00 0. -1.
</event>
<event>
 7    1  0.2642243E-009  0.4778727E+02  0.7816164E-02  0.1312668E+00
        -11   -1    0    0    0    0  0.00000000000E+00  0.00000000000E+00  0.45593999997E+02  0.45594000000E+02  0.51100000000E-03 0.  1.
         11   -1    0    0    0    0 -0.00000000000E+00 -0.00000000000E+00 -0.45593999997E+02  0.45594000000E+02  0.51100000000E-03 0. -1.
    9900012    2    1    2    0    0  0.80535118343E+01 -0.32141133306E+01 -0.42525680045E+02  0.47787273732E+02  0.20000012252E+02 0.  0.
        -12    1    1    2    0    0 -0.80535118343E+01  0.32141133306E+01  0.42525680045E+02  0.43400726268E+02  0.00000000000E+00 0.  1.
         11    1    3    3    0    0  0.38440263971E+01 -0.45789020886E+00 -0.10203270090E+02  0.10912970410E+02  0.51100000000E-03 0. -1.
        -11    1    3    3    0    0 -0.22974712939E+01 -0.75298193881E+01 -0.24099866096E+02  0.25353108300E+02  0.51100000000E-03 0.  1.
        -12    1    3    3    0    0  0.65069567311E+01  0.47735962664E+01 -0.82225438595E+01  0.11521195022E+02  0.00000000000E+00 0.  1.
</event>
<event>
 7    1  0.2642243E-009  0.4778727E+02  0.7816164E-02  0.1312668E+00
        -11   -1    0    0    0    0  0.00000000000E+00  0.00000000000E+00  0.45593999997E+02  0.45594000000E+02  0.51100000000E-03 0.  1.
         11   -1    0    0    0    0 -0.00000000000E+00 -0.00000000000E+00 -0.45593999997E+02  0.45594000000E+02  0.51100000000E-03 0. -1.
    9900012    2    1    2    0    0 -0.22665189961E+02  0.16501231847E+02 -0.33130378226E+02  0.47787269017E+02  0.19999990755E+02 0.  0.
        -12    1    1    2    0    0  0.22665189961E+02 -0.16501231847E+02  0.33130378226E+02  0.43400730983E+02  0.00000000000E+00 0.  1.
         11    1    3    3    0    0 -0.52889264333E+01  0.43118567887E+01 -0.56048559566E+01  0.88305867494E+01  0.51100000000E-03 0. -1.
        -11    1    3    3    0    0 -0.17499096134E+02  0.43764563248E+01 -0.12267718269E+02  0.21814413750E+02  0.51100000000E-03 0.  1.
        -12    1    3    3    0    0  0.12283260619E+00  0.78129187336E+01 -0.15257804001E+02  0.17142268517E+02  0.00000000000E+00 0.  1.
</event>
<event>
 7    1  0.2642243E-009  0.4778727E+02  0.7816164E-02  0.1312668E+00
        -11   -1    0    0    0    0  0.00000000000E+00  0.00000000000E+00  0.45593999997E+02  0.45594000000E+02  0.51100000000E-03 0.  1.
         11   -1    0    0    0    0 -0.00000000000E+00 -0.00000000000E+00 -0.45593999997E+02  0.45594000000E+02  0.51100000000E-03 0. -1.
    9900012    2    1    2    0    0  0.21206268398E+02 -0.18850520988E+02 -0.32841671427E+02  0.47787270248E+02  0.19999996371E+02 0.  0.
        -12    1    1    2    0    0 -0.21206268398E+02  0.18850520988E+02  0.32841671427E+02  0.43400729752E+02  0.00000000000E+00 0.  1.
         11    1    3    3    0    0  0.42531390667E+01  0.10357764538E+01 -0.12310980514E+02  0.13066073100E+02  0.51100000000E-03 0. -1.
        -11    1    3    3    0    0  0.17240998295E+02 -0.20802894890E+02 -0.20059753461E+02  0.33651243174E+02  0.51100000000E-03 0.  1.
        -12    1    3    3    0    0 -0.28786896380E+00  0.91659744829E+00 -0.47093745140E+00  0.10699539736E+01  0.00000000000E+00 0.  1.
</event>
<event>
 7    1  0.2642243E-009  0.4778727E+02  0.7816164E-02  0.1312668E+00
        -11   -1    0    0    0    0  0.00000000000E+00  0.00000000000E+00  0.45593999997E+02  0.45594000000E+02  0.51100000000E-03 0.  1.
         11   -1    0    0    0    0 -0.00000000000E+00 -0.00000000000E+00 -0.45593999997E+02  0.45594000000E+02  0.51100000000E-03 0. -1.
    9900012    2    1    2    0    0  0.34992047879E+02 -0.25513864422E+02  0.28675037279E+01  0.47787271087E+02  0.20000000195E+02 0.  0.
        -12    1    1    2    0    0 -0.34992047879E+02  0.25513864422E+02 -0.28675037279E+01  0.43400728913E+02  0.00000000000E+00 0.  1.
         11    1    3    3    0    0  0.33099935715E+02 -0.23127464232E+02 -0.33113547753E+00  0.40380626507E+02  0.51100000000E-03 0. -1.
        -11    1    3    3    0    0  0.15138922855E+00 -0.25426215808E+01  0.45385173554E+01  0.52044195881E+01  0.51100000000E-03 0.  1.
        -12    1    3    3    0    0  0.17407229354E+01  0.15622138997E+00 -0.13398781500E+01  0.22022249924E+01  0.00000000000E+00 0.  1.
</event>
<event>
 7    1  0.2642243E-009  0.4778727E+02  0.7816164E-02  0.1312668E+00
        -11   -1    0    0    0    0  0.00000000000E+00  0.00000000000E+00  0.45593999997E+02  0.45594000000E+02  0.51100000000E-03 0.  1.
         11   -1    0    0    0    0 -0.00000000000E+00 -0.00000000000E+00 -0.45593999997E+02  0.45594000000E+02  0.51100000000E-03 0. -1.
    9900012    2    1    2    0    0  0.31996871468E+02  0.25010577246E+02 -0.15306684882E+02  0.47787270052E+02  0.19999995476E+02 0.  0.
        -12    1    1    2    0    0 -0.31996871468E+02 -0.25010577246E+02  0.15306684882E+02  0.43400729948E+02  0.00000000000E+00 0.  1.
         11    1    3    3    0    0  0.21348055823E+02  0.93183453917E+01 -0.31734858259E+01  0.23508340239E+02  0.51100000000E-03 0. -1.
        -11    1    3    3    0    0 -0.15265081597E+01  0.32944053124E+01 -0.16820837803E+01  0.40015921368E+01  0.51100000000E-03 0.  1.
         12    1    3    3    0    0  0.12175323805E+02  0.12397826542E+02 -0.10451115275E+02  0.20277337676E+02  0.00000000000E+00 0. -1.
</event>
<event>
 7    1  0.2642243E-009  0.4778726E+02  0.7816164E-02  0.1312668E+00
        -11   -1    0    0    0    0  0.00000000000E+00  0.00000000000E+00  0.45593999997E+02  0.45594000000E+02  0.51100000000E-03 0.  1.
         11   -1    0    0    0    0 -0.00000000000E+00 -0.00000000000E+00 -0.45593999997E+02  0.45594000000E+02  0.51100000000E-03 0. -1.
    9900012    2    1    2    0    0  0.15781738613E+02  0.13021520841E+02 -0.38275328544E+02  0.47787262059E+02  0.19999959034E+02 0.  0.
        -12    1    1    2    0    0 -0.15781738613E+02 -0.13021520841E+02  0.38275328544E+02  0.43400737941E+02  0.00000000000E+00 0.  1.
         11    1    3    3    0    0  0.15796873296E+02  0.13970836901E+02 -0.36550476548E+02  0.42197900728E+02  0.51100000000E-03 0. -1.
        -11    1    3    3    0    0 -0.17932028093E+01  0.88583334297E+00  0.64785709692E+00  0.21023786781E+01  0.51100000000E-03 0.  1.
         12    1    3    3    0    0  0.17780681258E+01 -0.18351494027E+01 -0.23727090925E+01  0.34869826538E+01  0.00000000000E+00 0. -1.
</event>
<event>
 7    1  0.2642243E-009  0.4778727E+02  0.7816164E-02  0.1312668E+00
        -11   -1    0    0    0    0  0.00000000000E+00  0.00000000000E+00  0.45593999997E+02  0.45594000000E+02  0.51100000000E-03 0.  1.
         11   -1    0    0    0    0 -0.00000000000E+00 -0.00000000000E+00 -0.45593999997E+02  0.45594000000E+02  0.51100000000E-03 0. -1.
    9900012    2    1    2    0    0 -0.16580330336E+02 -0.14437592484E+02 -0.37420205499E+02  0.47787271776E+02  0.20000003337E+02 0.  0.
        -12    1    1    2    0    0  0.16580330336E+02  0.14437592484E+02  0.37420205499E+02  0.43400728224E+02  0.00000000000E+00 0.  1.
         11    1    3    3    0    0 -0.54240719745E+01 -0.10430427213E+02 -0.14252511041E+02  0.18475617442E+02  0.51100000000E-03 0. -1.
        -11    1    3    3    0    0  0.59288718081E+00  0.25110355594E+01 -0.59003112184E-01  0.25807550093E+01  0.51100000000E-03 0.  1.
        -12    1    3    3    0    0 -0.11749145542E+02 -0.65182008310E+01 -0.23108691346E+02  0.26730899325E+02  0.00000000000E+00 0.  1.
</event>
<event>
 7    1  0.2642243E-009  0.4778728E+02  0.7816164E-02  0.1312668E+00
        -11   -1    0    0    0    0  0.00000000000E+00  0.00000000000E+00  0.45593999997E+02  0.45594000000E+02  0.51100000000E-03 0.  1.
         11   -1    0    0    0    0 -0.00000000000E+00 -0.00000000000E+00 -0.45593999997E+02  0.45594000000E+02  0.51100000000E-03 0. -1.
    9900012    2    1    2    0    0 -0.19291180258E+02  0.28634811087E+02 -0.26296784723E+02  0.47787275023E+02  0.20000018142E+02 0.  0.
        -12    1    1    2    0    0  0.19291180258E+02 -0.28634811087E+02  0.26296784723E+02  0.43400724977E+02  0.00000000000E+00 0.  1.
         11    1    3    3    0    0 -0.84205939252E+01  0.21884399864E+02 -0.11196088888E+02  0.25984336938E+02  0.51100000000E-03 0. -1.
        -11    1    3    3    0    0 -0.10228497314E+02  0.49742008171E+01 -0.67171488006E+01  0.13209273990E+02  0.51100000000E-03 0.  1.
         12    1    3    3    0    0 -0.64208901929E+00  0.17762104057E+01 -0.83835470342E+01  0.85936640956E+01  0.00000000000E+00 0. -1.
</event>
<event>
 7    1  0.2642243E-009  0.4778727E+02  0.7816164E-02  0.1312668E+00
        -11   -1    0    0    0    0  0.00000000000E+00  0.00000000000E+00  0.45593999997E+02  0.45594000000E+02  0.51100000000E-03 0. -1.
         11   -1    0    0    0    0 -0.00000000000E+00 -0.00000000000E+00 -0.45593999997E+02  0.45594000000E+02  0.51100000000E-03 0.  1.
    9900012    2    1    2    0    0 -0.38195097276E+02 -0.18434414644E+02 -0.92157687881E+01  0.47787268514E+02  0.19999988463E+02 0.  0.
        -12    1    1    2    0    0  0.38195097276E+02  0.18434414644E+02  0.92157687881E+01  0.43400731486E+02  0.00000000000E+00 0.  1.
         11    1    3    3    0    0 -0.88590546685E+01 -0.54406709159E+01  0.12323574293E+00  0.10397063862E+02  0.51100000000E-03 0. -1.
        -11    1    3    3    0    0 -0.10240153870E+02 -0.28697817642E+01  0.46898343731E+01  0.11622863045E+02  0.51100000000E-03 0.  1.
        -12    1    3    3    0    0 -0.19095888737E+02 -0.10123961964E+02 -0.14028838904E+02  0.25767341607E+02  0.00000000000E+00 0.  1.
</event>
<event>
 7    1  0.2642243E-009  0.4778728E+02  0.7816164E-02  0.1312668E+00
        -11   -1    0    0    0    0  0.00000000000E+00  0.00000000000E+00  0.45593999997E+02  0.45594000000E+02  0.51100000000E-03 0. -1.
         11   -1    0    0    0    0 -0.00000000000E+00 -0.00000000000E+00 -0.45593999997E+02  0.45594000000E+02  0.51100000000E-03 0.  1.
    9900012    2    1    2    0    0 -0.27785486135E+02 -0.31980089722E+02  0.94267042377E+01  0.47787284209E+02  0.20000060024E+02 0.  0.
        -12    1    1    2    0    0  0.27785486135E+02  0.31980089722E+02 -0.94267042377E+01  0.43400715791E+02  0.00000000000E+00 0.  1.
         11    1    3    3    0    0 -0.15188239428E+02 -0.12331337395E+02  0.13333480347E+02  0.23675434469E+02  0.51100000000E-03 0. -1.
        -11    1    3    3    0    0 -0.38404432736E+01 -0.10012445653E+02 -0.25331315562E+01  0.11018839695E+02  0.51100000000E-03 0.  1.
         12    1    3    3    0    0 -0.87568034335E+01 -0.96363066738E+01 -0.13736445530E+01  0.13093010045E+02  0.00000000000E+00 0. -1.
</event>
<event>
 7    1  0.2642243E-009  0.4778726E+02  0.7816164E-02  0.1312668E+00
        -11   -1    0    0    0    0  0.00000000000E+00  0.00000000000E+00  0.45593999997E+02  0.45594000000E+02  0.51100000000E-03 0. -1.
         11   -1    0    0    0    0 -0.00000000000E+00 -0.00000000000E+00 -0.45593999997E+02  0.45594000000E+02  0.51100000000E-03 0.  1.
    9900012    2    1    2    0    0  0.35933202841E+02  0.21903234584E+02  0.10614961433E+02  0.47787260860E+02  0.19999953566E+02 0.  0.
        -12    1    1    2    0    0 -0.35933202841E+02 -0.21903234584E+02 -0.10614961433E+02  0.43400739140E+02  0.00000000000E+00 0.  1.
         11    1    3    3    0    0  0.19392188807E+02  0.38138003911E+01 -0.12936156460E+01  0.19805946123E+02  0.51100000000E-03 0. -1.
        -11    1    3    3    0    0  0.99704387934E+01  0.71625844926E+01  0.79696522803E+01  0.14636516801E+02  0.51100000000E-03 0.  1.
         12    1    3    3    0    0  0.65705752410E+01  0.10926849700E+02  0.39389247991E+01  0.13344797935E+02  0.00000000000E+00 0. -1.
</event>
<event>
 7    1  0.2642243E-009  0.4778726E+02  0.7816164E-02  0.1312668E+00
        -11   -1    0    0    0    0  0.00000000000E+00  0.00000000000E+00  0.45593999997E+02  0.45594000000E+02  0.51100000000E-03 0.  1.
         11   -1    0    0    0    0 -0.00000000000E+00 -0.00000000000E+00 -0.45593999997E+02  0.45594000000E+02  0.51100000000E-03 0. -1.
    9900012    2    1    2    0    0 -0.15743839716E+02 -0.14180012998E+02 -0.37877203957E+02  0.47787264554E+02  0.19999970409E+02 0.  0.
        -12    1    1    2    0    0  0.15743839716E+02  0.14180012998E+02  0.37877203957E+02  0.43400735446E+02  0.00000000000E+00 0.  1.
         11    1    3    3    0    0 -0.40969984470E+01 -0.10991020716E+02 -0.61464572163E+01  0.13242615649E+02  0.51100000000E-03 0. -1.
        -11    1    3    3    0    0 -0.93077714919E+01 -0.51145679179E+01 -0.25109185067E+02  0.27262879344E+02  0.51100000000E-03 0.  1.
         12    1    3    3    0    0 -0.23390697766E+01  0.19255756356E+01 -0.66215616744E+01  0.72817695622E+01  0.00000000000E+00 0. -1.
</event>
<event>
 7    1  0.2642243E-009  0.4778727E+02  0.7816164E-02  0.1312668E+00
        -11   -1    0    0    0    0  0.00000000000E+00  0.00000000000E+00  0.45593999997E+02  0.45594000000E+02  0.51100000000E-03 0.  1.
         11   -1    0    0    0    0 -0.00000000000E+00 -0.00000000000E+00 -0.45593999997E+02  0.45594000000E+02  0.51100000000E-03 0. -1.
    9900012    2    1    2    0    0  0.20108917414E+02 -0.34972598975E+02 -0.16005381717E+02  0.47787268641E+02  0.19999989040E+02 0.  0.
        -12    1    1    2    0    0 -0.20108917414E+02  0.34972598975E+02  0.16005381717E+02  0.43400731359E+02  0.00000000000E+00 0.  1.
         11    1    3    3    0    0  0.16186444715E+02 -0.13081823197E+02 -0.32501182363E+01  0.21064148677E+02  0.51100000000E-03 0. -1.
        -11    1    3    3    0    0 -0.16969412120E+01 -0.62334306880E+01 -0.58370369521E+01  0.87066795198E+01  0.51100000000E-03 0.  1.
         12    1    3    3    0    0  0.56194139113E+01 -0.15657345090E+02 -0.69182265290E+01  0.18016440444E+02  0.00000000000E+00 0. -1.
</event>
<event>
 7    1  0.2642243E-009  0.4778727E+02  0.7816164E-02  0.1312668E+00
        -11   -1    0    0    0    0  0.00000000000E+00  0.00000000000E+00  0.45593999997E+02  0.45594000000E+02  0.51100000000E-03 0.  1.
         11   -1    0    0    0    0 -0.00000000000E+00 -0.00000000000E+00 -0.45593999997E+02  0.45594000000E+02  0.51100000000E-03 0. -1.
    9900012    2    1    2    0    0  0.27463889038E+02 -0.13277624071E+01 -0.33579680143E+02  0.47787273363E+02  0.20000010573E+02 0.  0.
        -12    1    1    2    0    0 -0.27463889038E+02  0.13277624071E+01  0.33579680143E+02  0.43400726637E+02  0.00000000000E+00 0.  1.
         11    1    3    3    0    0  0.62541111974E+01  0.54110965997E+01 -0.10059298319E+02  0.13022417449E+02  0.51100000000E-03 0. -1.
        -11    1    3    3    0    0  0.21276754269E+02 -0.45572333735E+01 -0.24136650012E+02  0.32496869423E+02  0.51100000000E-03 0.  1.
        -12    1    3    3    0    0 -0.66976428475E-01 -0.21816256332E+01  0.61626818830E+00  0.22679864914E+01  0.00000000000E+00 0.  1.
</event>
<event>
 7    1  0.2642243E-009  0.4778727E+02  0.7816164E-02  0.1312668E+00
        -11   -1    0    0    0    0  0.00000000000E+00  0.00000000000E+00  0.45593999997E+02  0.45594000000E+02  0.51100000000E-03 0.  1.
         11   -1    0    0    0    0 -0.00000000000E+00 -0.00000000000E+00 -0.45593999997E+02  0.45594000000E+02  0.51100000000E-03 0. -1.
    9900012    2    1    2    0    0 -0.17137418925E+02  0.10824235705E+02 -0.38376660047E+02  0.47787271407E+02  0.20000001654E+02 0.  0.
        -12    1    1    2    0    0  0.17137418925E+02 -0.10824235705E+02  0.38376660047E+02  0.43400728593E+02  0.00000000000E+00 0.  1.
         11    1    3    3    0    0 -0.79116632928E+01  0.32739672583E+00 -0.84333595159E+01  0.11568195955E+02  0.51100000000E-03 0. -1.
        -11    1    3    3    0    0  0.25322072998E+01  0.35419902008E+01 -0.16455055157E+02  0.17021357434E+02  0.51100000000E-03 0.  1.
        -12    1    3    3    0    0 -0.11757962932E+02  0.69548487783E+01 -0.13488245374E+02  0.19197718018E+02  0.00000000000E+00 0.  1.
</event>
<event>
 7    1  0.2642243E-009  0.4778727E+02  0.7816164E-02  0.1312668E+00
        -11   -1    0    0    0    0  0.00000000000E+00  0.00000000000E+00  0.45593999997E+02  0.45594000000E+02  0.51100000000E-03 0.  1.
         11   -1    0    0    0    0 -0.00000000000E+00 -0.00000000000E+00 -0.45593999997E+02  0.45594000000E+02  0.51100000000E-03 0. -1.
    9900012    2    1    2    0    0 -0.62697894587E+01 -0.26381394202E+02 -0.33887093757E+02  0.47787270246E+02  0.19999996358E+02 0.  0.
        -12    1    1    2    0    0  0.62697894587E+01  0.26381394202E+02  0.33887093757E+02  0.43400729754E+02  0.00000000000E+00 0.  1.
         11    1    3    3    0    0 -0.75069076817E+01 -0.79469281643E+01 -0.15202167766E+02  0.18724669162E+02  0.51100000000E-03 0. -1.
        -11    1    3    3    0    0  0.27082871575E+01 -0.39643002013E+01  0.67445152577E+00  0.48482347855E+01  0.51100000000E-03 0.  1.
         12    1    3    3    0    0 -0.14711689345E+01 -0.14470165837E+02 -0.19359377517E+02  0.24214366298E+02  0.00000000000E+00 0. -1.
</event>
<event>
 7    1  0.2642243E-009  0.4778727E+02  0.7816164E-02  0.1312668E+00
        -11   -1    0    0    0    0  0.00000000000E+00  0.00000000000E+00  0.45593999997E+02  0.45594000000E+02  0.51100000000E-03 0.  1.
         11   -1    0    0    0    0 -0.00000000000E+00 -0.00000000000E+00 -0.45593999997E+02  0.45594000000E+02  0.51100000000E-03 0. -1.
    9900012    2    1    2    0    0  0.17648709602E+02 -0.11416042843E+02 -0.37971309609E+02  0.47787270303E+02  0.19999996619E+02 0.  0.
        -12    1    1    2    0    0 -0.17648709602E+02  0.11416042843E+02  0.37971309609E+02  0.43400729697E+02  0.00000000000E+00 0.  1.
         11    1    3    3    0    0  0.18269298571E+02 -0.12365259014E+02 -0.23961167840E+02  0.32569993327E+02  0.51100000000E-03 0. -1.
        -11    1    3    3    0    0 -0.17293353355E+01  0.18803700070E+01 -0.23613422023E+01  0.34788402267E+01  0.51100000000E-03 0.  1.
         12    1    3    3    0    0  0.11087463662E+01 -0.93115383582E+00 -0.11648799567E+02  0.11738436750E+02  0.00000000000E+00 0. -1.
</event>
<event>
 7    1  0.2642243E-009  0.4778726E+02  0.7816164E-02  0.1312668E+00
        -11   -1    0    0    0    0  0.00000000000E+00  0.00000000000E+00  0.45593999997E+02  0.45594000000E+02  0.51100000000E-03 0.  1.
         11   -1    0    0    0    0 -0.00000000000E+00 -0.00000000000E+00 -0.45593999997E+02  0.45594000000E+02  0.51100000000E-03 0. -1.
    9900012    2    1    2    0    0 -0.33726029237E+02 -0.10967628128E+01 -0.27294251436E+02  0.47787261547E+02  0.19999956698E+02 0.  0.
        -12    1    1    2    0    0  0.33726029237E+02  0.10967628128E+01  0.27294251436E+02  0.43400738453E+02  0.00000000000E+00 0.  1.
         11    1    3    3    0    0 -0.19223579173E+02  0.25291998682E+01 -0.61877538399E+01  0.20352669261E+02  0.51100000000E-03 0.  1.
        -11    1    3    3    0    0 -0.13531992117E+02 -0.12320792888E+01 -0.20783781610E+02  0.24831399644E+02  0.51100000000E-03 0. -1.
         12    1    3    3    0    0 -0.97045794767E+00 -0.23938833922E+01 -0.32271598639E+00  0.26031926420E+01  0.00000000000E+00 0. -1.
</event>
<event>
 7    1  0.2642243E-009  0.4778727E+02  0.7816164E-02  0.1312668E+00
        -11   -1    0    0    0    0  0.00000000000E+00  0.00000000000E+00  0.45593999997E+02  0.45594000000E+02  0.51100000000E-03 0. -1.
         11   -1    0    0    0    0 -0.00000000000E+00 -0.00000000000E+00 -0.45593999997E+02  0.45594000000E+02  0.51100000000E-03 0.  1.
    9900012    2    1    2    0    0  0.24426364341E+02  0.29837733703E+02  0.19916968737E+02  0.47787271077E+02  0.20000000147E+02 0.  0.
        -12    1    1    2    0    0 -0.24426364341E+02 -0.29837733703E+02 -0.19916968737E+02  0.43400728923E+02  0.00000000000E+00 0.  1.
         11    1    3    3    0    0  0.88511106905E-01  0.49030934947E+01  0.73143722201E+01  0.88061456534E+01  0.51100000000E-03 0. -1.
        -11    1    3    3    0    0  0.12532656883E+02  0.19517339802E+02  0.43692348869E+01  0.23602632379E+02  0.51100000000E-03 0.  1.
        -12    1    3    3    0    0  0.11805196351E+02  0.54173004065E+01  0.82333616295E+01  0.15378493044E+02  0.00000000000E+00 0.  1.
</event>
<event>
 7    1  0.2642243E-009  0.4778727E+02  0.7816164E-02  0.1312668E+00
        -11   -1    0    0    0    0  0.00000000000E+00  0.00000000000E+00  0.45593999997E+02  0.45594000000E+02  0.51100000000E-03 0.  1.
         11   -1    0    0    0    0 -0.00000000000E+00 -0.00000000000E+00 -0.45593999997E+02  0.45594000000E+02  0.51100000000E-03 0. -1.
    9900012    2    1    2    0    0 -0.87404552105E+01 -0.34829759102E+02 -0.24374486698E+02  0.47787270995E+02  0.19999999775E+02 0.  0.
        -12    1    1    2    0    0  0.87404552105E+01  0.34829759102E+02  0.24374486698E+02  0.43400729005E+02  0.00000000000E+00 0.  1.
         11    1    3    3    0    0 -0.69680594420E+01 -0.25590042921E+02 -0.18439338342E+02  0.32301909353E+02  0.51100000000E-03 0. -1.
        -11    1    3    3    0    0 -0.35768580623E+01  0.89907097028E+00 -0.30631173492E+01  0.47942601477E+01  0.51100000000E-03 0.  1.
        -12    1    3    3    0    0  0.18044622938E+01 -0.10138787151E+02 -0.28720310072E+01  0.10691101495E+02  0.00000000000E+00 0.  1.
</event>
<event>
 7    1  0.2642243E-009  0.4778726E+02  0.7816164E-02  0.1312668E+00
        -11   -1    0    0    0    0  0.00000000000E+00  0.00000000000E+00  0.45593999997E+02  0.45594000000E+02  0.51100000000E-03 0. -1.
         11   -1    0    0    0    0 -0.00000000000E+00 -0.00000000000E+00 -0.45593999997E+02  0.45594000000E+02  0.51100000000E-03 0.  1.
    9900012    2    1    2    0    0  0.13201643434E+02 -0.14687375251E+02  0.38647403451E+02  0.47787260667E+02  0.19999952685E+02 0.  0.
        -12    1    1    2    0    0 -0.13201643434E+02  0.14687375251E+02 -0.38647403451E+02  0.43400739333E+02  0.00000000000E+00 0.  1.
         11    1    3    3    0    0  0.46537597826E+01 -0.16506107325E+02  0.28119075547E+02  0.32936172653E+02  0.51100000000E-03 0. -1.
        -11    1    3    3    0    0  0.39460642953E+01  0.35926841760E+01  0.69270419889E+01  0.87442960830E+01  0.51100000000E-03 0.  1.
         12    1    3    3    0    0  0.46018193557E+01 -0.17739521015E+01  0.36012859151E+01  0.61067919306E+01  0.00000000000E+00 0. -1.
</event>
<event>
 7    1  0.2642243E-009  0.4778727E+02  0.7816164E-02  0.1312668E+00
        -11   -1    0    0    0    0  0.00000000000E+00  0.00000000000E+00  0.45593999997E+02  0.45594000000E+02  0.51100000000E-03 0. -1.
         11   -1    0    0    0    0 -0.00000000000E+00 -0.00000000000E+00 -0.45593999997E+02  0.45594000000E+02  0.51100000000E-03 0.  1.
    9900012    2    1    2    0    0  0.11366621846E+02 -0.26297655273E+02  0.32601481627E+02  0.47787269944E+02  0.19999994984E+02 0.  0.
        -12    1    1    2    0    0 -0.11366621846E+02  0.26297655273E+02 -0.32601481627E+02  0.43400730056E+02  0.00000000000E+00 0.  1.
         11    1    3    3    0    0  0.88021809897E+01 -0.12128655028E+02  0.60843414557E+01  0.16174111233E+02  0.51100000000E-03 0. -1.
        -11    1    3    3    0    0  0.45382817316E+01 -0.29975580148E+01  0.55317437009E+01  0.77576764408E+01  0.51100000000E-03 0.  1.
         12    1    3    3    0    0 -0.19738408754E+01 -0.11171442231E+02  0.20985396471E+02  0.23855482270E+02  0.00000000000E+00 0. -1.
</event>
<event>
 7    1  0.2642243E-009  0.4778727E+02  0.7816164E-02  0.1312668E+00
        -11   -1    0    0    0    0  0.00000000000E+00  0.00000000000E+00  0.45593999997E+02  0.45594000000E+02  0.51100000000E-03 0.  1.
         11   -1    0    0    0    0 -0.00000000000E+00 -0.00000000000E+00 -0.45593999997E+02  0.45594000000E+02  0.51100000000E-03 0. -1.
    9900012    2    1    2    0    0 -0.12842128689E+02  0.21338330630E+02 -0.35544036377E+02  0.47787272526E+02  0.20000006753E+02 0.  0.
        -12    1    1    2    0    0  0.12842128689E+02 -0.21338330630E+02  0.35544036377E+02  0.43400727474E+02  0.00000000000E+00 0.  1.
         11    1    3    3    0    0 -0.27309834376E+01 -0.17060016230E+00  0.35440616521E+00  0.27591627250E+01  0.51100000000E-03 0. -1.
        -11    1    3    3    0    0  0.17607178818E+01  0.59136887766E+01 -0.15767084792E+02  0.16931414752E+02  0.51100000000E-03 0.  1.
         12    1    3    3    0    0 -0.11871863134E+02  0.15595242016E+02 -0.20131357750E+02  0.28096695049E+02  0.00000000000E+00 0. -1.
</event>
<event>
 7    1  0.2822521E-009  0.4778726E+02  0.7816164E-02  0.1312668E+00
        -11   -1    0    0    0    0  0.00000000000E+00  0.00000000000E+00  0.45593999997E+02  0.45594000000E+02  0.51100000000E-03 0. -1.
         11   -1    0    0    0    0 -0.00000000000E+00 -0.00000000000E+00 -0.45593999997E+02  0.45594000000E+02  0.51100000000E-03 0.  1.
    9900012    2    1    2    0    0 -0.31580476039E+02  0.29259038894E+02  0.54960143612E+01  0.47787262705E+02  0.19999961979E+02 0.  0.
        -12    1    1    2    0    0  0.31580476039E+02 -0.29259038894E+02 -0.54960143612E+01  0.43400737295E+02  0.00000000000E+00 0.  1.
         11    1    3    3    0    0 -0.11897927079E+02  0.10349895623E+02  0.18224327142E+01  0.15874579347E+02  0.51100000000E-03 0. -1.
        -11    1    3    3    0    0 -0.12469278911E+02  0.12094932026E+02  0.10096398685E+02  0.20092475306E+02  0.51100000000E-03 0.  1.
        -12    1    3    3    0    0 -0.72132700488E+01  0.68142112455E+01 -0.64228170376E+01  0.11820208052E+02  0.00000000000E+00 0.  1.
</event>
<event>
 7    1  0.2642243E-009  0.4778727E+02  0.7816164E-02  0.1312668E+00
        -11   -1    0    0    0    0  0.00000000000E+00  0.00000000000E+00  0.45593999997E+02  0.45594000000E+02  0.51100000000E-03 0.  1.
         11   -1    0    0    0    0 -0.00000000000E+00 -0.00000000000E+00 -0.45593999997E+02  0.45594000000E+02  0.51100000000E-03 0. -1.
    9900012    2    1    2    0    0  0.40688115465E+02  0.15097855353E+02  0.39425316522E+00  0.47787269454E+02  0.19999992749E+02 0.  0.
        -12    1    1    2    0    0 -0.40688115465E+02 -0.15097855353E+02 -0.39425316522E+00  0.43400730546E+02  0.00000000000E+00 0.  1.
         11    1    3    3    0    0  0.16103125593E+02  0.12575889823E+01 -0.44793737020E+01  0.16761771176E+02  0.51100000000E-03 0. -1.
        -11    1    3    3    0    0  0.67848190454E+01  0.10534866091E+02  0.17124677320E+01  0.12647122955E+02  0.51100000000E-03 0.  1.
        -12    1    3    3    0    0  0.17800170827E+02  0.33054002796E+01  0.31611591352E+01  0.18378375324E+02  0.00000000000E+00 0.  1.
</event>
<event>
 7    1  0.2642243E-009  0.4778728E+02  0.7816164E-02  0.1312668E+00
        -11   -1    0    0    0    0  0.00000000000E+00  0.00000000000E+00  0.45593999997E+02  0.45594000000E+02  0.51100000000E-03 0.  1.
         11   -1    0    0    0    0 -0.00000000000E+00 -0.00000000000E+00 -0.45593999997E+02  0.45594000000E+02  0.51100000000E-03 0. -1.
    9900012    2    1    2    0    0  0.12814020028E+02  0.34600259842E+02 -0.22852697906E+02  0.47787275443E+02  0.20000020057E+02 0.  0.
        -12    1    1    2    0    0 -0.12814020028E+02 -0.34600259842E+02  0.22852697906E+02  0.43400724557E+02  0.00000000000E+00 0.  1.
         11    1    3    3    0    0  0.73226210335E+01  0.17596298659E+02 -0.16826085978E+02  0.25423762013E+02  0.51100000000E-03 0. -1.
        -11    1    3    3    0    0 -0.32215806000E+01  0.53140022900E+01  0.79833454770E+00  0.62653443809E+01  0.51100000000E-03 0.  1.
        -12    1    3    3    0    0  0.87129795943E+01  0.11689958894E+02 -0.68249464763E+01  0.16098169050E+02  0.00000000000E+00 0.  1.
</event>
<event>
 7    1  0.2642243E-009  0.4778727E+02  0.7816164E-02  0.1312668E+00
        -11   -1    0    0    0    0  0.00000000000E+00  0.00000000000E+00  0.45593999997E+02  0.45594000000E+02  0.51100000000E-03 0. -1.
         11   -1    0    0    0    0 -0.00000000000E+00 -0.00000000000E+00 -0.45593999997E+02  0.45594000000E+02  0.51100000000E-03 0.  1.
    9900012    2    1    2    0    0 -0.96071602234E+01 -0.26216295003E+01  0.42242784393E+02  0.47787270720E+02  0.19999998520E+02 0.  0.
        -12    1    1    2    0    0  0.96071602234E+01  0.26216295003E+01 -0.42242784393E+02  0.43400729280E+02  0.00000000000E+00 0.  1.
         11    1    3    3    0    0 -0.81089255662E+01 -0.73733127884E+01  0.11771061128E+02  0.16083478966E+02  0.51100000000E-03 0. -1.
        -11    1    3    3    0    0  0.79479984562E+00  0.30673174455E+01  0.27132187679E+02  0.27316583820E+02  0.51100000000E-03 0.  1.
        -12    1    3    3    0    0 -0.22930345029E+01  0.16843658426E+01  0.33395355859E+01  0.43872079336E+01  0.00000000000E+00 0.  1.
</event>
<event>
 7    1  0.2642243E-009  0.4778727E+02  0.7816164E-02  0.1312668E+00
        -11   -1    0    0    0    0  0.00000000000E+00  0.00000000000E+00  0.45593999997E+02  0.45594000000E+02  0.51100000000E-03 0.  1.
         11   -1    0    0    0    0 -0.00000000000E+00 -0.00000000000E+00 -0.45593999997E+02  0.45594000000E+02  0.51100000000E-03 0. -1.
    9900012    2    1    2    0    0 -0.36771465901E+02 -0.40314406814E+01 -0.22698678377E+02  0.47787271682E+02  0.20000002905E+02 0.  0.
        -12    1    1    2    0    0  0.36771465901E+02  0.40314406814E+01  0.22698678377E+02  0.43400728318E+02  0.00000000000E+00 0.  1.
         11    1    3    3    0    0 -0.27421530257E+02  0.53187094527E+01 -0.18983270301E+02  0.33772674509E+02  0.51100000000E-03 0. -1.
        -11    1    3    3    0    0 -0.19112444866E+01 -0.35719776854E+01 -0.16332945719E+01  0.43680123045E+01  0.51100000000E-03 0.  1.
         12    1    3    3    0    0 -0.74386911574E+01 -0.57781724487E+01 -0.20821135045E+01  0.96465848687E+01  0.00000000000E+00 0. -1.
</event>
<event>
 7    1  0.2642243E-009  0.4778727E+02  0.7816164E-02  0.1312668E+00
        -11   -1    0    0    0    0  0.00000000000E+00  0.00000000000E+00  0.45593999997E+02  0.45594000000E+02  0.51100000000E-03 0. -1.
         11   -1    0    0    0    0 -0.00000000000E+00 -0.00000000000E+00 -0.45593999997E+02  0.45594000000E+02  0.51100000000E-03 0.  1.
    9900012    2    1    2    0    0 -0.21154406981E+01 -0.42802142812E+02  0.68647513222E+01  0.47787270405E+02  0.19999997087E+02 0.  0.
        -12    1    1    2    0    0  0.21154406981E+01  0.42802142812E+02 -0.68647513222E+01  0.43400729595E+02  0.00000000000E+00 0.  1.
         11    1    3    3    0    0  0.56163811982E+01 -0.17198880318E+02  0.30929142194E+01  0.18355144798E+02  0.51100000000E-03 0. -1.
        -11    1    3    3    0    0 -0.49413990538E+01 -0.67026880433E+01 -0.34413774707E+01  0.90103568615E+01  0.51100000000E-03 0.  1.
        -12    1    3    3    0    0 -0.27904228425E+01 -0.18900574451E+02  0.72132145735E+01  0.20421768745E+02  0.00000000000E+00 0.  1.
</event>
<event>
 7    1  0.2642243E-009  0.4778727E+02  0.7816164E-02  0.1312668E+00
        -11   -1    0    0    0    0  0.00000000000E+00  0.00000000000E+00  0.45593999997E+02  0.45594000000E+02  0.51100000000E-03 0.  1.
         11   -1    0    0    0    0 -0.00000000000E+00 -0.00000000000E+00 -0.45593999997E+02  0.45594000000E+02  0.51100000000E-03 0. -1.
    9900012    2    1    2    0    0  0.31745337898E+02 -0.28419800185E+02 -0.82566152963E+01  0.47787271700E+02  0.20000002989E+02 0.  0.
        -12    1    1    2    0    0 -0.31745337898E+02  0.28419800185E+02  0.82566152963E+01  0.43400728300E+02  0.00000000000E+00 0.  1.
         11    1    3    3    0    0  0.28888350159E+02 -0.13766530465E+02 -0.48799450780E+01  0.32370789305E+02  0.51100000000E-03 0. -1.
        -11    1    3    3    0    0  0.21699996790E+01 -0.67367293469E+01 -0.19699005315E+01  0.73466270673E+01  0.51100000000E-03 0.  1.
         12    1    3    3    0    0  0.68698805965E+00 -0.79165403725E+01 -0.14067696868E+01  0.80698553280E+01  0.00000000000E+00 0. -1.
</event>
<event>
 7    1  0.2642243E-009  0.4778727E+02  0.7816164E-02  0.1312668E+00
        -11   -1    0    0    0    0  0.00000000000E+00  0.00000000000E+00  0.45593999997E+02  0.45594000000E+02  0.51100000000E-03 0.  1.
         11   -1    0    0    0    0 -0.00000000000E+00 -0.00000000000E+00 -0.45593999997E+02  0.45594000000E+02  0.51100000000E-03 0. -1.
    9900012    2    1    2    0    0  0.34173218717E+02  0.61219677660E+01 -0.26044885698E+02  0.47787269155E+02  0.19999991386E+02 0.  0.
        -12    1    1    2    0    0 -0.34173218717E+02 -0.61219677660E+01  0.26044885698E+02  0.43400730845E+02  0.00000000000E+00 0.  1.
         11    1    3    3    0    0  0.11093283606E+02 -0.15893682932E+01 -0.18130113846E+02  0.21314034368E+02  0.51100000000E-03 0. -1.
        -11    1    3    3    0    0  0.11305664634E+02  0.71736385268E+01 -0.31164376265E+01  0.13747411621E+02  0.51100000000E-03 0.  1.
         12    1    3    3    0    0  0.11774270477E+02  0.53769753247E+00 -0.47983342264E+01  0.12725823166E+02  0.00000000000E+00 0. -1.
</event>
<event>
 7    1  0.2642243E-009  0.4778727E+02  0.7816164E-02  0.1312668E+00
        -11   -1    0    0    0    0  0.00000000000E+00  0.00000000000E+00  0.45593999997E+02  0.45594000000E+02  0.51100000000E-03 0.  1.
         11   -1    0    0    0    0 -0.00000000000E+00 -0.00000000000E+00 -0.45593999997E+02  0.45594000000E+02  0.51100000000E-03 0. -1.
    9900012    2    1    2    0    0 -0.34184214429E+02 -0.60066785394E+01 -0.26057299337E+02  0.47787267841E+02  0.19999985396E+02 0.  0.
        -12    1    1    2    0    0  0.34184214429E+02  0.60066785394E+01  0.26057299337E+02  0.43400732159E+02  0.00000000000E+00 0.  1.
         11    1    3    3    0    0 -0.21235209241E+02 -0.38147581645E+00 -0.20865580595E+02  0.29773345280E+02  0.51100000000E-03 0. -1.
        -11    1    3    3    0    0 -0.34811644275E+00 -0.45762767260E+01 -0.10461754395E+01  0.47072260454E+01  0.51100000000E-03 0.  1.
         12    1    3    3    0    0 -0.12600888745E+02 -0.10489259970E+01 -0.41455433015E+01  0.13306696516E+02  0.00000000000E+00 0. -1.
</event>
<event>
 7    1  0.2642243E-009  0.4778727E+02  0.7816164E-02  0.1312668E+00
        -11   -1    0    0    0    0  0.00000000000E+00  0.00000000000E+00  0.45593999997E+02  0.45594000000E+02  0.51100000000E-03 0.  1.
         11   -1    0    0    0    0 -0.00000000000E+00 -0.00000000000E+00 -0.45593999997E+02  0.45594000000E+02  0.51100000000E-03 0. -1.
    9900012    2    1    2    0    0 -0.39397891966E+02 -0.18098938030E+02  0.19641828265E+01  0.47787268862E+02  0.19999990048E+02 0.  0.
        -12    1    1    2    0    0  0.39397891966E+02  0.18098938030E+02 -0.19641828265E+01  0.43400731138E+02  0.00000000000E+00 0.  1.
         11    1    3    3    0    0 -0.23315212739E+02 -0.14155260037E+02  0.79911319820E+01  0.28422327885E+02  0.51100000000E-03 0. -1.
        -11    1    3    3    0    0 -0.23244076409E+00 -0.15311182174E+01  0.10172852213E+01  0.18528953525E+01  0.51100000000E-03 0.  1.
         12    1    3    3    0    0 -0.15850238463E+02 -0.24125597763E+01 -0.70442343768E+01  0.17512045624E+02  0.00000000000E+00 0. -1.
</event>
<event>
 7    1  0.2642243E-009  0.4778727E+02  0.7816164E-02  0.1312668E+00
        -11   -1    0    0    0    0  0.00000000000E+00  0.00000000000E+00  0.45593999997E+02  0.45594000000E+02  0.51100000000E-03 0.  1.
         11   -1    0    0    0    0 -0.00000000000E+00 -0.00000000000E+00 -0.45593999997E+02  0.45594000000E+02  0.51100000000E-03 0. -1.
    9900012    2    1    2    0    0  0.24747566746E+02 -0.35554641259E+02  0.26549104279E+01  0.47787272768E+02  0.20000007858E+02 0.  0.
        -12    1    1    2    0    0 -0.24747566746E+02  0.35554641259E+02 -0.26549104279E+01  0.43400727232E+02  0.00000000000E+00 0.  1.
         11    1    3    3    0    0  0.10478053717E+02 -0.13202071122E+02 -0.71385505599E+01  0.18304185203E+02  0.51100000000E-03 0. -1.
        -11    1    3    3    0    0 -0.23386654017E+00  0.38285980497E+00 -0.45017720230E+00  0.63555878050E+00  0.51100000000E-03 0.  1.
         12    1    3    3    0    0  0.14503379570E+02 -0.22735429942E+02  0.10243638190E+02  0.28847528784E+02  0.00000000000E+00 0. -1.
</event>
<event>
 7    1  0.2642243E-009  0.4778731E+02  0.7816164E-02  0.1312668E+00
        -11   -1    0    0    0    0  0.00000000000E+00  0.00000000000E+00  0.45593999997E+02  0.45594000000E+02  0.51100000000E-03 0.  1.
         11   -1    0    0    0    0 -0.00000000000E+00 -0.00000000000E+00 -0.45593999997E+02  0.45594000000E+02  0.51100000000E-03 0. -1.
    9900012    2    1    2    0    0 -0.12565210361E+02 -0.40367601748E+02 -0.98077595681E+01  0.47787309567E+02  0.20000175639E+02 0.  0.
        -12    1    1    2    0    0  0.12565210361E+02  0.40367601748E+02  0.98077595681E+01  0.43400690433E+02  0.00000000000E+00 0.  1.
         11    1    3    3    0    0  0.46113461457E+00  0.26640566197E+00 -0.59481132100E+00  0.79838454281E+00  0.51100000000E-03 0. -1.
        -11    1    3    3    0    0  0.30462252827E+00 -0.25701440127E+02 -0.22768612561E+01  0.25803893445E+02  0.51100000000E-03 0.  1.
        -12    1    3    3    0    0 -0.13330967504E+02 -0.14932567283E+02 -0.69360869910E+01  0.21185031579E+02  0.00000000000E+00 0.  1.
</event>
<event>
 7    1  0.2642243E-009  0.4778727E+02  0.7816164E-02  0.1312668E+00
        -11   -1    0    0    0    0  0.00000000000E+00  0.00000000000E+00  0.45593999997E+02  0.45594000000E+02  0.51100000000E-03 0. -1.
         11   -1    0    0    0    0 -0.00000000000E+00 -0.00000000000E+00 -0.45593999997E+02  0.45594000000E+02  0.51100000000E-03 0.  1.
    9900012    2    1    2    0    0  0.37988369682E+02  0.20701603657E+02 -0.34569781944E+01  0.47787270475E+02  0.19999997404E+02 0.  0.
        -12    1    1    2    0    0 -0.37988369682E+02 -0.20701603657E+02  0.34569781944E+01  0.43400729525E+02  0.00000000000E+00 0.  1.
         11    1    3    3    0    0  0.18308264748E+02  0.22689248666E+01  0.44406185517E+01  0.18975238378E+02  0.51100000000E-03 0. -1.
        -11    1    3    3    0    0  0.17623144815E+02  0.13911094084E+02 -0.48046883978E+01  0.22960374619E+02  0.51100000000E-03 0.  1.
         12    1    3    3    0    0  0.20569601193E+01  0.45215847064E+01 -0.30929083483E+01  0.58516574781E+01  0.00000000000E+00 0. -1.
</event>
<event>
 7    1  0.2642243E-009  0.4778727E+02  0.7816164E-02  0.1312668E+00
        -11   -1    0    0    0    0  0.00000000000E+00  0.00000000000E+00  0.45593999997E+02  0.45594000000E+02  0.51100000000E-03 0.  1.
         11   -1    0    0    0    0 -0.00000000000E+00 -0.00000000000E+00 -0.45593999997E+02  0.45594000000E+02  0.51100000000E-03 0. -1.
    9900012    2    1    2    0    0 -0.78259732794E+01  0.89671361602E+01 -0.41736884717E+02  0.47787274953E+02  0.20000017822E+02 0.  0.
        -12    1    1    2    0    0  0.78259732794E+01 -0.89671361602E+01  0.41736884717E+02  0.43400725047E+02  0.00000000000E+00 0.  1.
         11    1    3    3    0    0 -0.55316283102E+01  0.89672706187E+01 -0.31376096693E+02  0.33097889632E+02  0.51100000000E-03 0. -1.
        -11    1    3    3    0    0 -0.43028401691E+01 -0.86733686728E+00 -0.30676071531E+00  0.44000919490E+01  0.51100000000E-03 0.  1.
        -12    1    3    3    0    0  0.20084951999E+01  0.86720240872E+00 -0.10054027308E+02  0.10289293372E+02  0.00000000000E+00 0.  1.
</event>
<event>
 7    1  0.2642243E-009  0.4778727E+02  0.7816164E-02  0.1312668E+00
        -11   -1    0    0    0    0  0.00000000000E+00  0.00000000000E+00  0.45593999997E+02  0.45594000000E+02  0.51100000000E-03 0.  1.
         11   -1    0    0    0    0 -0.00000000000E+00 -0.00000000000E+00 -0.45593999997E+02  0.45594000000E+02  0.51100000000E-03 0. -1.
    9900012    2    1    2    0    0  0.11966293591E+02 -0.33284149592E+02 -0.25151470514E+02  0.47787271142E+02  0.20000000443E+02 0.  0.
        -12    1    1    2    0    0 -0.11966293591E+02  0.33284149592E+02  0.25151470514E+02  0.43400728858E+02  0.00000000000E+00 0.  1.
         11    1    3    3    0    0 -0.42806527427E+01 -0.12678839688E+02 -0.13300769834E+02  0.18867629480E+02  0.51100000000E-03 0. -1.
        -11    1    3    3    0    0  0.91599321372E+01 -0.13639717202E+02 -0.69442094616E+01  0.17837272421E+02  0.51100000000E-03 0.  1.
         12    1    3    3    0    0  0.70870141967E+01 -0.69655927025E+01 -0.49064912190E+01  0.11082369241E+02  0.00000000000E+00 0. -1.
</event>
<event>
 7    1  0.2642243E-009  0.4778727E+02  0.7816164E-02  0.1312668E+00
        -11   -1    0    0    0    0  0.00000000000E+00  0.00000000000E+00  0.45593999997E+02  0.45594000000E+02  0.51100000000E-03 0. -1.
         11   -1    0    0    0    0 -0.00000000000E+00 -0.00000000000E+00 -0.45593999997E+02  0.45594000000E+02  0.51100000000E-03 0.  1.
    9900012    2    1    2    0    0  0.84979212100E+01  0.23651069745E+02  0.35384112614E+02  0.47787272006E+02  0.20000004382E+02 0.  0.
        -12    1    1    2    0    0 -0.84979212100E+01 -0.23651069745E+02 -0.35384112614E+02  0.43400727994E+02  0.00000000000E+00 0.  1.
         11    1    3    3    0    0  0.30412152923E+01  0.22211445739E+02  0.20230746703E+02  0.30197357909E+02  0.51100000000E-03 0. -1.
        -11    1    3    3    0    0  0.22123901862E+00  0.48542418028E+00  0.10520838286E+02  0.10534354363E+02  0.51100000000E-03 0.  1.
         12    1    3    3    0    0  0.52354668991E+01  0.95419982558E+00  0.46325276251E+01  0.70555597337E+01  0.00000000000E+00 0. -1.
</event>
<event>
 7    1  0.2642243E-009  0.4778727E+02  0.7816164E-02  0.1312668E+00
        -11   -1    0    0    0    0  0.00000000000E+00  0.00000000000E+00  0.45593999997E+02  0.45594000000E+02  0.51100000000E-03 0.  1.
         11   -1    0    0    0    0 -0.00000000000E+00 -0.00000000000E+00 -0.45593999997E+02  0.45594000000E+02  0.51100000000E-03 0. -1.
    9900012    2    1    2    0    0 -0.19333675652E+02 -0.11062219699E+02 -0.37248622628E+02  0.47787267212E+02  0.19999982525E+02 0.  0.
        -12    1    1    2    0    0  0.19333675652E+02  0.11062219699E+02  0.37248622628E+02  0.43400732788E+02  0.00000000000E+00 0.  1.
         11    1    3    3    0    0 -0.14839754679E+02 -0.94517492177E+01 -0.12939466650E+02  0.21839956036E+02  0.51100000000E-03 0. -1.
        -11    1    3    3    0    0 -0.22915463470E+01  0.30334900830E+01 -0.12569128394E+02  0.13131497842E+02  0.51100000000E-03 0.  1.
         12    1    3    3    0    0 -0.22023746255E+01 -0.46439605639E+01 -0.11740027584E+02  0.12815813333E+02  0.00000000000E+00 0. -1.
</event>
<event>
 7    1  0.2642243E-009  0.4778726E+02  0.7816164E-02  0.1312668E+00
        -11   -1    0    0    0    0  0.00000000000E+00  0.00000000000E+00  0.45593999997E+02  0.45594000000E+02  0.51100000000E-03 0.  1.
         11   -1    0    0    0    0 -0.00000000000E+00 -0.00000000000E+00 -0.45593999997E+02  0.45594000000E+02  0.51100000000E-03 0. -1.
    9900012    2    1    2    0    0 -0.33280226224E+02  0.20323515175E+01 -0.27783449396E+02  0.47787263018E+02  0.19999963406E+02 0.  0.
        -12    1    1    2    0    0  0.33280226224E+02 -0.20323515175E+01  0.27783449396E+02  0.43400736982E+02  0.00000000000E+00 0.  1.
         11    1    3    3    0    0 -0.23779622051E+02  0.40486385447E+01 -0.91136452361E+01  0.25786051049E+02  0.51100000000E-03 0. -1.
        -11    1    3    3    0    0 -0.91469991338E+01 -0.37320796314E+01 -0.16160049671E+02  0.18940517869E+02  0.51100000000E-03 0.  1.
        -12    1    3    3    0    0 -0.35360503981E+00  0.17157926042E+01 -0.25097544885E+01  0.30606941006E+01  0.00000000000E+00 0.  1.
</event>
<event>
 7    1  0.2642243E-009  0.4778728E+02  0.7816164E-02  0.1312668E+00
        -11   -1    0    0    0    0  0.00000000000E+00  0.00000000000E+00  0.45593999997E+02  0.45594000000E+02  0.51100000000E-03 0.  1.
         11   -1    0    0    0    0 -0.00000000000E+00 -0.00000000000E+00 -0.45593999997E+02  0.45594000000E+02  0.51100000000E-03 0. -1.
    9900012    2    1    2    0    0 -0.38670988398E+02 -0.12727530304E+02 -0.15039521383E+02  0.47787279099E+02  0.20000036724E+02 0.  0.
        -12    1    1    2    0    0  0.38670988398E+02  0.12727530304E+02  0.15039521383E+02  0.43400720901E+02  0.00000000000E+00 0.  1.
         11    1    3    3    0    0 -0.17297151632E+02 -0.26498746621E+01  0.11750534621E+01  0.17538359137E+02  0.51100000000E-03 0. -1.
        -11    1    3    3    0    0 -0.36437991410E+01 -0.25363642089E+01 -0.83133301314E+01  0.94245357294E+01  0.51100000000E-03 0.  1.
         12    1    3    3    0    0 -0.17730037624E+02 -0.75412914332E+01 -0.79012447135E+01  0.20824384233E+02  0.00000000000E+00 0. -1.
</event>
<event>
 7    1  0.2642243E-009  0.4778727E+02  0.7816164E-02  0.1312668E+00
        -11   -1    0    0    0    0  0.00000000000E+00  0.00000000000E+00  0.45593999997E+02  0.45594000000E+02  0.51100000000E-03 0. -1.
         11   -1    0    0    0    0 -0.00000000000E+00 -0.00000000000E+00 -0.45593999997E+02  0.45594000000E+02  0.51100000000E-03 0.  1.
    9900012    2    1    2    0    0  0.32039263790E+01  0.41793775038E+02  0.11253386934E+02  0.47787268512E+02  0.19999988455E+02 0.  0.
        -12    1    1    2    0    0 -0.32039263790E+01 -0.41793775038E+02 -0.11253386934E+02  0.43400731488E+02  0.00000000000E+00 0.  1.
         11    1    3    3    0    0  0.20107154760E+01  0.25179917202E+02 -0.25265010281E+01  0.25386106726E+02  0.51100000000E-03 0. -1.
        -11    1    3    3    0    0  0.13435874811E+01  0.60020614175E+01  0.86492877789E+01  0.10613206298E+02  0.51100000000E-03 0.  1.
         12    1    3    3    0    0 -0.15037657812E+00  0.10611796419E+02  0.51306001828E+01  0.11787955488E+02  0.00000000000E+00 0. -1.
</event>
<event>
 7    1  0.2642243E-009  0.4778727E+02  0.7816164E-02  0.1312668E+00
        -11   -1    0    0    0    0  0.00000000000E+00  0.00000000000E+00  0.45593999997E+02  0.45594000000E+02  0.51100000000E-03 0. -1.
         11   -1    0    0    0    0 -0.00000000000E+00 -0.00000000000E+00 -0.45593999997E+02  0.45594000000E+02  0.51100000000E-03 0.  1.
    9900012    2    1    2    0    0  0.13353611341E+02  0.31517803804E+02  0.26682063620E+02  0.47787269458E+02  0.19999992768E+02 0.  0.
        -12    1    1    2    0    0 -0.13353611341E+02 -0.31517803804E+02 -0.26682063620E+02  0.43400730542E+02  0.00000000000E+00 0.  1.
         11    1    3    3    0    0  0.12052862161E+01 -0.21750315536E+01 -0.90034898699E-01  0.24882893051E+01  0.51100000000E-03 0. -1.
        -11    1    3    3    0    0  0.37849711496E+01  0.16126597109E+02  0.16140370541E+02  0.23128006883E+02  0.51100000000E-03 0.  1.
         12    1    3    3    0    0  0.83633539756E+01  0.17566238249E+02  0.10631727978E+02  0.22170973270E+02  0.00000000000E+00 0. -1.
</event>
<event>
 7    1  0.2642243E-009  0.4778727E+02  0.7816164E-02  0.1312668E+00
        -11   -1    0    0    0    0  0.00000000000E+00  0.00000000000E+00  0.45593999997E+02  0.45594000000E+02  0.51100000000E-03 0.  1.
         11   -1    0    0    0    0 -0.00000000000E+00 -0.00000000000E+00 -0.45593999997E+02  0.45594000000E+02  0.51100000000E-03 0. -1.
    9900012    2    1    2    0    0 -0.16187216877E+02 -0.30904101723E+02 -0.25817316336E+02  0.47787270555E+02  0.19999997769E+02 0.  0.
        -12    1    1    2    0    0  0.16187216877E+02  0.30904101723E+02  0.25817316336E+02  0.43400729445E+02  0.00000000000E+00 0.  1.
         11    1    3    3    0    0 -0.21745431582E+01 -0.19215929750E+02 -0.16444201178E+02  0.25384884217E+02  0.51100000000E-03 0. -1.
        -11    1    3    3    0    0 -0.32302920099E+01 -0.40465663416E+01  0.13869123738E+01  0.53603182574E+01  0.51100000000E-03 0.  1.
         12    1    3    3    0    0 -0.10782381709E+02 -0.76416056316E+01 -0.10760027533E+02  0.17042068080E+02  0.00000000000E+00 0. -1.
</event>
<event>
 7    1  0.2642243E-009  0.4778727E+02  0.7816164E-02  0.1312668E+00
        -11   -1    0    0    0    0  0.00000000000E+00  0.00000000000E+00  0.45593999997E+02  0.45594000000E+02  0.51100000000E-03 0. -1.
         11   -1    0    0    0    0 -0.00000000000E+00 -0.00000000000E+00 -0.45593999997E+02  0.45594000000E+02  0.51100000000E-03 0.  1.
    9900012    2    1    2    0    0 -0.19361155321E+02  0.23343396056E+02  0.31046013996E+02  0.47787268902E+02  0.19999990234E+02 0.  0.
        -12    1    1    2    0    0  0.19361155321E+02 -0.23343396056E+02 -0.31046013996E+02  0.43400731098E+02  0.00000000000E+00 0.  1.
         11    1    3    3    0    0 -0.59204884638E+01  0.15894754552E+02  0.15116624675E+02  0.22720205715E+02  0.51100000000E-03 0. -1.
        -11    1    3    3    0    0 -0.31481339304E+01 -0.21415283492E+01 -0.99270549937E-02  0.38074912635E+01  0.51100000000E-03 0.  1.
         12    1    3    3    0    0 -0.10292532926E+02  0.95901698536E+01  0.15939316376E+02  0.21259571924E+02  0.00000000000E+00 0. -1.
</event>
<event>
 7    1  0.2642243E-009  0.4778727E+02  0.7816164E-02  0.1312668E+00
        -11   -1    0    0    0    0  0.00000000000E+00  0.00000000000E+00  0.45593999997E+02  0.45594000000E+02  0.51100000000E-03 0. -1.
         11   -1    0    0    0    0 -0.00000000000E+00 -0.00000000000E+00 -0.45593999997E+02  0.45594000000E+02  0.51100000000E-03 0.  1.
    9900012    2    1    2    0    0  0.15291190054E+02  0.19662908038E+02  0.35541142807E+02  0.47787270999E+02  0.19999999792E+02 0.  0.
        -12    1    1    2    0    0 -0.15291190054E+02 -0.19662908038E+02 -0.35541142807E+02  0.43400729001E+02  0.00000000000E+00 0.  1.
         11    1    3    3    0    0  0.25936428023E+01  0.61634505085E+01  0.70401976453E+01  0.97097625256E+01  0.51100000000E-03 0. -1.
        -11    1    3    3    0    0  0.87474185628E+01  0.10003833200E+02  0.29814238002E+02  0.32641733994E+02  0.51100000000E-03 0.  1.
        -12    1    3    3    0    0  0.39501286888E+01  0.34956243294E+01 -0.13132928400E+01  0.54357744797E+01  0.00000000000E+00 0.  1.
</event>
<event>
 7    1  0.2642243E-009  0.4778727E+02  0.7816164E-02  0.1312668E+00
        -11   -1    0    0    0    0  0.00000000000E+00  0.00000000000E+00  0.45593999997E+02  0.45594000000E+02  0.51100000000E-03 0.  1.
         11   -1    0    0    0    0 -0.00000000000E+00 -0.00000000000E+00 -0.45593999997E+02  0.45594000000E+02  0.51100000000E-03 0. -1.
    9900012    2    1    2    0    0  0.35180915035E+02  0.42895257594E+01 -0.25050479432E+02  0.47787270355E+02  0.19999996856E+02 0.  0.
        -12    1    1    2    0    0 -0.35180915035E+02 -0.42895257594E+01  0.25050479432E+02  0.43400729645E+02  0.00000000000E+00 0.  1.
         11    1    3    3    0    0  0.16131849519E+02 -0.53030789845E+01 -0.11882691434E+02  0.20725770712E+02  0.51100000000E-03 0. -1.
        -11    1    3    3    0    0  0.99736944189E+01  0.63761123766E-01 -0.84825816746E+01  0.13093236344E+02  0.51100000000E-03 0.  1.
         12    1    3    3    0    0  0.90753710969E+01  0.95288436202E+01 -0.46852063233E+01  0.13968263299E+02  0.00000000000E+00 0. -1.
</event>
<event>
 7    1  0.2642243E-009  0.4778727E+02  0.7816164E-02  0.1312668E+00
        -11   -1    0    0    0    0  0.00000000000E+00  0.00000000000E+00  0.45593999997E+02  0.45594000000E+02  0.51100000000E-03 0. -1.
         11   -1    0    0    0    0 -0.00000000000E+00 -0.00000000000E+00 -0.45593999997E+02  0.45594000000E+02  0.51100000000E-03 0.  1.
    9900012    2    1    2    0    0 -0.28635766436E+02  0.16288553184E+02  0.28254193562E+02  0.47787268001E+02  0.19999986125E+02 0.  0.
        -12    1    1    2    0    0  0.28635766436E+02 -0.16288553184E+02 -0.28254193562E+02  0.43400731999E+02  0.00000000000E+00 0.  1.
         11    1    3    3    0    0 -0.25589959470E+01  0.28442419055E+01  0.44213277555E+01  0.58469061610E+01  0.51100000000E-03 0. -1.
        -11    1    3    3    0    0 -0.24907599671E+02  0.16356130263E+02  0.16724977847E+02  0.34170695088E+02  0.51100000000E-03 0.  1.
        -12    1    3    3    0    0 -0.11691708182E+01 -0.29118189846E+01  0.71078879590E+01  0.77696667521E+01  0.00000000000E+00 0.  1.
</event>
<event>
 7    1  0.2642243E-009  0.4778727E+02  0.7816164E-02  0.1312668E+00
        -11   -1    0    0    0    0  0.00000000000E+00  0.00000000000E+00  0.45593999997E+02  0.45594000000E+02  0.51100000000E-03 0. -1.
         11   -1    0    0    0    0 -0.00000000000E+00 -0.00000000000E+00 -0.45593999997E+02  0.45594000000E+02  0.51100000000E-03 0.  1.
    9900012    2    1    2    0    0 -0.38526703065E+01 -0.25703433973E+02  0.34757933699E+02  0.47787267961E+02  0.19999985943E+02 0.  0.
        -12    1    1    2    0    0  0.38526703065E+01  0.25703433973E+02 -0.34757933699E+02  0.43400732039E+02  0.00000000000E+00 0.  1.
         11    1    3    3    0    0 -0.31113900300E+01 -0.69990184139E+01 -0.70770577670E-01  0.76597660155E+01  0.51100000000E-03 0. -1.
        -11    1    3    3    0    0 -0.13810556604E+01 -0.42214059344E+00  0.13502602505E+01  0.19770484118E+01  0.51100000000E-03 0.  1.
         12    1    3    3    0    0  0.63977538383E+00 -0.18282274965E+02  0.33478444026E+02  0.38150453534E+02  0.00000000000E+00 0. -1.
</event>
<event>
 7    1  0.2642243E-009  0.4778727E+02  0.7816164E-02  0.1312668E+00
        -11   -1    0    0    0    0  0.00000000000E+00  0.00000000000E+00  0.45593999997E+02  0.45594000000E+02  0.51100000000E-03 0. -1.
         11   -1    0    0    0    0 -0.00000000000E+00 -0.00000000000E+00 -0.45593999997E+02  0.45594000000E+02  0.51100000000E-03 0.  1.
    9900012    2    1    2    0    0 -0.40455168615E+02 -0.14797368704E+02  0.52953266840E+01  0.47787271055E+02  0.20000000050E+02 0.  0.
        -12    1    1    2    0    0  0.40455168615E+02  0.14797368704E+02 -0.52953266840E+01  0.43400728945E+02  0.00000000000E+00 0.  1.
         11    1    3    3    0    0 -0.30713279714E+01 -0.12166530995E+01  0.23500874301E+01  0.40541597727E+01  0.51100000000E-03 0. -1.
        -11    1    3    3    0    0 -0.19781367954E+02  0.15239549363E+01  0.49612073933E+01  0.20450881053E+02  0.51100000000E-03 0.  1.
        -12    1    3    3    0    0 -0.17602472690E+02 -0.15104670540E+02 -0.20159681393E+01  0.23282230230E+02  0.00000000000E+00 0.  1.
</event>
<event>
 7    1  0.2642243E-009  0.4778727E+02  0.7816164E-02  0.1312668E+00
        -11   -1    0    0    0    0  0.00000000000E+00  0.00000000000E+00  0.45593999997E+02  0.45594000000E+02  0.51100000000E-03 0. -1.
         11   -1    0    0    0    0 -0.00000000000E+00 -0.00000000000E+00 -0.45593999997E+02  0.45594000000E+02  0.51100000000E-03 0.  1.
    9900012    2    1    2    0    0 -0.26491706566E+02 -0.23745468127E+02  0.24858908264E+02  0.47787273123E+02  0.20000009479E+02 0.  0.
        -12    1    1    2    0    0  0.26491706566E+02  0.23745468127E+02 -0.24858908264E+02  0.43400726877E+02  0.00000000000E+00 0.  1.
         11    1    3    3    0    0 -0.12492791741E+02 -0.12978139773E+02  0.21105371529E+01  0.18137153161E+02  0.51100000000E-03 0. -1.
        -11    1    3    3    0    0 -0.38764690530E+01 -0.10483996234E+01  0.96576722385E+01  0.10459291918E+02  0.51100000000E-03 0.  1.
         12    1    3    3    0    0 -0.10122445772E+02 -0.97189287300E+01  0.13090698873E+02  0.19190828045E+02  0.00000000000E+00 0. -1.
</event>
<event>
 7    1  0.2642243E-009  0.4778727E+02  0.7816164E-02  0.1312668E+00
        -11   -1    0    0    0    0  0.00000000000E+00  0.00000000000E+00  0.45593999997E+02  0.45594000000E+02  0.51100000000E-03 0.  1.
         11   -1    0    0    0    0 -0.00000000000E+00 -0.00000000000E+00 -0.45593999997E+02  0.45594000000E+02  0.51100000000E-03 0. -1.
    9900012    2    1    2    0    0 -0.32403913663E+02 -0.28089153376E+02 -0.66789997611E+01  0.47787271944E+02  0.20000004100E+02 0.  0.
        -12    1    1    2    0    0  0.32403913663E+02  0.28089153376E+02  0.66789997611E+01  0.43400728056E+02  0.00000000000E+00 0.  1.
         11    1    3    3    0    0 -0.14332551829E+02 -0.96080568413E+01 -0.35981505506E+01  0.17626215869E+02  0.51100000000E-03 0. -1.
        -11    1    3    3    0    0 -0.70372693143E+01 -0.99576876035E+00 -0.59730543481E+01  0.92839696969E+01  0.51100000000E-03 0.  1.
        -12    1    3    3    0    0 -0.11034092519E+02 -0.17485327774E+02  0.28922051376E+01  0.20877086378E+02  0.00000000000E+00 0.  1.
</event>
<event>
 7    1  0.2642243E-009  0.4778726E+02  0.7816164E-02  0.1312668E+00
        -11   -1    0    0    0    0  0.00000000000E+00  0.00000000000E+00  0.45593999997E+02  0.45594000000E+02  0.51100000000E-03 0. -1.
         11   -1    0    0    0    0 -0.00000000000E+00 -0.00000000000E+00 -0.45593999997E+02  0.45594000000E+02  0.51100000000E-03 0.  1.
    9900012    2    1    2    0    0  0.36709957282E+02 -0.22242428122E+02 -0.64247782734E+01  0.47787258667E+02  0.19999943567E+02 0.  0.
        -12    1    1    2    0    0 -0.36709957282E+02  0.22242428122E+02  0.64247782734E+01  0.43400741333E+02  0.00000000000E+00 0.  1.
         11    1    3    3    0    0  0.11722494467E+02 -0.11015412515E+02  0.17587355058E+01  0.16181759492E+02  0.51100000000E-03 0. -1.
        -11    1    3    3    0    0  0.18051372014E+02 -0.82926343639E+01 -0.11952634121E+02  0.23183728755E+02  0.51100000000E-03 0.  1.
        -12    1    3    3    0    0  0.69360908000E+01 -0.29343812430E+01  0.37691203414E+01  0.84217704203E+01  0.00000000000E+00 0.  1.
</event>
<event>
 7    1  0.2642243E-009  0.4778727E+02  0.7816164E-02  0.1312668E+00
        -11   -1    0    0    0    0  0.00000000000E+00  0.00000000000E+00  0.45593999997E+02  0.45594000000E+02  0.51100000000E-03 0.  1.
         11   -1    0    0    0    0 -0.00000000000E+00 -0.00000000000E+00 -0.45593999997E+02  0.45594000000E+02  0.51100000000E-03 0. -1.
    9900012    2    1    2    0    0  0.14678196941E+02 -0.99669095518E+00 -0.40831116628E+02  0.47787274852E+02  0.20000017360E+02 0.  0.
        -12    1    1    2    0    0 -0.14678196941E+02  0.99669095518E+00  0.40831116628E+02  0.43400725148E+02  0.00000000000E+00 0.  1.
         11    1    3    3    0    0  0.15026066762E+02  0.64131799488E+01 -0.33203847730E+02  0.37005500452E+02  0.51100000000E-03 0. -1.
        -11    1    3    3    0    0 -0.44175193239E+00 -0.46084019730E+01 -0.35501089241E+01  0.58340198104E+01  0.51100000000E-03 0.  1.
         12    1    3    3    0    0  0.93882111519E-01 -0.28014689310E+01 -0.40771599737E+01  0.49477545891E+01  0.00000000000E+00 0. -1.
</event>
<event>
 7    1  0.2642243E-009  0.4778730E+02  0.7816164E-02  0.1312668E+00
        -11   -1    0    0    0    0  0.00000000000E+00  0.00000000000E+00  0.45593999997E+02  0.45594000000E+02  0.51100000000E-03 0.  1.
         11   -1    0    0    0    0 -0.00000000000E+00 -0.00000000000E+00 -0.45593999997E+02  0.45594000000E+02  0.51100000000E-03 0. -1.
    9900012    2    1    2    0    0 -0.22038879701E+02 -0.37181537658E+02  0.39296421174E+01  0.47787296685E+02  0.20000116903E+02 0.  0.
        -12    1    1    2    0    0  0.22038879701E+02  0.37181537658E+02 -0.39296421174E+01  0.43400703315E+02  0.00000000000E+00 0.  1.
         11    1    3    3    0    0 -0.13400372951E+02 -0.13541775728E+02 -0.52833284903E+01  0.19770261640E+02  0.51100000000E-03 0. -1.
        -11    1    3    3    0    0 -0.68942790575E+01 -0.10186088682E+02  0.73361891780E+01  0.14321562703E+02  0.51100000000E-03 0.  1.
         12    1    3    3    0    0 -0.17442276919E+01 -0.13453673248E+02  0.18767814296E+01  0.13695472341E+02  0.00000000000E+00 0. -1.
</event>
<event>
 7    1  0.2642243E-009  0.4778727E+02  0.7816164E-02  0.1312668E+00
        -11   -1    0    0    0    0  0.00000000000E+00  0.00000000000E+00  0.45593999997E+02  0.45594000000E+02  0.51100000000E-03 0.  1.
         11   -1    0    0    0    0 -0.00000000000E+00 -0.00000000000E+00 -0.45593999997E+02  0.45594000000E+02  0.51100000000E-03 0. -1.
    9900012    2    1    2    0    0 -0.40148870524E+02 -0.97178599450E-01 -0.16482788505E+02  0.47787267691E+02  0.19999984711E+02 0.  0.
        -12    1    1    2    0    0  0.40148870524E+02  0.97178599450E-01  0.16482788505E+02  0.43400732309E+02  0.00000000000E+00 0.  1.
         11    1    3    3    0    0 -0.34277319555E+02 -0.50795653058E+01 -0.17060218667E+02  0.38623667366E+02  0.51100000000E-03 0. -1.
        -11    1    3    3    0    0 -0.39864877817E+01  0.53541889166E+01 -0.90561673342E+00  0.67364356835E+01  0.51100000000E-03 0.  1.
         12    1    3    3    0    0 -0.18850631877E+01 -0.37180221031E+00  0.14830468952E+01  0.24271646419E+01  0.00000000000E+00 0. -1.
</event>
<event>
 7    1  0.2642243E-009  0.4778728E+02  0.7816164E-02  0.1312668E+00
        -11   -1    0    0    0    0  0.00000000000E+00  0.00000000000E+00  0.45593999997E+02  0.45594000000E+02  0.51100000000E-03 0.  1.
         11   -1    0    0    0    0 -0.00000000000E+00 -0.00000000000E+00 -0.45593999997E+02  0.45594000000E+02  0.51100000000E-03 0. -1.
    9900012    2    1    2    0    0 -0.76769108036E+01  0.13025849547E+02 -0.40681878117E+02  0.47787275087E+02  0.20000018429E+02 0.  0.
        -12    1    1    2    0    0  0.76769108036E+01 -0.13025849547E+02  0.40681878117E+02  0.43400724913E+02  0.00000000000E+00 0.  1.
         11    1    3    3    0    0  0.18087451074E+01  0.36494149633E+01 -0.19361406805E+02  0.19785193003E+02  0.51100000000E-03 0. -1.
        -11    1    3    3    0    0 -0.54967845484E+01  0.40590670319E+01 -0.20118290426E+02  0.21247029803E+02  0.51100000000E-03 0.  1.
        -12    1    3    3    0    0 -0.39888713626E+01  0.53173675517E+01 -0.12021808861E+01  0.67550522803E+01  0.00000000000E+00 0.  1.
</event>
<event>
 7    1  0.2642243E-009  0.4778727E+02  0.7816164E-02  0.1312668E+00
        -11   -1    0    0    0    0  0.00000000000E+00  0.00000000000E+00  0.45593999997E+02  0.45594000000E+02  0.51100000000E-03 0.  1.
         11   -1    0    0    0    0 -0.00000000000E+00 -0.00000000000E+00 -0.45593999997E+02  0.45594000000E+02  0.51100000000E-03 0. -1.
    9900012    2    1    2    0    0  0.35071682139E+02 -0.13338038250E+02 -0.21810487216E+02  0.47787268381E+02  0.19999987857E+02 0.  0.
        -12    1    1    2    0    0 -0.35071682139E+02  0.13338038250E+02  0.21810487216E+02  0.43400731619E+02  0.00000000000E+00 0.  1.
         11    1    3    3    0    0  0.78705028042E+00 -0.63336395043E+01 -0.25922126802E+01  0.68886866931E+01  0.51100000000E-03 0. -1.
        -11    1    3    3    0    0  0.23251047941E+02 -0.88565730355E+01 -0.12438021246E+02  0.27816442782E+02  0.51100000000E-03 0.  1.
        -12    1    3    3    0    0  0.11033583918E+02  0.18521742895E+01 -0.67802532896E+01  0.13082138906E+02  0.00000000000E+00 0.  1.
</event>
<event>
 7    1  0.2642243E-009  0.4778727E+02  0.7816164E-02  0.1312668E+00
        -11   -1    0    0    0    0  0.00000000000E+00  0.00000000000E+00  0.45593999997E+02  0.45594000000E+02  0.51100000000E-03 0.  1.
         11   -1    0    0    0    0 -0.00000000000E+00 -0.00000000000E+00 -0.45593999997E+02  0.45594000000E+02  0.51100000000E-03 0. -1.
    9900012    2    1    2    0    0 -0.10663236867E+02 -0.22757994116E+01 -0.42008799961E+02  0.47787272384E+02  0.20000006109E+02 0.  0.
        -12    1    1    2    0    0  0.10663236867E+02  0.22757994116E+01  0.42008799961E+02  0.43400727616E+02  0.00000000000E+00 0.  1.
         11    1    3    3    0    0 -0.14156845938E+02  0.16958312976E+01 -0.28340049063E+02  0.31724604203E+02  0.51100000000E-03 0. -1.
        -11    1    3    3    0    0 -0.54018948012E+00  0.37003110066E+00  0.42021679164E+00  0.77801677552E+00  0.51100000000E-03 0.  1.
         12    1    3    3    0    0  0.40337985517E+01 -0.43416618098E+01 -0.14088967690E+02  0.15284651406E+02  0.00000000000E+00 0. -1.
</event>
<event>
 7    1  0.2642243E-009  0.4778728E+02  0.7816164E-02  0.1312668E+00
        -11   -1    0    0    0    0  0.00000000000E+00  0.00000000000E+00  0.45593999997E+02  0.45594000000E+02  0.51100000000E-03 0.  1.
         11   -1    0    0    0    0 -0.00000000000E+00 -0.00000000000E+00 -0.45593999997E+02  0.45594000000E+02  0.51100000000E-03 0. -1.
    9900012    2    1    2    0    0 -0.18375208583E+02  0.10877735741E+02 -0.37784242597E+02  0.47787280951E+02  0.20000045168E+02 0.  0.
        -12    1    1    2    0    0  0.18375208583E+02 -0.10877735741E+02  0.37784242597E+02  0.43400719049E+02  0.00000000000E+00 0.  1.
         11    1    3    3    0    0 -0.26516091171E+01 -0.37971349865E-01 -0.23396688127E+02  0.23546496307E+02  0.51100000000E-03 0. -1.
        -11    1    3    3    0    0 -0.95847776270E+01  0.46343232401E+01 -0.89694164003E+01  0.13921039648E+02  0.51100000000E-03 0.  1.
         12    1    3    3    0    0 -0.61388218394E+01  0.62813838503E+01 -0.54181380699E+01  0.10319744997E+02  0.00000000000E+00 0. -1.
</event>
<event>
 7    1  0.2642243E-009  0.4778727E+02  0.7816164E-02  0.1312668E+00
        -11   -1    0    0    0    0  0.00000000000E+00  0.00000000000E+00  0.45593999997E+02  0.45594000000E+02  0.51100000000E-03 0.  1.
         11   -1    0    0    0    0 -0.00000000000E+00 -0.00000000000E+00 -0.45593999997E+02  0.45594000000E+02  0.51100000000E-03 0. -1.
    9900012    2    1    2    0    0  0.56689873556E+01 -0.66627018254E+01 -0.42509935895E+02  0.47787266561E+02  0.19999979558E+02 0.  0.
        -12    1    1    2    0    0 -0.56689873556E+01  0.66627018254E+01  0.42509935895E+02  0.43400733439E+02  0.00000000000E+00 0.  1.
         11    1    3    3    0    0  0.12250589976E+00  0.12947726709E+01 -0.33024338532E+01  0.35492976179E+01  0.51100000000E-03 0. -1.
        -11    1    3    3    0    0 -0.39986536914E+01  0.30930958016E+01 -0.16355801152E+02  0.17119249533E+02  0.51100000000E-03 0.  1.
        -12    1    3    3    0    0  0.95451351472E+01 -0.11050570298E+02 -0.22851700890E+02  0.27118719410E+02  0.00000000000E+00 0.  1.
</event>
<event>
 7    1  0.2642243E-009  0.4778728E+02  0.7816164E-02  0.1312668E+00
        -11   -1    0    0    0    0  0.00000000000E+00  0.00000000000E+00  0.45593999997E+02  0.45594000000E+02  0.51100000000E-03 0.  1.
         11   -1    0    0    0    0 -0.00000000000E+00 -0.00000000000E+00 -0.45593999997E+02  0.45594000000E+02  0.51100000000E-03 0. -1.
    9900012    2    1    2    0    0 -0.10704554320E+02 -0.26652422831E+02 -0.32537420709E+02  0.47787275671E+02  0.20000021093E+02 0.  0.
        -12    1    1    2    0    0  0.10704554320E+02  0.26652422831E+02  0.32537420709E+02  0.43400724329E+02  0.00000000000E+00 0.  1.
         11    1    3    3    0    0 -0.10472566128E+01 -0.10339160762E+02 -0.18364301463E+02  0.21100771553E+02  0.51100000000E-03 0. -1.
        -11    1    3    3    0    0 -0.12609023299E+01 -0.28110391041E+01  0.22596349996E+01  0.38207023075E+01  0.51100000000E-03 0.  1.
        -12    1    3    3    0    0 -0.83963953770E+01 -0.13502222965E+02 -0.16432754246E+02  0.22865801810E+02  0.00000000000E+00 0.  1.
</event>
<event>
 7    1  0.2642243E-009  0.4778728E+02  0.7816164E-02  0.1312668E+00
        -11   -1    0    0    0    0  0.00000000000E+00  0.00000000000E+00  0.45593999997E+02  0.45594000000E+02  0.51100000000E-03 0.  1.
         11   -1    0    0    0    0 -0.00000000000E+00 -0.00000000000E+00 -0.45593999997E+02  0.45594000000E+02  0.51100000000E-03 0. -1.
    9900012    2    1    2    0    0 -0.20228965068E+02  0.36004509971E+02 -0.13344924102E+02  0.47787276904E+02  0.20000026717E+02 0.  0.
        -12    1    1    2    0    0  0.20228965068E+02 -0.36004509971E+02  0.13344924102E+02  0.43400723096E+02  0.00000000000E+00 0.  1.
         11    1    3    3    0    0 -0.10544520992E+02  0.10771221628E+02 -0.87091622863E+01  0.17408493510E+02  0.51100000000E-03 0. -1.
        -11    1    3    3    0    0 -0.90173690997E+01  0.17195858218E+02  0.25417279585E+01  0.19582412175E+02  0.51100000000E-03 0.  1.
        -12    1    3    3    0    0 -0.66707497676E+00  0.80374301243E+01 -0.71774897742E+01  0.10796371218E+02  0.00000000000E+00 0.  1.
</event>
<event>
 7    1  0.2642243E-009  0.4778727E+02  0.7816164E-02  0.1312668E+00
        -11   -1    0    0    0    0  0.00000000000E+00  0.00000000000E+00  0.45593999997E+02  0.45594000000E+02  0.51100000000E-03 0.  1.
         11   -1    0    0    0    0 -0.00000000000E+00 -0.00000000000E+00 -0.45593999997E+02  0.45594000000E+02  0.51100000000E-03 0. -1.
    9900012    2    1    2    0    0 -0.17419334777E+02  0.38601516843E+02  0.94928007813E+01  0.47787267364E+02  0.19999983221E+02 0.  0.
        -12    1    1    2    0    0  0.17419334777E+02 -0.38601516843E+02 -0.94928007813E+01  0.43400732636E+02  0.00000000000E+00 0.  1.
         11    1    3    3    0    0 -0.91808556786E+01  0.14986760170E+02  0.21116771761E+01  0.17701702521E+02  0.51100000000E-03 0. -1.
        -11    1    3    3    0    0 -0.13827733304E+01  0.11761683367E+02  0.10739229961E+02  0.15986879562E+02  0.51100000000E-03 0.  1.
        -12    1    3    3    0    0 -0.68557057683E+01  0.11853073306E+02 -0.33581063559E+01  0.14098685282E+02  0.00000000000E+00 0.  1.
</event>
<event>
 7    1  0.2642243E-009  0.4778727E+02  0.7816164E-02  0.1312668E+00
        -11   -1    0    0    0    0  0.00000000000E+00  0.00000000000E+00  0.45593999997E+02  0.45594000000E+02  0.51100000000E-03 0.  1.
         11   -1    0    0    0    0 -0.00000000000E+00 -0.00000000000E+00 -0.45593999997E+02  0.45594000000E+02  0.51100000000E-03 0. -1.
    9900012    2    1    2    0    0  0.41668267489E+02 -0.99006096641E+00 -0.12099545454E+02  0.47787265716E+02  0.19999975704E+02 0.  0.
        -12    1    1    2    0    0 -0.41668267489E+02  0.99006096641E+00  0.12099545454E+02  0.43400734284E+02  0.00000000000E+00 0.  1.
         11    1    3    3    0    0  0.33763919611E+02  0.32733685193E+01 -0.10162887776E+02  0.35411883559E+02  0.51100000000E-03 0. -1.
        -11    1    3    3    0    0  0.88588765392E+01 -0.53750188062E+01 -0.57940471914E+00  0.10378161243E+02  0.51100000000E-03 0.  1.
         12    1    3    3    0    0 -0.95452866167E+00  0.11115893205E+01 -0.13572529590E+01  0.19972209137E+01  0.00000000000E+00 0. -1.
</event>
<event>
 7    1  0.2642243E-009  0.4778727E+02  0.7816164E-02  0.1312668E+00
        -11   -1    0    0    0    0  0.00000000000E+00  0.00000000000E+00  0.45593999997E+02  0.45594000000E+02  0.51100000000E-03 0.  1.
         11   -1    0    0    0    0 -0.00000000000E+00 -0.00000000000E+00 -0.45593999997E+02  0.45594000000E+02  0.51100000000E-03 0. -1.
    9900012    2    1    2    0    0 -0.42130662989E+02 -0.10302713254E+02 -0.15763084836E+01  0.47787269445E+02  0.19999992706E+02 0.  0.
        -12    1    1    2    0    0  0.42130662989E+02  0.10302713254E+02  0.15763084836E+01  0.43400730555E+02  0.00000000000E+00 0.  1.
         11    1    3    3    0    0 -0.78306438812E+01 -0.27429047214E+01  0.22636382265E+01  0.86003818629E+01  0.51100000000E-03 0. -1.
        -11    1    3    3    0    0 -0.74271368889E+01 -0.11595634650E+01 -0.83072677038E+01  0.11203465837E+02  0.51100000000E-03 0.  1.
        -12    1    3    3    0    0 -0.26872882219E+02 -0.64002450677E+01  0.44673209937E+01  0.27983421745E+02  0.00000000000E+00 0.  1.
</event>
<event>
 7    1  0.2642243E-009  0.4778727E+02  0.7816164E-02  0.1312668E+00
        -11   -1    0    0    0    0  0.00000000000E+00  0.00000000000E+00  0.45593999997E+02  0.45594000000E+02  0.51100000000E-03 0. -1.
         11   -1    0    0    0    0 -0.00000000000E+00 -0.00000000000E+00 -0.45593999997E+02  0.45594000000E+02  0.51100000000E-03 0.  1.
    9900012    2    1    2    0    0  0.74318607227E+01  0.56210157312E+01  0.42388620408E+02  0.47787268304E+02  0.19999987504E+02 0.  0.
        -12    1    1    2    0    0 -0.74318607227E+01 -0.56210157312E+01 -0.42388620408E+02  0.43400731696E+02  0.00000000000E+00 0.  1.
         11    1    3    3    0    0  0.93884583452E+00  0.26041284033E+01  0.30732638258E+01  0.41361657421E+01  0.51100000000E-03 0. -1.
        -11    1    3    3    0    0  0.35766659650E+01  0.10050269939E+02  0.28443479163E+02  0.30378149589E+02  0.51100000000E-03 0.  1.
        -12    1    3    3    0    0  0.29163489232E+01 -0.70333826113E+01  0.10871877419E+02  0.13272952973E+02  0.00000000000E+00 0.  1.
</event>
<event>
 7    1  0.2642243E-009  0.4778727E+02  0.7816164E-02  0.1312668E+00
        -11   -1    0    0    0    0  0.00000000000E+00  0.00000000000E+00  0.45593999997E+02  0.45594000000E+02  0.51100000000E-03 0. -1.
         11   -1    0    0    0    0 -0.00000000000E+00 -0.00000000000E+00 -0.45593999997E+02  0.45594000000E+02  0.51100000000E-03 0.  1.
    9900012    2    1    2    0    0 -0.15817396205E+02  0.26239643235E+02  0.30739457921E+02  0.47787272206E+02  0.20000005296E+02 0.  0.
        -12    1    1    2    0    0  0.15817396205E+02 -0.26239643235E+02 -0.30739457921E+02  0.43400727794E+02  0.00000000000E+00 0.  1.
         11    1    3    3    0    0 -0.39001417217E+01  0.19798528282E+02  0.11938639879E+02  0.23446192655E+02  0.51100000000E-03 0. -1.
        -11    1    3    3    0    0 -0.52705264696E+00  0.33021470774E+01  0.63508375449E+01  0.71774018695E+01  0.51100000000E-03 0.  1.
         12    1    3    3    0    0 -0.11390201836E+02  0.31389678753E+01  0.12449980497E+02  0.17163677682E+02  0.00000000000E+00 0. -1.
</event>
<event>
 7    1  0.2642243E-009  0.4778727E+02  0.7816164E-02  0.1312668E+00
        -11   -1    0    0    0    0  0.00000000000E+00  0.00000000000E+00  0.45593999997E+02  0.45594000000E+02  0.51100000000E-03 0.  1.
         11   -1    0    0    0    0 -0.00000000000E+00 -0.00000000000E+00 -0.45593999997E+02  0.45594000000E+02  0.51100000000E-03 0. -1.
    9900012    2    1    2    0    0  0.30805694963E+02  0.13668933583E+02 -0.27345798521E+02  0.47787270926E+02  0.19999999459E+02 0.  0.
        -12    1    1    2    0    0 -0.30805694963E+02 -0.13668933583E+02  0.27345798521E+02  0.43400729074E+02  0.00000000000E+00 0.  1.
         11    1    3    3    0    0  0.13894952705E+02  0.30524591998E+01 -0.48790761274E+00  0.14234650397E+02  0.51100000000E-03 0.  1.
        -11    1    3    3    0    0  0.15923688194E+02  0.97394568923E+01 -0.23998649323E+02  0.30403224103E+02  0.51100000000E-03 0. -1.
        -12    1    3    3    0    0  0.98705406434E+00  0.87701749050E+00 -0.28592415852E+01  0.31493964259E+01  0.00000000000E+00 0.  1.
</event>
<event>
 7    1  0.2642243E-009  0.4778727E+02  0.7816164E-02  0.1312668E+00
        -11   -1    0    0    0    0  0.00000000000E+00  0.00000000000E+00  0.45593999997E+02  0.45594000000E+02  0.51100000000E-03 0.  1.
         11   -1    0    0    0    0 -0.00000000000E+00 -0.00000000000E+00 -0.45593999997E+02  0.45594000000E+02  0.51100000000E-03 0. -1.
    9900012    2    1    2    0    0  0.17006949074E+01  0.24551072905E+02 -0.35748783127E+02  0.47787273750E+02  0.20000012337E+02 0.  0.
        -12    1    1    2    0    0 -0.17006949074E+01 -0.24551072905E+02  0.35748783127E+02  0.43400726250E+02  0.00000000000E+00 0.  1.
         11    1    3    3    0    0  0.28404123938E+00  0.31465104373E+00  0.54023553840E-01  0.42732131994E+00  0.51100000000E-03 0.  1.
        -11    1    3    3    0    0  0.95920210521E+01  0.17494410867E+02 -0.27072522003E+02  0.33630086639E+02  0.51100000000E-03 0. -1.
        -12    1    3    3    0    0 -0.81753673841E+01  0.67420109938E+01 -0.87302846776E+01  0.13729865792E+02  0.00000000000E+00 0.  1.
</event>
<event>
 7    1  0.2642243E-009  0.4778731E+02  0.7816164E-02  0.1312668E+00
        -11   -1    0    0    0    0  0.00000000000E+00  0.00000000000E+00  0.45593999997E+02  0.45594000000E+02  0.51100000000E-03 0.  1.
         11   -1    0    0    0    0 -0.00000000000E+00 -0.00000000000E+00 -0.45593999997E+02  0.45594000000E+02  0.51100000000E-03 0. -1.
    9900012    2    1    2    0    0 -0.25934210932E+02 -0.33181578303E+02 -0.10489027023E+02  0.47787307342E+02  0.20000165493E+02 0.  0.
        -12    1    1    2    0    0  0.25934210932E+02  0.33181578303E+02  0.10489027023E+02  0.43400692658E+02  0.00000000000E+00 0.  1.
         11    1    3    3    0    0 -0.82346071194E+01 -0.13057334110E+00  0.28876078177E+00  0.82407030560E+01  0.51100000000E-03 0. -1.
        -11    1    3    3    0    0 -0.10041440315E+02 -0.17735778701E+02 -0.25201881276E+01  0.20536302447E+02  0.51100000000E-03 0.  1.
         12    1    3    3    0    0 -0.76581634975E+01 -0.15315226261E+02 -0.82575996768E+01  0.19010301839E+02  0.00000000000E+00 0. -1.
</event>
<event>
 7    1  0.2642243E-009  0.4778728E+02  0.7816164E-02  0.1312668E+00
        -11   -1    0    0    0    0  0.00000000000E+00  0.00000000000E+00  0.45593999997E+02  0.45594000000E+02  0.51100000000E-03 0.  1.
         11   -1    0    0    0    0 -0.00000000000E+00 -0.00000000000E+00 -0.45593999997E+02  0.45594000000E+02  0.51100000000E-03 0. -1.
    9900012    2    1    2    0    0 -0.34360759126E+02 -0.26453537187E+02 -0.17808066056E+01  0.47787278006E+02  0.20000031741E+02 0.  0.
        -12    1    1    2    0    0  0.34360759126E+02  0.26453537187E+02  0.17808066056E+01  0.43400721994E+02  0.00000000000E+00 0.  1.
         11    1    3    3    0    0 -0.75294132981E+01 -0.14913206498E+01 -0.20423518758E+01  0.79427516227E+01  0.51100000000E-03 0. -1.
        -11    1    3    3    0    0 -0.17223890954E+02 -0.91737221949E+01  0.61276538843E+01  0.20454039721E+02  0.51100000000E-03 0.  1.
        -12    1    3    3    0    0 -0.96074548737E+01 -0.15788494342E+02 -0.58661086142E+01  0.19390486663E+02  0.00000000000E+00 0.  1.
</event>
<event>
 7    1  0.2642243E-009  0.4778728E+02  0.7816164E-02  0.1312668E+00
        -11   -1    0    0    0    0  0.00000000000E+00  0.00000000000E+00  0.45593999997E+02  0.45594000000E+02  0.51100000000E-03 0.  1.
         11   -1    0    0    0    0 -0.00000000000E+00 -0.00000000000E+00 -0.45593999997E+02  0.45594000000E+02  0.51100000000E-03 0. -1.
    9900012    2    1    2    0    0 -0.20647384691E+02  0.22881646138E+02 -0.30557133575E+02  0.47787278383E+02  0.20000033459E+02 0.  0.
        -12    1    1    2    0    0  0.20647384691E+02 -0.22881646138E+02  0.30557133575E+02  0.43400721617E+02  0.00000000000E+00 0.  1.
         11    1    3    3    0    0 -0.21157673028E+02  0.15040405397E+02 -0.27943576992E+02  0.38140587539E+02  0.51100000000E-03 0. -1.
        -11    1    3    3    0    0  0.35573096934E+00  0.73982497504E+01 -0.43649621856E+00  0.74196477748E+01  0.51100000000E-03 0.  1.
         12    1    3    3    0    0  0.15455736810E+00  0.44299099026E+00 -0.21770603649E+01  0.22270430687E+01  0.00000000000E+00 0. -1.
</event>
<event>
 7    1  0.2642243E-009  0.4778729E+02  0.7816164E-02  0.1312668E+00
        -11   -1    0    0    0    0  0.00000000000E+00  0.00000000000E+00  0.45593999997E+02  0.45594000000E+02  0.51100000000E-03 0.  1.
         11   -1    0    0    0    0 -0.00000000000E+00 -0.00000000000E+00 -0.45593999997E+02  0.45594000000E+02  0.51100000000E-03 0. -1.
    9900012    2    1    2    0    0  0.16321537933E+02 -0.18243282801E+02 -0.35838685069E+02  0.47787293608E+02  0.20000102876E+02 0.  0.
        -12    1    1    2    0    0 -0.16321537933E+02  0.18243282801E+02  0.35838685069E+02  0.43400706392E+02  0.00000000000E+00 0.  1.
         11    1    3    3    0    0 -0.70135867841E+00 -0.44512359866E+01 -0.16465903543E+02  0.17071361561E+02  0.51100000000E-03 0. -1.
        -11    1    3    3    0    0  0.12992762645E+02 -0.14016645655E+02 -0.12799546384E+02  0.23002317806E+02  0.51100000000E-03 0.  1.
        -12    1    3    3    0    0  0.40301339669E+01  0.22459884041E+00 -0.65732351422E+01  0.77136142414E+01  0.00000000000E+00 0.  1.
</event>
<event>
 7    1  0.2642243E-009  0.4778727E+02  0.7816164E-02  0.1312668E+00
        -11   -1    0    0    0    0  0.00000000000E+00  0.00000000000E+00  0.45593999997E+02  0.45594000000E+02  0.51100000000E-03 0. -1.
         11   -1    0    0    0    0 -0.00000000000E+00 -0.00000000000E+00 -0.45593999997E+02  0.45594000000E+02  0.51100000000E-03 0.  1.
    9900012    2    1    2    0    0 -0.24382724531E+02  0.12401361986E+02 -0.33694398103E+02  0.47787268461E+02  0.19999988219E+02 0.  0.
        -12    1    1    2    0    0  0.24382724531E+02 -0.12401361986E+02  0.33694398103E+02  0.43400731539E+02  0.00000000000E+00 0.  1.
         11    1    3    3    0    0 -0.15117016946E+01  0.68113989855E+01 -0.37012117399E+01  0.78980609493E+01  0.51100000000E-03 0. -1.
        -11    1    3    3    0    0 -0.20717550684E+02  0.27349744478E+01 -0.18697373904E+02  0.28040841334E+02  0.51100000000E-03 0.  1.
        -12    1    3    3    0    0 -0.21534721518E+01  0.28549885524E+01 -0.11295812459E+02  0.11848366177E+02  0.00000000000E+00 0.  1.
</event>
<event>
 7    1  0.2642243E-009  0.4778728E+02  0.7816164E-02  0.1312668E+00
        -11   -1    0    0    0    0  0.00000000000E+00  0.00000000000E+00  0.45593999997E+02  0.45594000000E+02  0.51100000000E-03 0.  1.
         11   -1    0    0    0    0 -0.00000000000E+00 -0.00000000000E+00 -0.45593999997E+02  0.45594000000E+02  0.51100000000E-03 0. -1.
    9900012    2    1    2    0    0  0.10839306101E+02 -0.14968737338E+02 -0.39269188803E+02  0.47787276003E+02  0.20000022607E+02 0.  0.
        -12    1    1    2    0    0 -0.10839306101E+02  0.14968737338E+02  0.39269188803E+02  0.43400723997E+02  0.00000000000E+00 0.  1.
         11    1    3    3    0    0  0.78836660888E+01 -0.10734298829E+02 -0.38040390317E+02  0.40304449606E+02  0.51100000000E-03 0. -1.
        -11    1    3    3    0    0  0.23731097089E+01 -0.67084483831E+00  0.15619908190E+01  0.29191605073E+01  0.51100000000E-03 0.  1.
        -12    1    3    3    0    0  0.58253030354E+00 -0.35635936706E+01 -0.27907893052E+01  0.45636658894E+01  0.00000000000E+00 0.  1.
</event>
<event>
 7    1  0.2642243E-009  0.4778728E+02  0.7816164E-02  0.1312668E+00
        -11   -1    0    0    0    0  0.00000000000E+00  0.00000000000E+00  0.45593999997E+02  0.45594000000E+02  0.51100000000E-03 0. -1.
         11   -1    0    0    0    0 -0.00000000000E+00 -0.00000000000E+00 -0.45593999997E+02  0.45594000000E+02  0.51100000000E-03 0.  1.
    9900012    2    1    2    0    0  0.25768265029E+01  0.39543958698E+02  0.17699083826E+02  0.47787282580E+02  0.20000052595E+02 0.  0.
        -12    1    1    2    0    0 -0.25768265029E+01 -0.39543958698E+02 -0.17699083826E+02  0.43400717420E+02  0.00000000000E+00 0.  1.
         11    1    3    3    0    0  0.96270402513E+01  0.10117293488E+02  0.37465490549E+01  0.14459466159E+02  0.51100000000E-03 0. -1.
        -11    1    3    3    0    0 -0.47720172055E+01  0.20902191479E+02  0.10097044493E+02  0.23698608917E+02  0.51100000000E-03 0.  1.
         12    1    3    3    0    0 -0.22781965429E+01  0.85244737311E+01  0.38554902774E+01  0.96292075042E+01  0.00000000000E+00 0. -1.
</event>
<event>
 7    1  0.2642243E-009  0.4778728E+02  0.7816164E-02  0.1312668E+00
        -11   -1    0    0    0    0  0.00000000000E+00  0.00000000000E+00  0.45593999997E+02  0.45594000000E+02  0.51100000000E-03 0.  1.
         11   -1    0    0    0    0 -0.00000000000E+00 -0.00000000000E+00 -0.45593999997E+02  0.45594000000E+02  0.51100000000E-03 0. -1.
    9900012    2    1    2    0    0  0.37762539958E+02 -0.11944579696E+02 -0.17746562113E+02  0.47787275639E+02  0.20000020950E+02 0.  0.
        -12    1    1    2    0    0 -0.37762539958E+02  0.11944579696E+02  0.17746562113E+02  0.43400724361E+02  0.00000000000E+00 0.  1.
         11    1    3    3    0    0  0.58043761591E+01 -0.38321445455E+01  0.71550148530E+00  0.69919995030E+01  0.51100000000E-03 0. -1.
        -11    1    3    3    0    0  0.18661942731E+02 -0.12378296828E+02 -0.12041477189E+02  0.25426118697E+02  0.51100000000E-03 0.  1.
        -12    1    3    3    0    0  0.13296221068E+02  0.42658616774E+01 -0.64205864097E+01  0.15369157439E+02  0.00000000000E+00 0.  1.
</event>
<event>
 7    1  0.2642243E-009  0.4778727E+02  0.7816164E-02  0.1312668E+00
        -11   -1    0    0    0    0  0.00000000000E+00  0.00000000000E+00  0.45593999997E+02  0.45594000000E+02  0.51100000000E-03 0.  1.
         11   -1    0    0    0    0 -0.00000000000E+00 -0.00000000000E+00 -0.45593999997E+02  0.45594000000E+02  0.51100000000E-03 0. -1.
    9900012    2    1    2    0    0 -0.28464308700E+02 -0.29061496667E+02 -0.15127320000E+02  0.47787271105E+02  0.20000000275E+02 0.  0.
        -12    1    1    2    0    0  0.28464308700E+02  0.29061496667E+02  0.15127320000E+02  0.43400728895E+02  0.00000000000E+00 0.  1.
         11    1    3    3    0    0 -0.16644163638E+02 -0.19675402483E+02 -0.14989461022E+02  0.29813312263E+02  0.51100000000E-03 0. -1.
        -11    1    3    3    0    0 -0.41197151724E+01 -0.32335946247E+00  0.36285471613E+01  0.54993607998E+01  0.51100000000E-03 0.  1.
        -12    1    3    3    0    0 -0.77004298899E+01 -0.90627347209E+01 -0.37664061389E+01  0.12474598042E+02  0.00000000000E+00 0.  1.
</event>
<event>
 7    1  0.2642243E-009  0.4778727E+02  0.7816164E-02  0.1312668E+00
        -11   -1    0    0    0    0  0.00000000000E+00  0.00000000000E+00  0.45593999997E+02  0.45594000000E+02  0.51100000000E-03 0.  1.
         11   -1    0    0    0    0 -0.00000000000E+00 -0.00000000000E+00 -0.45593999997E+02  0.45594000000E+02  0.51100000000E-03 0. -1.
    9900012    2    1    2    0    0 -0.42843163217E+02  0.37347669469E+01 -0.58427841779E+01  0.47787271371E+02  0.20000001491E+02 0.  0.
        -12    1    1    2    0    0  0.42843163217E+02 -0.37347669469E+01  0.58427841779E+01  0.43400728629E+02  0.00000000000E+00 0.  1.
         11    1    3    3    0    0 -0.24031950694E+02 -0.22984550671E+01 -0.27699514627E+01  0.24300003729E+02  0.51100000000E-03 0. -1.
        -11    1    3    3    0    0 -0.68002320446E+01  0.26038271942E+01 -0.72898654151E+01  0.10303650322E+02  0.51100000000E-03 0.  1.
        -12    1    3    3    0    0 -0.12010980478E+02  0.34293948199E+01  0.42170327000E+01  0.13183617321E+02  0.00000000000E+00 0.  1.
</event>
<event>
 7    1  0.2642243E-009  0.4778728E+02  0.7816164E-02  0.1312668E+00
        -11   -1    0    0    0    0  0.00000000000E+00  0.00000000000E+00  0.45593999997E+02  0.45594000000E+02  0.51100000000E-03 0. -1.
         11   -1    0    0    0    0 -0.00000000000E+00 -0.00000000000E+00 -0.45593999997E+02  0.45594000000E+02  0.51100000000E-03 0.  1.
    9900012    2    1    2    0    0  0.18067975452E+02  0.14898497095E+00  0.39460726369E+02  0.47787275823E+02  0.20000021789E+02 0.  0.
        -12    1    1    2    0    0 -0.18067975452E+02 -0.14898497095E+00 -0.39460726369E+02  0.43400724177E+02  0.00000000000E+00 0.  1.
         11    1    3    3    0    0  0.61752593599E+01 -0.60506572325E+01  0.22909504248E+02  0.24486520093E+02  0.51100000000E-03 0. -1.
        -11    1    3    3    0    0  0.84641450462E+00  0.39725509230E+01  0.85952346747E+01  0.95066102120E+01  0.51100000000E-03 0.  1.
         12    1    3    3    0    0  0.11046301588E+02  0.22270912805E+01  0.79559874469E+01  0.13794145519E+02  0.00000000000E+00 0. -1.
</event>
<event>
 7    1  0.2642243E-009  0.4778728E+02  0.7816164E-02  0.1312668E+00
        -11   -1    0    0    0    0  0.00000000000E+00  0.00000000000E+00  0.45593999997E+02  0.45594000000E+02  0.51100000000E-03 0.  1.
         11   -1    0    0    0    0 -0.00000000000E+00 -0.00000000000E+00 -0.45593999997E+02  0.45594000000E+02  0.51100000000E-03 0. -1.
    9900012    2    1    2    0    0 -0.39366161812E+02  0.84712811716E+01 -0.16191526165E+02  0.47787276272E+02  0.20000023836E+02 0.  0.
        -12    1    1    2    0    0  0.39366161812E+02 -0.84712811716E+01  0.16191526165E+02  0.43400723728E+02  0.00000000000E+00 0.  1.
         11    1    3    3    0    0 -0.91904598448E+01  0.79144603557E+01 -0.77639894737E+01  0.14400790523E+02  0.51100000000E-03 0. -1.
        -11    1    3    3    0    0 -0.28944481558E+02  0.21120654238E+01 -0.50326397821E+01  0.29454563254E+02  0.51100000000E-03 0.  1.
        -12    1    3    3    0    0 -0.12312204093E+01 -0.15552446079E+01 -0.33948969093E+01  0.39319224956E+01  0.00000000000E+00 0.  1.
</event>
<event>
 7    1  0.2642243E-009  0.4778727E+02  0.7816164E-02  0.1312668E+00
        -11   -1    0    0    0    0  0.00000000000E+00  0.00000000000E+00  0.45593999997E+02  0.45594000000E+02  0.51100000000E-03 0. -1.
         11   -1    0    0    0    0 -0.00000000000E+00 -0.00000000000E+00 -0.45593999997E+02  0.45594000000E+02  0.51100000000E-03 0.  1.
    9900012    2    1    2    0    0 -0.16409112069E+02  0.47192869379E+01  0.39901035828E+02  0.47787270879E+02  0.19999999246E+02 0.  0.
        -12    1    1    2    0    0  0.16409112069E+02 -0.47192869379E+01 -0.39901035828E+02  0.43400729121E+02  0.00000000000E+00 0.  1.
         11    1    3    3    0    0 -0.13658175240E+02  0.75857011103E+01  0.22692721791E+02  0.27550830020E+02  0.51100000000E-03 0. -1.
        -11    1    3    3    0    0  0.35354626589E+01 -0.22286029937E+01  0.85600536285E+01  0.95257905656E+01  0.51100000000E-03 0.  1.
        -12    1    3    3    0    0 -0.62863994887E+01 -0.63781117868E+00  0.86482604079E+01  0.10710650294E+02  0.00000000000E+00 0.  1.
</event>
<event>
 7    1  0.2642243E-009  0.4778727E+02  0.7816164E-02  0.1312668E+00
        -11   -1    0    0    0    0  0.00000000000E+00  0.00000000000E+00  0.45593999997E+02  0.45594000000E+02  0.51100000000E-03 0. -1.
         11   -1    0    0    0    0 -0.00000000000E+00 -0.00000000000E+00 -0.45593999997E+02  0.45594000000E+02  0.51100000000E-03 0.  1.
    9900012    2    1    2    0    0 -0.30625676234E+02 -0.21600195876E+02  0.21888871987E+02  0.47787271624E+02  0.20000002642E+02 0.  0.
        -12    1    1    2    0    0  0.30625676234E+02  0.21600195876E+02 -0.21888871987E+02  0.43400728376E+02  0.00000000000E+00 0.  1.
         11    1    3    3    0    0 -0.78879925916E+01 -0.10832795466E+02  0.18603636772E+01  0.13528889016E+02  0.51100000000E-03 0. -1.
        -11    1    3    3    0    0 -0.14595395916E+02 -0.80361815615E+01  0.19507551755E+02  0.25654441561E+02  0.51100000000E-03 0.  1.
        -12    1    3    3    0    0 -0.81422877263E+01 -0.27312188492E+01  0.52095655468E+00  0.86039410477E+01  0.00000000000E+00 0.  1.
</event>
<event>
 7    1  0.2642243E-009  0.4778727E+02  0.7816164E-02  0.1312668E+00
        -11   -1    0    0    0    0  0.00000000000E+00  0.00000000000E+00  0.45593999997E+02  0.45594000000E+02  0.51100000000E-03 0. -1.
         11   -1    0    0    0    0 -0.00000000000E+00 -0.00000000000E+00 -0.45593999997E+02  0.45594000000E+02  0.51100000000E-03 0.  1.
    9900012    2    1    2    0    0  0.27819510686E+02  0.33033251560E+02  0.43014479944E+01  0.47787270302E+02  0.19999996614E+02 0.  0.
        -12    1    1    2    0    0 -0.27819510686E+02 -0.33033251560E+02 -0.43014479944E+01  0.43400729698E+02  0.00000000000E+00 0.  1.
         11    1    3    3    0    0  0.20586477572E+02  0.20981466039E+02  0.42636403092E+01  0.29701912479E+02  0.51100000000E-03 0. -1.
        -11    1    3    3    0    0 -0.17157977531E+01  0.45196336494E+01  0.34054974468E+01  0.59134138512E+01  0.51100000000E-03 0.  1.
        -12    1    3    3    0    0  0.89488308678E+01  0.75321518716E+01 -0.33676897616E+01  0.12171943972E+02  0.00000000000E+00 0.  1.
</event>
<event>
 7    1  0.2642243E-009  0.4778726E+02  0.7816164E-02  0.1312668E+00
        -11   -1    0    0    0    0  0.00000000000E+00  0.00000000000E+00  0.45593999997E+02  0.45594000000E+02  0.51100000000E-03 0. -1.
         11   -1    0    0    0    0 -0.00000000000E+00 -0.00000000000E+00 -0.45593999997E+02  0.45594000000E+02  0.51100000000E-03 0.  1.
    9900012    2    1    2    0    0  0.33791060038E+02 -0.22887883524E+02 -0.14762553361E+02  0.47787263457E+02  0.19999965407E+02 0.  0.
        -12    1    1    2    0    0 -0.33791060038E+02  0.22887883524E+02  0.14762553361E+02  0.43400736543E+02  0.00000000000E+00 0.  1.
         11    1    3    3    0    0  0.34670155953E+01  0.13380961040E+01  0.18088561124E+00  0.37206744264E+01  0.51100000000E-03 0. -1.
        -11    1    3    3    0    0  0.30963085622E+02 -0.25207526350E+02 -0.15421770216E+02  0.42801437508E+02  0.51100000000E-03 0.  1.
        -12    1    3    3    0    0 -0.63904117888E+00  0.98154672197E+00  0.47833124400E+00  0.12651515224E+01  0.00000000000E+00 0.  1.
</event>
<event>
 7    1  0.2642243E-009  0.4778727E+02  0.7816164E-02  0.1312668E+00
        -11   -1    0    0    0    0  0.00000000000E+00  0.00000000000E+00  0.45593999997E+02  0.45594000000E+02  0.51100000000E-03 0.  1.
         11   -1    0    0    0    0 -0.00000000000E+00 -0.00000000000E+00 -0.45593999997E+02  0.45594000000E+02  0.51100000000E-03 0. -1.
    9900012    2    1    2    0    0  0.23388336112E+02  0.31908691249E+02 -0.17845014482E+02  0.47787269762E+02  0.19999994152E+02 0.  0.
        -12    1    1    2    0    0 -0.23388336112E+02 -0.31908691249E+02  0.17845014482E+02  0.43400730238E+02  0.00000000000E+00 0.  1.
         11    1    3    3    0    0  0.17598689247E+02  0.27187867138E+02 -0.18965994813E+02  0.37531359451E+02  0.51100000000E-03 0. -1.
        -11    1    3    3    0    0  0.71651224525E+01  0.44662465933E+01  0.19007278972E+01  0.86544269130E+01  0.51100000000E-03 0.  1.
         12    1    3    3    0    0 -0.13754755878E+01  0.25457751777E+00 -0.77974756655E+00  0.16014833976E+01  0.00000000000E+00 0. -1.
</event>
<event>
 7    1  0.2642243E-009  0.4778727E+02  0.7816164E-02  0.1312668E+00
        -11   -1    0    0    0    0  0.00000000000E+00  0.00000000000E+00  0.45593999997E+02  0.45594000000E+02  0.51100000000E-03 0. -1.
         11   -1    0    0    0    0 -0.00000000000E+00 -0.00000000000E+00 -0.45593999997E+02  0.45594000000E+02  0.51100000000E-03 0.  1.
    9900012    2    1    2    0    0  0.31889533185E+02  0.29344682509E+02 -0.23601749441E+01  0.47787272540E+02  0.20000006818E+02 0.  0.
        -12    1    1    2    0    0 -0.31889533185E+02 -0.29344682509E+02  0.23601749441E+01  0.43400727460E+02  0.00000000000E+00 0.  1.
         11    1    3    3    0    0  0.28975941509E+02  0.22116396766E+02 -0.34508469946E+01  0.36614867711E+02  0.51100000000E-03 0. -1.
        -11    1    3    3    0    0 -0.27081751375E+01  0.30537238462E+01  0.83117123744E+00  0.41653676658E+01  0.51100000000E-03 0.  1.
        -12    1    3    3    0    0  0.56217668131E+01  0.41745618965E+01  0.25950081305E+00  0.70070371628E+01  0.00000000000E+00 0.  1.
</event>
<event>
 7    1  0.2642243E-009  0.4778725E+02  0.7816164E-02  0.1312668E+00
        -11   -1    0    0    0    0  0.00000000000E+00  0.00000000000E+00  0.45593999997E+02  0.45594000000E+02  0.51100000000E-03 0. -1.
         11   -1    0    0    0    0 -0.00000000000E+00 -0.00000000000E+00 -0.45593999997E+02  0.45594000000E+02  0.51100000000E-03 0.  1.
    9900012    2    1    2    0    0 -0.40309640046E+02 -0.13986704488E+02  0.79454540222E+01  0.47787248593E+02  0.19999897634E+02 0.  0.
        -12    1    1    2    0    0  0.40309640046E+02  0.13986704488E+02 -0.79454540222E+01  0.43400751407E+02  0.00000000000E+00 0.  1.
         11    1    3    3    0    0 -0.28303127056E+02 -0.12381636090E+02  0.47384199581E+01  0.31254192316E+02  0.51100000000E-03 0. -1.
        -11    1    3    3    0    0 -0.49751164534E+00  0.12405540526E+01 -0.29027811212E+01  0.31957206845E+01  0.51100000000E-03 0.  1.
         12    1    3    3    0    0 -0.11509001345E+02 -0.28456224508E+01  0.61098151853E+01  0.13337335592E+02  0.00000000000E+00 0. -1.
</event>
<event>
 7    1  0.2642243E-009  0.4778727E+02  0.7816164E-02  0.1312668E+00
        -11   -1    0    0    0    0  0.00000000000E+00  0.00000000000E+00  0.45593999997E+02  0.45594000000E+02  0.51100000000E-03 0.  1.
         11   -1    0    0    0    0 -0.00000000000E+00 -0.00000000000E+00 -0.45593999997E+02  0.45594000000E+02  0.51100000000E-03 0. -1.
    9900012    2    1    2    0    0  0.31359540652E+02 -0.14132762380E+02 -0.26466344694E+02  0.47787272312E+02  0.20000005779E+02 0.  0.
        -12    1    1    2    0    0 -0.31359540652E+02  0.14132762380E+02  0.26466344694E+02  0.43400727688E+02  0.00000000000E+00 0.  1.
         11    1    3    3    0    0  0.12122683224E+02  0.17365555009E+01 -0.14573459845E+02  0.19035776992E+02  0.51100000000E-03 0. -1.
        -11    1    3    3    0    0  0.20980750289E+01 -0.50464732204E+00 -0.37676401934E+01  0.43418545155E+01  0.51100000000E-03 0.  1.
         12    1    3    3    0    0  0.17138782399E+02 -0.15364670558E+02 -0.81252446555E+01  0.24409640804E+02  0.00000000000E+00 0. -1.
</event>
<event>
 7    1  0.2642243E-009  0.4778728E+02  0.7816164E-02  0.1312668E+00
        -11   -1    0    0    0    0  0.00000000000E+00  0.00000000000E+00  0.45593999997E+02  0.45594000000E+02  0.51100000000E-03 0.  1.
         11   -1    0    0    0    0 -0.00000000000E+00 -0.00000000000E+00 -0.45593999997E+02  0.45594000000E+02  0.51100000000E-03 0. -1.
    9900012    2    1    2    0    0 -0.32403820385E+02  0.76361815477E+01 -0.27844275850E+02  0.47787279478E+02  0.20000038454E+02 0.  0.
        -12    1    1    2    0    0  0.32403820385E+02 -0.76361815477E+01  0.27844275850E+02  0.43400720522E+02  0.00000000000E+00 0.  1.
         11    1    3    3    0    0 -0.33421938681E+01  0.28639815821E+01 -0.38437134007E+01  0.58435249056E+01  0.51100000000E-03 0. -1.
        -11    1    3    3    0    0 -0.10903793622E+02  0.68553121512E+01 -0.19072509317E+02  0.23014096375E+02  0.51100000000E-03 0.  1.
        -12    1    3    3    0    0 -0.18157832895E+02 -0.20831121856E+01 -0.49280531323E+01  0.18929658198E+02  0.00000000000E+00 0.  1.
</event>
<event>
 7    1  0.2642243E-009  0.4778727E+02  0.7816164E-02  0.1312668E+00
        -11   -1    0    0    0    0  0.00000000000E+00  0.00000000000E+00  0.45593999997E+02  0.45594000000E+02  0.51100000000E-03 0. -1.
         11   -1    0    0    0    0 -0.00000000000E+00 -0.00000000000E+00 -0.45593999997E+02  0.45594000000E+02  0.51100000000E-03 0.  1.
    9900012    2    1    2    0    0  0.22979338252E+02 -0.36763002079E+02 -0.20136858507E+01  0.47787271445E+02  0.20000001826E+02 0.  0.
        -12    1    1    2    0    0 -0.22979338252E+02  0.36763002079E+02  0.20136858507E+01  0.43400728555E+02  0.00000000000E+00 0.  1.
         11    1    3    3    0    0  0.11419862630E+02 -0.94567883898E+01 -0.84823646439E+01  0.17081996937E+02  0.51100000000E-03 0. -1.
        -11    1    3    3    0    0  0.58852917765E+01 -0.11478452594E+02  0.49732665128E+01  0.13824793428E+02  0.51100000000E-03 0.  1.
         12    1    3    3    0    0  0.56741838456E+01 -0.15827761096E+02  0.14954122804E+01  0.16880481080E+02  0.00000000000E+00 0. -1.
</event>
<event>
 7    1  0.2642243E-009  0.4778727E+02  0.7816164E-02  0.1312668E+00
        -11   -1    0    0    0    0  0.00000000000E+00  0.00000000000E+00  0.45593999997E+02  0.45594000000E+02  0.51100000000E-03 0. -1.
         11   -1    0    0    0    0 -0.00000000000E+00 -0.00000000000E+00 -0.45593999997E+02  0.45594000000E+02  0.51100000000E-03 0.  1.
    9900012    2    1    2    0    0 -0.22873525084E+02  0.10820114961E+01  0.36868072683E+02  0.47787266343E+02  0.19999978563E+02 0.  0.
        -12    1    1    2    0    0  0.22873525084E+02 -0.10820114961E+01 -0.36868072683E+02  0.43400733657E+02  0.00000000000E+00 0.  1.
         11    1    3    3    0    0 -0.15296289714E+02 -0.15200857617E+01  0.30647556881E+02  0.34286438759E+02  0.51100000000E-03 0. -1.
        -11    1    3    3    0    0 -0.54119594918E+01  0.57509853423E+01  0.28200575094E+01  0.83854554179E+01  0.51100000000E-03 0.  1.
         12    1    3    3    0    0 -0.21652758784E+01 -0.31488880845E+01  0.34004582923E+01  0.51153721660E+01  0.00000000000E+00 0. -1.
</event>
<event>
 7    1  0.2642243E-009  0.4778727E+02  0.7816164E-02  0.1312668E+00
        -11   -1    0    0    0    0  0.00000000000E+00  0.00000000000E+00  0.45593999997E+02  0.45594000000E+02  0.51100000000E-03 0.  1.
         11   -1    0    0    0    0 -0.00000000000E+00 -0.00000000000E+00 -0.45593999997E+02  0.45594000000E+02  0.51100000000E-03 0. -1.
    9900012    2    1    2    0    0  0.45327822197E+01 -0.32656185170E+02 -0.28225003283E+02  0.47787270112E+02  0.19999995747E+02 0.  0.
        -12    1    1    2    0    0 -0.45327822197E+01  0.32656185170E+02  0.28225003283E+02  0.43400729888E+02  0.00000000000E+00 0.  1.
         11    1    3    3    0    0  0.53103340392E+00 -0.92130084497E+01 -0.78842548775E+01  0.12137668491E+02  0.51100000000E-03 0. -1.
        -11    1    3    3    0    0  0.81092279042E+01 -0.75864721207E+01 -0.14490415436E+02  0.18256129825E+02  0.51100000000E-03 0.  1.
        -12    1    3    3    0    0 -0.41074790884E+01 -0.15856704600E+02 -0.58503329694E+01  0.17393471795E+02  0.00000000000E+00 0.  1.
</event>
<event>
 7    1  0.2642243E-009  0.4778726E+02  0.7816164E-02  0.1312668E+00
        -11   -1    0    0    0    0  0.00000000000E+00  0.00000000000E+00  0.45593999997E+02  0.45594000000E+02  0.51100000000E-03 0.  1.
         11   -1    0    0    0    0 -0.00000000000E+00 -0.00000000000E+00 -0.45593999997E+02  0.45594000000E+02  0.51100000000E-03 0. -1.
    9900012    2    1    2    0    0 -0.17853607402E+02  0.26501804732E+01 -0.39469607384E+02  0.47787255065E+02  0.19999927145E+02 0.  0.
        -12    1    1    2    0    0  0.17853607402E+02 -0.26501804732E+01  0.39469607384E+02  0.43400744935E+02  0.00000000000E+00 0.  1.
         11    1    3    3    0    0 -0.15699276943E+01  0.43315254141E+00 -0.62419927571E+01  0.64509509323E+01  0.51100000000E-03 0. -1.
        -11    1    3    3    0    0  0.79226250247E+00  0.52027192393E+01 -0.16215637267E+02  0.17048250924E+02  0.51100000000E-03 0.  1.
        -12    1    3    3    0    0 -0.17075942210E+02 -0.29856913074E+01 -0.17011977361E+02  0.24288053209E+02  0.00000000000E+00 0.  1.
</event>
<event>
 7    1  0.2642243E-009  0.4778727E+02  0.7816164E-02  0.1312668E+00
        -11   -1    0    0    0    0  0.00000000000E+00  0.00000000000E+00  0.45593999997E+02  0.45594000000E+02  0.51100000000E-03 0.  1.
         11   -1    0    0    0    0 -0.00000000000E+00 -0.00000000000E+00 -0.45593999997E+02  0.45594000000E+02  0.51100000000E-03 0. -1.
    9900012    2    1    2    0    0 -0.21722338068E+02  0.66092927025E+01 -0.36987573498E+02  0.47787270577E+02  0.19999997871E+02 0.  0.
        -12    1    1    2    0    0  0.21722338068E+02 -0.66092927025E+01  0.36987573498E+02  0.43400729423E+02  0.00000000000E+00 0.  1.
         11    1    3    3    0    0 -0.13051234837E+02  0.29427073385E+01 -0.32278755906E+02  0.34941556066E+02  0.51100000000E-03 0. -1.
        -11    1    3    3    0    0 -0.97246563966E+01  0.27713990310E+01 -0.52100372966E+01  0.11375152022E+02  0.51100000000E-03 0.  1.
        -12    1    3    3    0    0  0.10535531653E+01  0.89518633309E+00  0.50121970487E+00  0.14705624895E+01  0.00000000000E+00 0.  1.
</event>
<event>
 7    1  0.2642243E-009  0.4778725E+02  0.7816164E-02  0.1312668E+00
        -11   -1    0    0    0    0  0.00000000000E+00  0.00000000000E+00  0.45593999997E+02  0.45594000000E+02  0.51100000000E-03 0.  1.
         11   -1    0    0    0    0 -0.00000000000E+00 -0.00000000000E+00 -0.45593999997E+02  0.45594000000E+02  0.51100000000E-03 0. -1.
    9900012    2    1    2    0    0 -0.23412602638E+01 -0.68714158290E+01 -0.42789330859E+02  0.47787254724E+02  0.19999925591E+02 0.  0.
        -12    1    1    2    0    0  0.23412602638E+01  0.68714158290E+01  0.42789330859E+02  0.43400745276E+02  0.00000000000E+00 0.  1.
         11    1    3    3    0    0 -0.53450327362E+01 -0.49390280554E+01 -0.36423863038E+02  0.37143790490E+02  0.51100000000E-03 0. -1.
        -11    1    3    3    0    0  0.33752574505E+01 -0.46692395153E+01 -0.44999454153E+01  0.73105177320E+01  0.51100000000E-03 0.  1.
        -12    1    3    3    0    0 -0.37148497804E+00  0.27368517417E+01 -0.18655224060E+01  0.33329465030E+01  0.00000000000E+00 0.  1.
</event>
<event>
 7    1  0.2642243E-009  0.4778727E+02  0.7816164E-02  0.1312668E+00
        -11   -1    0    0    0    0  0.00000000000E+00  0.00000000000E+00  0.45593999997E+02  0.45594000000E+02  0.51100000000E-03 0.  1.
         11   -1    0    0    0    0 -0.00000000000E+00 -0.00000000000E+00 -0.45593999997E+02  0.45594000000E+02  0.51100000000E-03 0. -1.
    9900012    2    1    2    0    0  0.23114984606E+02 -0.26653726288E+01 -0.36636272860E+02  0.47787271738E+02  0.20000003163E+02 0.  0.
        -12    1    1    2    0    0 -0.23114984606E+02  0.26653726288E+01  0.36636272860E+02  0.43400728262E+02  0.00000000000E+00 0.  1.
         11    1    3    3    0    0  0.16885645982E+02 -0.76830128219E+01 -0.30987617152E+02  0.36116286399E+02  0.51100000000E-03 0. -1.
        -11    1    3    3    0    0 -0.79896630746E+00  0.34309254097E+00  0.69413491659E+00  0.11126019934E+01  0.51100000000E-03 0.  1.
         12    1    3    3    0    0  0.70283049322E+01  0.46745476521E+01 -0.63427906241E+01  0.10558383346E+02  0.00000000000E+00 0. -1.
</event>
<event>
 7    1  0.2642243E-009  0.4778727E+02  0.7816164E-02  0.1312668E+00
        -11   -1    0    0    0    0  0.00000000000E+00  0.00000000000E+00  0.45593999997E+02  0.45594000000E+02  0.51100000000E-03 0. -1.
         11   -1    0    0    0    0 -0.00000000000E+00 -0.00000000000E+00 -0.45593999997E+02  0.45594000000E+02  0.51100000000E-03 0.  1.
    9900012    2    1    2    0    0 -0.75660480752E+01  0.42292992293E+02 -0.61384959664E+01  0.47787269438E+02  0.19999992677E+02 0.  0.
        -12    1    1    2    0    0  0.75660480752E+01 -0.42292992293E+02  0.61384959664E+01  0.43400730562E+02  0.00000000000E+00 0.  1.
         11    1    3    3    0    0 -0.92540795654E+01  0.38492308414E+02 -0.40520342987E+01  0.39795914085E+02  0.51100000000E-03 0. -1.
        -11    1    3    3    0    0  0.39635503897E+01  0.36507098207E+01 -0.18558784013E+01  0.56992717770E+01  0.51100000000E-03 0.  1.
        -12    1    3    3    0    0 -0.22755188994E+01  0.14997405831E+00 -0.23058326634E+00  0.22920835767E+01  0.00000000000E+00 0.  1.
</event>
<event>
 7    1  0.2642243E-009  0.4778721E+02  0.7816164E-02  0.1312668E+00
        -11   -1    0    0    0    0  0.00000000000E+00  0.00000000000E+00  0.45593999997E+02  0.45594000000E+02  0.51100000000E-03 0.  1.
         11   -1    0    0    0    0 -0.00000000000E+00 -0.00000000000E+00 -0.45593999997E+02  0.45594000000E+02  0.51100000000E-03 0. -1.
    9900012    2    1    2    0    0 -0.14265531214E+02  0.35738275555E+02 -0.20072339882E+02  0.47787210274E+02  0.19999722924E+02 0.  0.
        -12    1    1    2    0    0  0.14265531214E+02 -0.35738275555E+02  0.20072339882E+02  0.43400789726E+02  0.00000000000E+00 0.  1.
         11    1    3    3    0    0  0.26047833845E+01  0.13841372700E+02 -0.12550532130E+02  0.18864897341E+02  0.51100000000E-03 0. -1.
        -11    1    3    3    0    0 -0.11295536826E+02  0.12113395140E+02 -0.56967450045E+01  0.17515033483E+02  0.51100000000E-03 0.  1.
         12    1    3    3    0    0 -0.55747777718E+01  0.97835077151E+01 -0.18250627481E+01  0.11407279450E+02  0.00000000000E+00 0. -1.
</event>
<event>
 7    1  0.2642243E-009  0.4778727E+02  0.7816164E-02  0.1312668E+00
        -11   -1    0    0    0    0  0.00000000000E+00  0.00000000000E+00  0.45593999997E+02  0.45594000000E+02  0.51100000000E-03 0.  1.
         11   -1    0    0    0    0 -0.00000000000E+00 -0.00000000000E+00 -0.45593999997E+02  0.45594000000E+02  0.51100000000E-03 0. -1.
    9900012    2    1    2    0    0 -0.19408454307E+02 -0.21323233806E+02 -0.32438476698E+02  0.47787272252E+02  0.20000005508E+02 0.  0.
        -12    1    1    2    0    0  0.19408454307E+02  0.21323233806E+02  0.32438476698E+02  0.43400727748E+02  0.00000000000E+00 0.  1.
         11    1    3    3    0    0  0.18733127168E+01  0.57434997234E+00 -0.37374281363E+00  0.19947085946E+01  0.51100000000E-03 0.  1.
        -11    1    3    3    0    0 -0.12484085467E+02 -0.16404849299E+02 -0.27726136424E+02  0.34550110155E+02  0.51100000000E-03 0. -1.
        -12    1    3    3    0    0 -0.87976815568E+01 -0.54927344797E+01 -0.43385974603E+01  0.11242453503E+02  0.00000000000E+00 0.  1.
</event>
<event>
 7    1  0.2642243E-009  0.4778727E+02  0.7816164E-02  0.1312668E+00
        -11   -1    0    0    0    0  0.00000000000E+00  0.00000000000E+00  0.45593999997E+02  0.45594000000E+02  0.51100000000E-03 0.  1.
         11   -1    0    0    0    0 -0.00000000000E+00 -0.00000000000E+00 -0.45593999997E+02  0.45594000000E+02  0.51100000000E-03 0. -1.
    9900012    2    1    2    0    0  0.14865368391E+02  0.17362616730E+02 -0.36894219816E+02  0.47787273129E+02  0.20000009504E+02 0.  0.
        -12    1    1    2    0    0 -0.14865368391E+02 -0.17362616730E+02  0.36894219816E+02  0.43400726871E+02  0.00000000000E+00 0.  1.
         11    1    3    3    0    0  0.16599866152E+02  0.89391146494E+01 -0.18637734367E+02  0.26510912273E+02  0.51100000000E-03 0. -1.
        -11    1    3    3    0    0 -0.22165222177E+01  0.53376034065E+01 -0.49541205071E+01  0.76122461289E+01  0.51100000000E-03 0.  1.
         12    1    3    3    0    0  0.48202445659E+00  0.30858986741E+01 -0.13302364943E+02  0.13664114727E+02  0.00000000000E+00 0. -1.
</event>
<event>
 7    1  0.2642243E-009  0.4778727E+02  0.7816164E-02  0.1312668E+00
        -11   -1    0    0    0    0  0.00000000000E+00  0.00000000000E+00  0.45593999997E+02  0.45594000000E+02  0.51100000000E-03 0.  1.
         11   -1    0    0    0    0 -0.00000000000E+00 -0.00000000000E+00 -0.45593999997E+02  0.45594000000E+02  0.51100000000E-03 0. -1.
    9900012    2    1    2    0    0 -0.13053919380E+02 -0.28512740014E+02 -0.30004035492E+02  0.47787270742E+02  0.19999998623E+02 0.  0.
        -12    1    1    2    0    0  0.13053919380E+02  0.28512740014E+02  0.30004035492E+02  0.43400729258E+02  0.00000000000E+00 0.  1.
         11    1    3    3    0    0  0.19449055418E+01 -0.65611109558E+01 -0.14589659452E+02  0.16114868840E+02  0.51100000000E-03 0. -1.
        -11    1    3    3    0    0  0.46751281709E+00  0.19598785222E+00 -0.83221574383E+00  0.97445511839E+00  0.51100000000E-03 0.  1.
         12    1    3    3    0    0 -0.15466337739E+02 -0.22147616910E+02 -0.14582160297E+02  0.30697946785E+02  0.00000000000E+00 0. -1.
</event>
<event>
 7    1  0.2642243E-009  0.4778727E+02  0.7816164E-02  0.1312668E+00
        -11   -1    0    0    0    0  0.00000000000E+00  0.00000000000E+00  0.45593999997E+02  0.45594000000E+02  0.51100000000E-03 0.  1.
         11   -1    0    0    0    0 -0.00000000000E+00 -0.00000000000E+00 -0.45593999997E+02  0.45594000000E+02  0.51100000000E-03 0. -1.
    9900012    2    1    2    0    0 -0.82638280718E+01  0.24588647954E+02 -0.34795554753E+02  0.47787273126E+02  0.20000009490E+02 0.  0.
        -12    1    1    2    0    0  0.82638280718E+01 -0.24588647954E+02  0.34795554753E+02  0.43400726874E+02  0.00000000000E+00 0.  1.
         11    1    3    3    0    0  0.11186118183E+01  0.76691656883E+01 -0.68115003484E+01  0.10318136073E+02  0.51100000000E-03 0. -1.
        -11    1    3    3    0    0  0.15529615815E+01 -0.22006028552E+01 -0.47031971748E+01  0.54198160970E+01  0.51100000000E-03 0.  1.
        -12    1    3    3    0    0 -0.10935401472E+02  0.19120085121E+02 -0.23280857230E+02  0.32049320956E+02  0.00000000000E+00 0.  1.
</event>
<event>
 7    1  0.2642243E-009  0.4778727E+02  0.7816164E-02  0.1312668E+00
        -11   -1    0    0    0    0  0.00000000000E+00  0.00000000000E+00  0.45593999997E+02  0.45594000000E+02  0.51100000000E-03 0.  1.
         11   -1    0    0    0    0 -0.00000000000E+00 -0.00000000000E+00 -0.45593999997E+02  0.45594000000E+02  0.51100000000E-03 0. -1.
    9900012    2    1    2    0    0 -0.19592805528E+01  0.24919040673E+02 -0.35479934958E+02  0.47787272437E+02  0.20000006350E+02 0.  0.
        -12    1    1    2    0    0  0.19592805528E+01 -0.24919040673E+02  0.35479934958E+02  0.43400727563E+02  0.00000000000E+00 0.  1.
         11    1    3    3    0    0 -0.10340527562E+01  0.71120877850E+00 -0.14638983082E+02  0.14692682157E+02  0.51100000000E-03 0. -1.
        -11    1    3    3    0    0 -0.11349647277E+01 -0.31277210625E+00 -0.11483236936E+01  0.16445725554E+01  0.51100000000E-03 0.  1.
         12    1    3    3    0    0  0.20973693107E+00  0.24520604001E+02 -0.19692628182E+02  0.31450017724E+02  0.00000000000E+00 0. -1.
</event>
<event>
 7    1  0.2642243E-009  0.4778726E+02  0.7816164E-02  0.1312668E+00
        -11   -1    0    0    0    0  0.00000000000E+00  0.00000000000E+00  0.45593999997E+02  0.45594000000E+02  0.51100000000E-03 0.  1.
         11   -1    0    0    0    0 -0.00000000000E+00 -0.00000000000E+00 -0.45593999997E+02  0.45594000000E+02  0.51100000000E-03 0. -1.
    9900012    2    1    2    0    0 -0.34703448148E+02 -0.25893175742E+02 -0.29728823084E+01  0.47787263916E+02  0.19999967500E+02 0.  0.
        -12    1    1    2    0    0  0.34703448148E+02  0.25893175742E+02  0.29728823084E+01  0.43400736084E+02  0.00000000000E+00 0.  1.
         11    1    3    3    0    0 -0.12560829529E+02 -0.83635276307E+00 -0.55907123238E+01  0.13774250940E+02  0.51100000000E-03 0. -1.
        -11    1    3    3    0    0 -0.32346200228E+01 -0.13373887838E+01  0.98223457736E+00  0.36354037571E+01  0.51100000000E-03 0.  1.
         12    1    3    3    0    0 -0.18907998596E+02 -0.23719434195E+02  0.16355954380E+01  0.30377609219E+02  0.00000000000E+00 0. -1.
</event>
<event>
 7    1  0.2642243E-009  0.4778727E+02  0.7816164E-02  0.1312668E+00
        -11   -1    0    0    0    0  0.00000000000E+00  0.00000000000E+00  0.45593999997E+02  0.45594000000E+02  0.51100000000E-03 0.  1.
         11   -1    0    0    0    0 -0.00000000000E+00 -0.00000000000E+00 -0.45593999997E+02  0.45594000000E+02  0.51100000000E-03 0. -1.
    9900012    2    1    2    0    0  0.32428115407E+02 -0.22911470148E+02 -0.17524413320E+02  0.47787271948E+02  0.20000004121E+02 0.  0.
        -12    1    1    2    0    0 -0.32428115407E+02  0.22911470148E+02  0.17524413320E+02  0.43400728052E+02  0.00000000000E+00 0.  1.
         11    1    3    3    0    0  0.20003699597E+02 -0.19684797454E+02 -0.88052945313E+01  0.29413814109E+02  0.51100000000E-03 0. -1.
        -11    1    3    3    0    0  0.16387088298E+01  0.29347424004E+01 -0.31497615212E+00  0.33759872368E+01  0.51100000000E-03 0.  1.
         12    1    3    3    0    0  0.10785706980E+02 -0.61614150945E+01 -0.84041426363E+01  0.14997470603E+02  0.00000000000E+00 0. -1.
</event>
<event>
 7    1  0.2642243E-009  0.4778727E+02  0.7816164E-02  0.1312668E+00
        -11   -1    0    0    0    0  0.00000000000E+00  0.00000000000E+00  0.45593999997E+02  0.45594000000E+02  0.51100000000E-03 0. -1.
         11   -1    0    0    0    0 -0.00000000000E+00 -0.00000000000E+00 -0.45593999997E+02  0.45594000000E+02  0.51100000000E-03 0.  1.
    9900012    2    1    2    0    0 -0.41365915594E+02 -0.42973949569E+01  0.12410333626E+02  0.47787274694E+02  0.20000016640E+02 0.  0.
        -12    1    1    2    0    0  0.41365915594E+02  0.42973949569E+01 -0.12410333626E+02  0.43400725306E+02  0.00000000000E+00 0.  1.
         11    1    3    3    0    0 -0.21465448525E+02  0.49730713747E+01  0.20136388633E+01  0.22125814358E+02  0.51100000000E-03 0. -1.
        -11    1    3    3    0    0 -0.14618916248E+01 -0.23371063698E+01  0.41754873409E+01  0.50033876625E+01  0.51100000000E-03 0.  1.
         12    1    3    3    0    0 -0.18438575445E+02 -0.69333599619E+01  0.62212074218E+01  0.20658072674E+02  0.00000000000E+00 0. -1.
</event>
<event>
 7    1  0.2642243E-009  0.4778727E+02  0.7816164E-02  0.1312668E+00
        -11   -1    0    0    0    0  0.00000000000E+00  0.00000000000E+00  0.45593999997E+02  0.45594000000E+02  0.51100000000E-03 0.  1.
         11   -1    0    0    0    0 -0.00000000000E+00 -0.00000000000E+00 -0.45593999997E+02  0.45594000000E+02  0.51100000000E-03 0. -1.
    9900012    2    1    2    0    0 -0.73949657525E+01 -0.40112140017E+02 -0.14830840893E+02  0.47787272623E+02  0.20000007198E+02 0.  0.
        -12    1    1    2    0    0  0.73949657525E+01  0.40112140017E+02  0.14830840893E+02  0.43400727377E+02  0.00000000000E+00 0.  1.
         11    1    3    3    0    0 -0.65555979902E+01 -0.14209598669E+02 -0.21781352567E+01  0.15799773188E+02  0.51100000000E-03 0. -1.
        -11    1    3    3    0    0  0.61597236136E+01 -0.14177928956E+02 -0.45690217268E+01  0.16119299745E+02  0.51100000000E-03 0.  1.
        -12    1    3    3    0    0 -0.69990913759E+01 -0.11724612393E+02 -0.80836839094E+01  0.15868199690E+02  0.00000000000E+00 0.  1.
</event>
<event>
 7    1  0.2642243E-009  0.4778728E+02  0.7816164E-02  0.1312668E+00
        -11   -1    0    0    0    0  0.00000000000E+00  0.00000000000E+00  0.45593999997E+02  0.45594000000E+02  0.51100000000E-03 0. -1.
         11   -1    0    0    0    0 -0.00000000000E+00 -0.00000000000E+00 -0.45593999997E+02  0.45594000000E+02  0.51100000000E-03 0.  1.
    9900012    2    1    2    0    0  0.35113869270E+02  0.25061243968E+02  0.47511201489E+01  0.47787275271E+02  0.20000019270E+02 0.  0.
        -12    1    1    2    0    0 -0.35113869270E+02 -0.25061243968E+02 -0.47511201489E+01  0.43400724729E+02  0.00000000000E+00 0.  1.
         11    1    3    3    0    0  0.28777533089E+01  0.23513056802E+00  0.37567004828E+00  0.29116797106E+01  0.51100000000E-03 0. -1.
        -11    1    3    3    0    0  0.23536453459E+02  0.13824932414E+02 -0.53401481509E+01  0.27813855904E+02  0.51100000000E-03 0.  1.
        -12    1    3    3    0    0  0.86996625019E+01  0.11001180986E+02  0.97155982515E+01  0.17061739657E+02  0.00000000000E+00 0.  1.
</event>
<event>
 7    1  0.2642243E-009  0.4778728E+02  0.7816164E-02  0.1312668E+00
        -11   -1    0    0    0    0  0.00000000000E+00  0.00000000000E+00  0.45593999997E+02  0.45594000000E+02  0.51100000000E-03 0.  1.
         11   -1    0    0    0    0 -0.00000000000E+00 -0.00000000000E+00 -0.45593999997E+02  0.45594000000E+02  0.51100000000E-03 0. -1.
    9900012    2    1    2    0    0 -0.82218045556E+01  0.61702679385E+01 -0.42165773152E+02  0.47787277632E+02  0.20000030036E+02 0.  0.
        -12    1    1    2    0    0  0.82218045556E+01 -0.61702679385E+01  0.42165773152E+02  0.43400722368E+02  0.00000000000E+00 0.  1.
         11    1    3    3    0    0 -0.48440986135E+01 -0.12415338224E+01 -0.23262725946E+02  0.23794140377E+02  0.51100000000E-03 0. -1.
        -11    1    3    3    0    0  0.29335470939E-01 -0.33570259605E+01 -0.57273846884E+01  0.66387814770E+01  0.51100000000E-03 0.  1.
         12    1    3    3    0    0 -0.34070414130E+01  0.10768827721E+02 -0.13175662517E+02  0.17354355778E+02  0.00000000000E+00 0. -1.
</event>
<event>
 7    1  0.2642243E-009  0.4778727E+02  0.7816164E-02  0.1312668E+00
        -11   -1    0    0    0    0  0.00000000000E+00  0.00000000000E+00  0.45593999997E+02  0.45594000000E+02  0.51100000000E-03 0.  1.
         11   -1    0    0    0    0 -0.00000000000E+00 -0.00000000000E+00 -0.45593999997E+02  0.45594000000E+02  0.51100000000E-03 0. -1.
    9900012    2    1    2    0    0 -0.30566801846E+02  0.30612715559E+02  0.34865533920E+01  0.47787265173E+02  0.19999973229E+02 0.  0.
        -12    1    1    2    0    0  0.30566801846E+02 -0.30612715559E+02 -0.34865533920E+01  0.43400734827E+02  0.00000000000E+00 0.  1.
         11    1    3    3    0    0 -0.26487407057E+02  0.27794680552E+02  0.88838605621E+01  0.39408755098E+02  0.51100000000E-03 0. -1.
        -11    1    3    3    0    0 -0.36925081556E+01  0.38121842647E+01 -0.47997907434E+01  0.71557918352E+01  0.51100000000E-03 0.  1.
        -12    1    3    3    0    0 -0.38688663355E+00 -0.99414925804E+00 -0.59751642667E+00  0.12227182401E+01  0.00000000000E+00 0.  1.
</event>
<event>
 7    1  0.2642243E-009  0.4778728E+02  0.7816164E-02  0.1312668E+00
        -11   -1    0    0    0    0  0.00000000000E+00  0.00000000000E+00  0.45593999997E+02  0.45594000000E+02  0.51100000000E-03 0.  1.
         11   -1    0    0    0    0 -0.00000000000E+00 -0.00000000000E+00 -0.45593999997E+02  0.45594000000E+02  0.51100000000E-03 0. -1.
    9900012    2    1    2    0    0 -0.30711973678E+02 -0.28988501781E+02 -0.10003217052E+02  0.47787275189E+02  0.20000018899E+02 0.  0.
        -12    1    1    2    0    0  0.30711973678E+02  0.28988501781E+02  0.10003217052E+02  0.43400724811E+02  0.00000000000E+00 0.  1.
         11    1    3    3    0    0 -0.19439390141E+02 -0.16207400239E+02 -0.66660294269E+01  0.26172612788E+02  0.51100000000E-03 0. -1.
        -11    1    3    3    0    0  0.25571827599E+01 -0.43535399140E+01  0.13739374966E+00  0.50508782161E+01  0.51100000000E-03 0.  1.
        -12    1    3    3    0    0 -0.13829766297E+02 -0.84275616278E+01 -0.34745813744E+01  0.16563784186E+02  0.00000000000E+00 0.  1.
</event>
<event>
 7    1  0.2642243E-009  0.4778727E+02  0.7816164E-02  0.1312668E+00
        -11   -1    0    0    0    0  0.00000000000E+00  0.00000000000E+00  0.45593999997E+02  0.45594000000E+02  0.51100000000E-03 0.  1.
         11   -1    0    0    0    0 -0.00000000000E+00 -0.00000000000E+00 -0.45593999997E+02  0.45594000000E+02  0.51100000000E-03 0. -1.
    9900012    2    1    2    0    0  0.37447068857E+02 -0.90517499040E+01 -0.19985154026E+02  0.47787268166E+02  0.19999986875E+02 0.  0.
        -12    1    1    2    0    0 -0.37447068857E+02  0.90517499040E+01  0.19985154026E+02  0.43400731834E+02  0.00000000000E+00 0.  1.
         11    1    3    3    0    0 -0.20518094715E+01 -0.15359868913E+01 -0.12893118058E+01  0.28690596075E+01  0.51100000000E-03 0. -1.
        -11    1    3    3    0    0  0.13509483180E+01  0.10462426974E+01 -0.11821875784E+01  0.20778000076E+01  0.51100000000E-03 0.  1.
         12    1    3    3    0    0  0.38147930011E+02 -0.85620057101E+01 -0.17513654642E+02  0.42840408551E+02  0.00000000000E+00 0. -1.
</event>
<event>
 7    1  0.2642243E-009  0.4778727E+02  0.7816164E-02  0.1312668E+00
        -11   -1    0    0    0    0  0.00000000000E+00  0.00000000000E+00  0.45593999997E+02  0.45594000000E+02  0.51100000000E-03 0. -1.
         11   -1    0    0    0    0 -0.00000000000E+00 -0.00000000000E+00 -0.45593999997E+02  0.45594000000E+02  0.51100000000E-03 0.  1.
    9900012    2    1    2    0    0  0.20556205924E+02 -0.19418628896E+02 -0.32923886610E+02  0.47787273512E+02  0.20000011248E+02 0.  0.
        -12    1    1    2    0    0 -0.20556205924E+02  0.19418628896E+02  0.32923886610E+02  0.43400726488E+02  0.00000000000E+00 0.  1.
         11    1    3    3    0    0  0.11437620007E+02  0.38820729083E+00 -0.12974735379E+02  0.17300682493E+02  0.51100000000E-03 0.  1.
        -11    1    3    3    0    0  0.10294114751E+02 -0.16174985310E+02 -0.17441983562E+02  0.25919524284E+02  0.51100000000E-03 0. -1.
        -12    1    3    3    0    0 -0.11755288332E+01 -0.36318508775E+01 -0.25071676690E+01  0.45670667342E+01  0.00000000000E+00 0.  1.
</event>
<event>
 7    1  0.2642243E-009  0.4778727E+02  0.7816164E-02  0.1312668E+00
        -11   -1    0    0    0    0  0.00000000000E+00  0.00000000000E+00  0.45593999997E+02  0.45594000000E+02  0.51100000000E-03 0.  1.
         11   -1    0    0    0    0 -0.00000000000E+00 -0.00000000000E+00 -0.45593999997E+02  0.45594000000E+02  0.51100000000E-03 0. -1.
    9900012    2    1    2    0    0  0.37780913208E+02 -0.33841078736E+01  0.21089651213E+02  0.47787274462E+02  0.20000015584E+02 0.  0.
        -12    1    1    2    0    0 -0.37780913208E+02  0.33841078736E+01 -0.21089651213E+02  0.43400725538E+02  0.00000000000E+00 0.  1.
         11    1    3    3    0    0  0.17681842912E+02 -0.10515223194E+02  0.12868103566E+02  0.24265316343E+02  0.51100000000E-03 0. -1.
        -11    1    3    3    0    0  0.10881187254E+02  0.57751383724E+01  0.24438804321E+01  0.12558861856E+02  0.51100000000E-03 0.  1.
        -12    1    3    3    0    0  0.92178830412E+01  0.13559769475E+01  0.57776672152E+01  0.10963096264E+02  0.00000000000E+00 0.  1.
</event>
<event>
 7    1  0.2642243E-009  0.4778727E+02  0.7816164E-02  0.1312668E+00
        -11   -1    0    0    0    0  0.00000000000E+00  0.00000000000E+00  0.45593999997E+02  0.45594000000E+02  0.51100000000E-03 0.  1.
         11   -1    0    0    0    0 -0.00000000000E+00 -0.00000000000E+00 -0.45593999997E+02  0.45594000000E+02  0.51100000000E-03 0. -1.
    9900012    2    1    2    0    0 -0.40277110026E+02 -0.65426745107E+01 -0.14784139458E+02  0.47787274645E+02  0.20000016418E+02 0.  0.
        -12    1    1    2    0    0  0.40277110026E+02  0.65426745107E+01  0.14784139458E+02  0.43400725355E+02  0.00000000000E+00 0.  1.
         11    1    3    3    0    0 -0.17353518371E+02  0.13252096468E+01 -0.54149347802E+01  0.18226966270E+02  0.51100000000E-03 0. -1.
        -11    1    3    3    0    0 -0.22954690109E+02 -0.97405093397E+01 -0.10829009597E+02  0.27185708917E+02  0.51100000000E-03 0.  1.
        -12    1    3    3    0    0  0.31098454222E-01  0.18726251821E+01  0.14598049195E+01  0.23745994587E+01  0.00000000000E+00 0.  1.
</event>
<event>
 7    1  0.2642243E-009  0.4778728E+02  0.7816164E-02  0.1312668E+00
        -11   -1    0    0    0    0  0.00000000000E+00  0.00000000000E+00  0.45593999997E+02  0.45594000000E+02  0.51100000000E-03 0.  1.
         11   -1    0    0    0    0 -0.00000000000E+00 -0.00000000000E+00 -0.45593999997E+02  0.45594000000E+02  0.51100000000E-03 0. -1.
    9900012    2    1    2    0    0  0.92789410680E+01  0.42310367119E+02 -0.27123740391E+01  0.47787275513E+02  0.20000020374E+02 0.  0.
        -12    1    1    2    0    0 -0.92789410680E+01 -0.42310367119E+02  0.27123740391E+01  0.43400724487E+02  0.00000000000E+00 0.  1.
         11    1    3    3    0    0  0.56683831064E+01  0.14136811264E+02 -0.62143611691E+01  0.16449871876E+02  0.51100000000E-03 0. -1.
        -11    1    3    3    0    0 -0.71438338130E+00  0.10906644859E+02  0.72905303414E+01  0.13138381888E+02  0.51100000000E-03 0.  1.
        -12    1    3    3    0    0  0.43249413429E+01  0.17266910996E+02 -0.37885432114E+01  0.18199021749E+02  0.00000000000E+00 0.  1.
</event>
<event>
 7    1  0.2642243E-009  0.4778726E+02  0.7816164E-02  0.1312668E+00
        -11   -1    0    0    0    0  0.00000000000E+00  0.00000000000E+00  0.45593999997E+02  0.45594000000E+02  0.51100000000E-03 0.  1.
         11   -1    0    0    0    0 -0.00000000000E+00 -0.00000000000E+00 -0.45593999997E+02  0.45594000000E+02  0.51100000000E-03 0. -1.
    9900012    2    1    2    0    0 -0.35442893635E+02 -0.21914942891E+02  0.12130980820E+02  0.47787261218E+02  0.19999955199E+02 0.  0.
        -12    1    1    2    0    0  0.35442893635E+02  0.21914942891E+02 -0.12130980820E+02  0.43400738782E+02  0.00000000000E+00 0.  1.
         11    1    3    3    0    0 -0.21308436093E+02 -0.59285929980E+01  0.13667944087E+02  0.26000199220E+02  0.51100000000E-03 0. -1.
        -11    1    3    3    0    0 -0.33451544266E+01 -0.43718109476E+01 -0.21815435981E+01  0.59213108203E+01  0.51100000000E-03 0.  1.
         12    1    3    3    0    0 -0.10789303115E+02 -0.11614538946E+02  0.64458033078E+00  0.15865751178E+02  0.00000000000E+00 0. -1.
</event>
<event>
 7    1  0.2642243E-009  0.4778727E+02  0.7816164E-02  0.1312668E+00
        -11   -1    0    0    0    0  0.00000000000E+00  0.00000000000E+00  0.45593999997E+02  0.45594000000E+02  0.51100000000E-03 0. -1.
         11   -1    0    0    0    0 -0.00000000000E+00 -0.00000000000E+00 -0.45593999997E+02  0.45594000000E+02  0.51100000000E-03 0.  1.
    9900012    2    1    2    0    0  0.25724924599E+02  0.24562953656E+02  0.24869916701E+02  0.47787271957E+02  0.20000004163E+02 0.  0.
        -12    1    1    2    0    0 -0.25724924599E+02 -0.24562953656E+02 -0.24869916701E+02  0.43400728043E+02  0.00000000000E+00 0.  1.
         11    1    3    3    0    0  0.48531459262E+01  0.11676929276E+02  0.56264574322E+01  0.13840546456E+02  0.51100000000E-03 0. -1.
        -11    1    3    3    0    0  0.15510421701E+02  0.50227256900E+01  0.18101810857E+02  0.24361373345E+02  0.51100000000E-03 0.  1.
        -12    1    3    3    0    0  0.53613569717E+01  0.78632986893E+01  0.11416484114E+01  0.95853521558E+01  0.00000000000E+00 0.  1.
</event>
<event>
 7    1  0.2642243E-009  0.4778727E+02  0.7816164E-02  0.1312668E+00
        -11   -1    0    0    0    0  0.00000000000E+00  0.00000000000E+00  0.45593999997E+02  0.45594000000E+02  0.51100000000E-03 0. -1.
         11   -1    0    0    0    0 -0.00000000000E+00 -0.00000000000E+00 -0.45593999997E+02  0.45594000000E+02  0.51100000000E-03 0.  1.
    9900012    2    1    2    0    0  0.22091069826E+02 -0.17524763409E+02  0.32992278777E+02  0.47787272385E+02  0.20000006113E+02 0.  0.
        -12    1    1    2    0    0 -0.22091069826E+02  0.17524763409E+02 -0.32992278777E+02  0.43400727615E+02  0.00000000000E+00 0.  1.
         11    1    3    3    0    0 -0.80202840111E+00  0.23738050795E+01  0.59272380874E+00  0.25747857942E+01  0.51100000000E-03 0. -1.
        -11    1    3    3    0    0  0.12104040212E+02 -0.15351809634E+02  0.17296071158E+02  0.26102488890E+02  0.51100000000E-03 0.  1.
        -12    1    3    3    0    0  0.10789058014E+02 -0.45467588551E+01  0.15103483810E+02  0.19109997701E+02  0.00000000000E+00 0.  1.
</event>
<event>
 7    1  0.2642243E-009  0.4778727E+02  0.7816164E-02  0.1312668E+00
        -11   -1    0    0    0    0  0.00000000000E+00  0.00000000000E+00  0.45593999997E+02  0.45594000000E+02  0.51100000000E-03 0. -1.
         11   -1    0    0    0    0 -0.00000000000E+00 -0.00000000000E+00 -0.45593999997E+02  0.45594000000E+02  0.51100000000E-03 0.  1.
    9900012    2    1    2    0    0 -0.31829059791E+02  0.88613932127E+01  0.28142669001E+02  0.47787272410E+02  0.20000006224E+02 0.  0.
        -12    1    1    2    0    0  0.31829059791E+02 -0.88613932127E+01 -0.28142669001E+02  0.43400727590E+02  0.00000000000E+00 0.  1.
         11    1    3    3    0    0 -0.84898609768E+01 -0.48544016125E+00  0.32730484454E-01  0.85037911017E+01  0.51100000000E-03 0. -1.
        -11    1    3    3    0    0 -0.13904660641E+02  0.11862935845E+01  0.95084770473E+01  0.16886622399E+02  0.51100000000E-03 0.  1.
         12    1    3    3    0    0 -0.94345381735E+01  0.81605397895E+01  0.18601461469E+02  0.22396858909E+02  0.00000000000E+00 0. -1.
</event>
<event>
 7    1  0.2642243E-009  0.4778727E+02  0.7816164E-02  0.1312668E+00
        -11   -1    0    0    0    0  0.00000000000E+00  0.00000000000E+00  0.45593999997E+02  0.45594000000E+02  0.51100000000E-03 0.  1.
         11   -1    0    0    0    0 -0.00000000000E+00 -0.00000000000E+00 -0.45593999997E+02  0.45594000000E+02  0.51100000000E-03 0. -1.
    9900012    2    1    2    0    0  0.36098981571E+02 -0.23821004800E+02 -0.36120370126E+01  0.47787267846E+02  0.19999985416E+02 0.  0.
        -12    1    1    2    0    0 -0.36098981571E+02  0.23821004800E+02  0.36120370126E+01  0.43400732154E+02  0.00000000000E+00 0.  1.
         11    1    3    3    0    0  0.25221162127E+02 -0.80856521074E+01 -0.30112338745E+01  0.26656187251E+02  0.51100000000E-03 0. -1.
        -11    1    3    3    0    0  0.43125338229E+01 -0.76657747698E+01 -0.46725774698E+01  0.99596702388E+01  0.51100000000E-03 0.  1.
         12    1    3    3    0    0  0.65652856216E+01 -0.80695779224E+01  0.40717743317E+01  0.11171410356E+02  0.00000000000E+00 0. -1.
</event>
<event>
 7    1  0.2642243E-009  0.4778727E+02  0.7816164E-02  0.1312668E+00
        -11   -1    0    0    0    0  0.00000000000E+00  0.00000000000E+00  0.45593999997E+02  0.45594000000E+02  0.51100000000E-03 0.  1.
         11   -1    0    0    0    0 -0.00000000000E+00 -0.00000000000E+00 -0.45593999997E+02  0.45594000000E+02  0.51100000000E-03 0. -1.
    9900012    2    1    2    0    0  0.39894050835E+02  0.80014694049E+01 -0.15101792949E+02  0.47787274719E+02  0.20000016752E+02 0.  0.
        -12    1    1    2    0    0 -0.39894050835E+02 -0.80014694049E+01  0.15101792949E+02  0.43400725281E+02  0.00000000000E+00 0.  1.
         11    1    3    3    0    0  0.21283273659E+02  0.26951813576E+00 -0.13237412179E+02  0.25065503369E+02  0.51100000000E-03 0. -1.
        -11    1    3    3    0    0  0.19674983966E+02  0.65577998964E+01 -0.69210910348E+00  0.20750632492E+02  0.51100000000E-03 0.  1.
         12    1    3    3    0    0 -0.10642067898E+01  0.11741513727E+01 -0.11722716664E+01  0.19711388580E+01  0.00000000000E+00 0. -1.
</event>
<event>
 7    1  0.2642243E-009  0.4778727E+02  0.7816164E-02  0.1312668E+00
        -11   -1    0    0    0    0  0.00000000000E+00  0.00000000000E+00  0.45593999997E+02  0.45594000000E+02  0.51100000000E-03 0.  1.
         11   -1    0    0    0    0 -0.00000000000E+00 -0.00000000000E+00 -0.45593999997E+02  0.45594000000E+02  0.51100000000E-03 0. -1.
    9900012    2    1    2    0    0  0.16070771656E+02 -0.33720819523E+02 -0.22096603351E+02  0.47787271313E+02  0.20000001223E+02 0.  0.
        -12    1    1    2    0    0 -0.16070771656E+02  0.33720819523E+02  0.22096603351E+02  0.43400728687E+02  0.00000000000E+00 0.  1.
         11    1    3    3    0    0 -0.30639581872E+01 -0.29814292248E+01 -0.24889491661E+01  0.49468806543E+01  0.51100000000E-03 0. -1.
        -11    1    3    3    0    0  0.14379962307E+02 -0.12389112102E+02 -0.11726422367E+02  0.22311037547E+02  0.51100000000E-03 0.  1.
        -12    1    3    3    0    0  0.47547675362E+01 -0.18350278197E+02 -0.78812318180E+01  0.20529353112E+02  0.00000000000E+00 0.  1.
</event>
<event>
 7    1  0.2642243E-009  0.4778727E+02  0.7816164E-02  0.1312668E+00
        -11   -1    0    0    0    0  0.00000000000E+00  0.00000000000E+00  0.45593999997E+02  0.45594000000E+02  0.51100000000E-03 0.  1.
         11   -1    0    0    0    0 -0.00000000000E+00 -0.00000000000E+00 -0.45593999997E+02  0.45594000000E+02  0.51100000000E-03 0. -1.
    9900012    2    1    2    0    0 -0.22455038042E+02  0.29564340664E+02 -0.22479866743E+02  0.47787269809E+02  0.19999994367E+02 0.  0.
        -12    1    1    2    0    0  0.22455038042E+02 -0.29564340664E+02  0.22479866743E+02  0.43400730191E+02  0.00000000000E+00 0.  1.
         11    1    3    3    0    0 -0.19421991723E+02  0.22092375454E+02 -0.16804009680E+02  0.33877153914E+02  0.51100000000E-03 0. -1.
        -11    1    3    3    0    0  0.72348536382E+00 -0.21190909790E+01 -0.19089512706E+01  0.29424603418E+01  0.51100000000E-03 0.  1.
        -12    1    3    3    0    0 -0.37565316824E+01  0.95910561883E+01 -0.37669057918E+01  0.10967655553E+02  0.00000000000E+00 0.  1.
</event>
<event>
 7    1  0.2642243E-009  0.4778726E+02  0.7816164E-02  0.1312668E+00
        -11   -1    0    0    0    0  0.00000000000E+00  0.00000000000E+00  0.45593999997E+02  0.45594000000E+02  0.51100000000E-03 0.  1.
         11   -1    0    0    0    0 -0.00000000000E+00 -0.00000000000E+00 -0.45593999997E+02  0.45594000000E+02  0.51100000000E-03 0. -1.
    9900012    2    1    2    0    0  0.39813306866E+02 -0.87462904201E+01 -0.14900587096E+02  0.47787256971E+02  0.19999935833E+02 0.  0.
        -12    1    1    2    0    0 -0.39813306866E+02  0.87462904201E+01  0.14900587096E+02  0.43400743029E+02  0.00000000000E+00 0.  1.
         11    1    3    3    0    0  0.21419716054E+02 -0.24496109940E+01 -0.17344092491E+02  0.27669882082E+02  0.51100000000E-03 0. -1.
        -11    1    3    3    0    0  0.10793341369E+02 -0.59754627516E+01  0.10282461017E+01  0.12379808695E+02  0.51100000000E-03 0.  1.
         12    1    3    3    0    0  0.76002494421E+01 -0.32121667449E+00  0.14152592934E+01  0.77375661937E+01  0.00000000000E+00 0. -1.
</event>
<event>
 7    1  0.2642243E-009  0.4778727E+02  0.7816164E-02  0.1312668E+00
        -11   -1    0    0    0    0  0.00000000000E+00  0.00000000000E+00  0.45593999997E+02  0.45594000000E+02  0.51100000000E-03 0.  1.
         11   -1    0    0    0    0 -0.00000000000E+00 -0.00000000000E+00 -0.45593999997E+02  0.45594000000E+02  0.51100000000E-03 0. -1.
    9900012    2    1    2    0    0 -0.17962257601E+02 -0.12911679999E+02 -0.37339908957E+02  0.47787274437E+02  0.20000015468E+02 0.  0.
        -12    1    1    2    0    0  0.17962257601E+02  0.12911679999E+02  0.37339908957E+02  0.43400725563E+02  0.00000000000E+00 0.  1.
         11    1    3    3    0    0 -0.11618238466E+02  0.33056635258E+00 -0.20997034702E+02  0.23999337610E+02  0.51100000000E-03 0. -1.
        -11    1    3    3    0    0 -0.27689656519E+00 -0.37541697598E+01 -0.10386813656E+02  0.11047912042E+02  0.51100000000E-03 0.  1.
         12    1    3    3    0    0 -0.60671225694E+01 -0.94880765913E+01 -0.59560605986E+01  0.12740024785E+02  0.00000000000E+00 0. -1.
</event>
<event>
 7    1  0.2642243E-009  0.4778727E+02  0.7816164E-02  0.1312668E+00
        -11   -1    0    0    0    0  0.00000000000E+00  0.00000000000E+00  0.45593999997E+02  0.45594000000E+02  0.51100000000E-03 0.  1.
         11   -1    0    0    0    0 -0.00000000000E+00 -0.00000000000E+00 -0.45593999997E+02  0.45594000000E+02  0.51100000000E-03 0. -1.
    9900012    2    1    2    0    0 -0.34915023460E+01 -0.44598936026E+01 -0.43029553881E+02  0.47787265597E+02  0.19999975161E+02 0.  0.
        -12    1    1    2    0    0  0.34915023460E+01  0.44598936026E+01  0.43029553881E+02  0.43400734403E+02  0.00000000000E+00 0.  1.
         11    1    3    3    0    0 -0.64569289928E+01 -0.67974636582E+00 -0.31839047377E+02  0.32494290657E+02  0.51100000000E-03 0. -1.
        -11    1    3    3    0    0  0.16512212642E+01  0.17566962575E+01  0.33988880040E+00  0.24347562634E+01  0.51100000000E-03 0.  1.
        -12    1    3    3    0    0  0.13142053827E+01 -0.55368434943E+01 -0.11530395304E+02  0.12858218676E+02  0.00000000000E+00 0.  1.
</event>
<event>
 7    1  0.2642243E-009  0.4778726E+02  0.7816164E-02  0.1312668E+00
        -11   -1    0    0    0    0  0.00000000000E+00  0.00000000000E+00  0.45593999997E+02  0.45594000000E+02  0.51100000000E-03 0.  1.
         11   -1    0    0    0    0 -0.00000000000E+00 -0.00000000000E+00 -0.45593999997E+02  0.45594000000E+02  0.51100000000E-03 0. -1.
    9900012    2    1    2    0    0  0.26929579823E+02  0.19710530062E+02 -0.27747376688E+02  0.47787260631E+02  0.19999952519E+02 0.  0.
        -12    1    1    2    0    0 -0.26929579823E+02 -0.19710530062E+02  0.27747376688E+02  0.43400739369E+02  0.00000000000E+00 0.  1.
         11    1    3    3    0    0  0.12058079515E+02  0.93253739679E+01 -0.11727171350E+02  0.19232431707E+02  0.51100000000E-03 0. -1.
        -11    1    3    3    0    0  0.36284600191E+01  0.10924940000E+02 -0.42564282201E+01  0.12273435443E+02  0.51100000000E-03 0.  1.
        -12    1    3    3    0    0  0.11243040288E+02 -0.53978390571E+00 -0.11763777117E+02  0.16281393480E+02  0.00000000000E+00 0.  1.
</event>
<event>
 7    1  0.2642243E-009  0.4778728E+02  0.7816164E-02  0.1312668E+00
        -11   -1    0    0    0    0  0.00000000000E+00  0.00000000000E+00  0.45593999997E+02  0.45594000000E+02  0.51100000000E-03 0.  1.
         11   -1    0    0    0    0 -0.00000000000E+00 -0.00000000000E+00 -0.45593999997E+02  0.45594000000E+02  0.51100000000E-03 0. -1.
    9900012    2    1    2    0    0 -0.19391404334E+02  0.25594489071E+02 -0.29197915424E+02  0.47787277679E+02  0.20000030251E+02 0.  0.
        -12    1    1    2    0    0  0.19391404334E+02 -0.25594489071E+02  0.29197915424E+02  0.43400722321E+02  0.00000000000E+00 0.  1.
         11    1    3    3    0    0 -0.10144866772E+02  0.53663732322E+00 -0.76320754938E+01  0.12706489604E+02  0.51100000000E-03 0. -1.
        -11    1    3    3    0    0 -0.10343229824E+01  0.13022570616E+02 -0.11081536879E+02  0.17130605049E+02  0.51100000000E-03 0.  1.
         12    1    3    3    0    0 -0.82122145797E+01  0.12035281132E+02 -0.10484303052E+02  0.17950183027E+02  0.00000000000E+00 0. -1.
</event>
<event>
 7    1  0.2642243E-009  0.4778727E+02  0.7816164E-02  0.1312668E+00
        -11   -1    0    0    0    0  0.00000000000E+00  0.00000000000E+00  0.45593999997E+02  0.45594000000E+02  0.51100000000E-03 0. -1.
         11   -1    0    0    0    0 -0.00000000000E+00 -0.00000000000E+00 -0.45593999997E+02  0.45594000000E+02  0.51100000000E-03 0.  1.
    9900012    2    1    2    0    0  0.18408422618E+02 -0.27462052886E+02  0.28117409786E+02  0.47787272989E+02  0.20000008868E+02 0.  0.
        -12    1    1    2    0    0 -0.18408422618E+02  0.27462052886E+02 -0.28117409786E+02  0.43400727011E+02  0.00000000000E+00 0.  1.
         11    1    3    3    0    0  0.82061999352E+01 -0.14335445800E+02  0.15866879738E+02  0.22904248439E+02  0.51100000000E-03 0. -1.
        -11    1    3    3    0    0  0.28457634146E+01  0.27646681299E+01  0.10794279489E+01  0.41118030399E+01  0.51100000000E-03 0.  1.
        -12    1    3    3    0    0  0.73564592685E+01 -0.15891275215E+02  0.11171102099E+02  0.20771221511E+02  0.00000000000E+00 0.  1.
</event>
<event>
 7    1  0.2642243E-009  0.4778727E+02  0.7816164E-02  0.1312668E+00
        -11   -1    0    0    0    0  0.00000000000E+00  0.00000000000E+00  0.45593999997E+02  0.45594000000E+02  0.51100000000E-03 0.  1.
         11   -1    0    0    0    0 -0.00000000000E+00 -0.00000000000E+00 -0.45593999997E+02  0.45594000000E+02  0.51100000000E-03 0. -1.
    9900012    2    1    2    0    0  0.98937449208E+00 -0.59758767262E+01 -0.42975960653E+02  0.47787272373E+02  0.20000006056E+02 0.  0.
        -12    1    1    2    0    0 -0.98937449208E+00  0.59758767262E+01  0.42975960653E+02  0.43400727627E+02  0.00000000000E+00 0.  1.
         11    1    3    3    0    0 -0.83868487653E+00 -0.24648188912E+01 -0.37237432642E+02  0.37328341974E+02  0.51100000000E-03 0. -1.
        -11    1    3    3    0    0  0.18349493716E+01 -0.58159212736E+01 -0.53679398710E+01  0.81244543310E+01  0.51100000000E-03 0.  1.
         12    1    3    3    0    0 -0.68900029546E-02  0.23048634387E+01 -0.37058814025E+00  0.23344760681E+01  0.00000000000E+00 0. -1.
</event>
<event>
 7    1  0.2642243E-009  0.4778727E+02  0.7816164E-02  0.1312668E+00
        -11   -1    0    0    0    0  0.00000000000E+00  0.00000000000E+00  0.45593999997E+02  0.45594000000E+02  0.51100000000E-03 0.  1.
         11   -1    0    0    0    0 -0.00000000000E+00 -0.00000000000E+00 -0.45593999997E+02  0.45594000000E+02  0.51100000000E-03 0. -1.
    9900012    2    1    2    0    0 -0.25551604860E+02  0.34587225737E+02 -0.58705060986E+01  0.47787268013E+02  0.19999986180E+02 0.  0.
        -12    1    1    2    0    0  0.25551604860E+02 -0.34587225737E+02  0.58705060986E+01  0.43400731987E+02  0.00000000000E+00 0.  1.
         11    1    3    3    0    0 -0.52407434931E+01  0.26344581514E+01  0.44478711510E+01  0.73613395622E+01  0.51100000000E-03 0. -1.
        -11    1    3    3    0    0 -0.72747243025E+01  0.13003524151E+02  0.71264712909E+00  0.14917141824E+02  0.51100000000E-03 0.  1.
         12    1    3    3    0    0 -0.13036137065E+02  0.18949243435E+02 -0.11031024379E+02  0.25508786627E+02  0.00000000000E+00 0. -1.
</event>
<event>
 7    1  0.2642243E-009  0.4778727E+02  0.7816164E-02  0.1312668E+00
        -11   -1    0    0    0    0  0.00000000000E+00  0.00000000000E+00  0.45593999997E+02  0.45594000000E+02  0.51100000000E-03 0.  1.
         11   -1    0    0    0    0 -0.00000000000E+00 -0.00000000000E+00 -0.45593999997E+02  0.45594000000E+02  0.51100000000E-03 0. -1.
    9900012    2    1    2    0    0  0.21724657155E+02 -0.30667652763E+02 -0.21706168283E+02  0.47787269637E+02  0.19999993584E+02 0.  0.
        -12    1    1    2    0    0 -0.21724657155E+02  0.30667652763E+02  0.21706168283E+02  0.43400730363E+02  0.00000000000E+00 0.  1.
         11    1    3    3    0    0  0.11693471482E+02 -0.57549207079E+01 -0.14257597746E+02  0.19316715078E+02  0.51100000000E-03 0. -1.
        -11    1    3    3    0    0  0.22851144153E+01 -0.12296842657E+02 -0.49784590623E+01  0.13461765936E+02  0.51100000000E-03 0.  1.
         12    1    3    3    0    0  0.77460712572E+01 -0.12615889398E+02 -0.24701114750E+01  0.15008788623E+02  0.00000000000E+00 0. -1.
</event>
<event>
 7    1  0.2642243E-009  0.4778727E+02  0.7816164E-02  0.1312668E+00
        -11   -1    0    0    0    0  0.00000000000E+00  0.00000000000E+00  0.45593999997E+02  0.45594000000E+02  0.51100000000E-03 0. -1.
         11   -1    0    0    0    0 -0.00000000000E+00 -0.00000000000E+00 -0.45593999997E+02  0.45594000000E+02  0.51100000000E-03 0.  1.
    9900012    2    1    2    0    0 -0.16522834041E+02  0.27663544119E+02  0.29074863142E+02  0.47787269768E+02  0.19999994178E+02 0.  0.
        -12    1    1    2    0    0  0.16522834041E+02 -0.27663544119E+02 -0.29074863142E+02  0.43400730232E+02  0.00000000000E+00 0.  1.
         11    1    3    3    0    0 -0.17881486274E+01  0.18079419305E+02  0.19029323284E+02  0.26309276365E+02  0.51100000000E-03 0. -1.
        -11    1    3    3    0    0 -0.11187170374E+02  0.83900734898E+01  0.43169920579E+01  0.14634976421E+02  0.51100000000E-03 0.  1.
         12    1    3    3    0    0 -0.35475150391E+01  0.11940513241E+01  0.57285477998E+01  0.68430169817E+01  0.00000000000E+00 0. -1.
</event>
<event>
 7    1  0.2642243E-009  0.4778727E+02  0.7816164E-02  0.1312668E+00
        -11   -1    0    0    0    0  0.00000000000E+00  0.00000000000E+00  0.45593999997E+02  0.45594000000E+02  0.51100000000E-03 0. -1.
         11   -1    0    0    0    0 -0.00000000000E+00 -0.00000000000E+00 -0.45593999997E+02  0.45594000000E+02  0.51100000000E-03 0.  1.
    9900012    2    1    2    0    0 -0.84611793517E+01  0.19684773714E+01  0.42522428313E+02  0.47787269950E+02  0.19999995012E+02 0.  0.
        -12    1    1    2    0    0  0.84611793517E+01 -0.19684773714E+01 -0.42522428313E+02  0.43400730050E+02  0.00000000000E+00 0.  1.
         11    1    3    3    0    0  0.57607622163E+01  0.18781153418E+01  0.20103136026E+02  0.20996422955E+02  0.51100000000E-03 0. -1.
        -11    1    3    3    0    0 -0.83542467020E+01 -0.15754767157E+01  0.11784397299E+02  0.14530918237E+02  0.51100000000E-03 0.  1.
         12    1    3    3    0    0 -0.58676948660E+01  0.16658387453E+01  0.10634894988E+02  0.12259928759E+02  0.00000000000E+00 0. -1.
</event>
<event>
 7    1  0.2642243E-009  0.4778727E+02  0.7816164E-02  0.1312668E+00
        -11   -1    0    0    0    0  0.00000000000E+00  0.00000000000E+00  0.45593999997E+02  0.45594000000E+02  0.51100000000E-03 0.  1.
         11   -1    0    0    0    0 -0.00000000000E+00 -0.00000000000E+00 -0.45593999997E+02  0.45594000000E+02  0.51100000000E-03 0. -1.
    9900012    2    1    2    0    0 -0.17772501247E+00 -0.14947861816E+02 -0.40744974783E+02  0.47787272712E+02  0.20000007604E+02 0.  0.
        -12    1    1    2    0    0  0.17772501247E+00  0.14947861816E+02  0.40744974783E+02  0.43400727288E+02  0.00000000000E+00 0.  1.
         11    1    3    3    0    0 -0.57543767657E+01 -0.31195715946E+01 -0.15999896240E+02  0.17287025738E+02  0.51100000000E-03 0. -1.
        -11    1    3    3    0    0  0.81405780814E+01 -0.93770471006E+01 -0.11991257942E+02  0.17262337360E+02  0.51100000000E-03 0.  1.
        -12    1    3    3    0    0 -0.25639263282E+01 -0.24512431204E+01 -0.12753820601E+02  0.13237909615E+02  0.00000000000E+00 0.  1.
</event>
<event>
 7    1  0.2642243E-009  0.4778727E+02  0.7816164E-02  0.1312668E+00
        -11   -1    0    0    0    0  0.00000000000E+00  0.00000000000E+00  0.45593999997E+02  0.45594000000E+02  0.51100000000E-03 0. -1.
         11   -1    0    0    0    0 -0.00000000000E+00 -0.00000000000E+00 -0.45593999997E+02  0.45594000000E+02  0.51100000000E-03 0.  1.
    9900012    2    1    2    0    0 -0.25451624258E+02 -0.48388082991E+01  0.34819881218E+02  0.47787269924E+02  0.19999994892E+02 0.  0.
        -12    1    1    2    0    0  0.25451624258E+02  0.48388082991E+01 -0.34819881218E+02  0.43400730076E+02  0.00000000000E+00 0.  1.
         11    1    3    3    0    0 -0.15452336174E+02 -0.21707522074E+01  0.23219542499E+02  0.27975596732E+02  0.51100000000E-03 0. -1.
        -11    1    3    3    0    0 -0.64399067937E+01  0.16041363978E+01 -0.33438390053E+00  0.66451084226E+01  0.51100000000E-03 0.  1.
        -12    1    3    3    0    0 -0.35593812897E+01 -0.42721924894E+01  0.11934722619E+02  0.13166564770E+02  0.00000000000E+00 0.  1.
</event>
<event>
 7    1  0.2642243E-009  0.4778727E+02  0.7816164E-02  0.1312668E+00
        -11   -1    0    0    0    0  0.00000000000E+00  0.00000000000E+00  0.45593999997E+02  0.45594000000E+02  0.51100000000E-03 0.  1.
         11   -1    0    0    0    0 -0.00000000000E+00 -0.00000000000E+00 -0.45593999997E+02  0.45594000000E+02  0.51100000000E-03 0. -1.
    9900012    2    1    2    0    0 -0.93445443341E+00 -0.22342646403E+02 -0.37196190587E+02  0.47787266740E+02  0.19999980373E+02 0.  0.
        -12    1    1    2    0    0  0.93445443341E+00  0.22342646403E+02  0.37196190587E+02  0.43400733260E+02  0.00000000000E+00 0.  1.
         11    1    3    3    0    0  0.50723544315E-01 -0.16050078748E+02 -0.12437791622E+02  0.20305325937E+02  0.51100000000E-03 0. -1.
        -11    1    3    3    0    0  0.24471148239E+01 -0.11567621342E+01 -0.92404085143E+00  0.28601261079E+01  0.51100000000E-03 0.  1.
         12    1    3    3    0    0 -0.34322928017E+01 -0.51358055209E+01 -0.23834358113E+02  0.24621814695E+02  0.00000000000E+00 0. -1.
</event>
<event>
 7    1  0.2642243E-009  0.4778727E+02  0.7816164E-02  0.1312668E+00
        -11   -1    0    0    0    0  0.00000000000E+00  0.00000000000E+00  0.45593999997E+02  0.45594000000E+02  0.51100000000E-03 0.  1.
         11   -1    0    0    0    0 -0.00000000000E+00 -0.00000000000E+00 -0.45593999997E+02  0.45594000000E+02  0.51100000000E-03 0. -1.
    9900012    2    1    2    0    0 -0.15341162335E+02 -0.33624605788E+02 -0.22752098619E+02  0.47787269962E+02  0.19999995066E+02 0.  0.
        -12    1    1    2    0    0  0.15341162335E+02  0.33624605788E+02  0.22752098619E+02  0.43400730038E+02  0.00000000000E+00 0.  1.
         11    1    3    3    0    0 -0.69500021997E+01 -0.17869516347E+02 -0.19218313329E+02  0.27147112416E+02  0.51100000000E-03 0. -1.
        -11    1    3    3    0    0 -0.53709176474E+01 -0.58605324244E+01  0.28949963799E+01  0.84601182600E+01  0.51100000000E-03 0.  1.
        -12    1    3    3    0    0 -0.30202424882E+01 -0.98945570173E+01 -0.64287816701E+01  0.12180039286E+02  0.00000000000E+00 0.  1.
</event>
<event>
 7    1  0.2642243E-009  0.4778727E+02  0.7816164E-02  0.1312668E+00
        -11   -1    0    0    0    0  0.00000000000E+00  0.00000000000E+00  0.45593999997E+02  0.45594000000E+02  0.51100000000E-03 0.  1.
         11   -1    0    0    0    0 -0.00000000000E+00 -0.00000000000E+00 -0.45593999997E+02  0.45594000000E+02  0.51100000000E-03 0. -1.
    9900012    2    1    2    0    0  0.16408197193E+02 -0.30452045795E+02 -0.26211971360E+02  0.47787268775E+02  0.19999989654E+02 0.  0.
        -12    1    1    2    0    0 -0.16408197193E+02  0.30452045795E+02  0.26211971360E+02  0.43400731225E+02  0.00000000000E+00 0.  1.
         11    1    3    3    0    0  0.16294916571E+01 -0.26431389920E+01 -0.96899351429E+01  0.10175277398E+02  0.51100000000E-03 0. -1.
        -11    1    3    3    0    0  0.13457113149E+02 -0.17282545437E+02 -0.60935412538E+01  0.22735688166E+02  0.51100000000E-03 0.  1.
         12    1    3    3    0    0  0.13215923874E+01 -0.10526361366E+02 -0.10428494963E+02  0.14876303212E+02  0.00000000000E+00 0. -1.
</event>
<event>
 7    1  0.2642243E-009  0.4778727E+02  0.7816164E-02  0.1312668E+00
        -11   -1    0    0    0    0  0.00000000000E+00  0.00000000000E+00  0.45593999997E+02  0.45594000000E+02  0.51100000000E-03 0. -1.
         11   -1    0    0    0    0 -0.00000000000E+00 -0.00000000000E+00 -0.45593999997E+02  0.45594000000E+02  0.51100000000E-03 0.  1.
    9900012    2    1    2    0    0  0.30840213008E+02  0.18993920173E+02  0.23910986654E+02  0.47787273915E+02  0.20000013087E+02 0.  0.
        -12    1    1    2    0    0 -0.30840213008E+02 -0.18993920173E+02 -0.23910986654E+02  0.43400726085E+02  0.00000000000E+00 0.  1.
         11    1    3    3    0    0  0.64270098309E+01 -0.18363484661E+01 -0.40070512178E+00  0.66962075768E+01  0.51100000000E-03 0.  1.
        -11    1    3    3    0    0  0.15622812516E+02  0.10440391361E+02  0.18244409877E+02  0.26190313758E+02  0.51100000000E-03 0. -1.
         12    1    3    3    0    0  0.87903906611E+01  0.10389877278E+02  0.60672818988E+01  0.14900752580E+02  0.00000000000E+00 0. -1.
</event>
<event>
 7    1  0.2642243E-009  0.4778727E+02  0.7816164E-02  0.1312668E+00
        -11   -1    0    0    0    0  0.00000000000E+00  0.00000000000E+00  0.45593999997E+02  0.45594000000E+02  0.51100000000E-03 0.  1.
         11   -1    0    0    0    0 -0.00000000000E+00 -0.00000000000E+00 -0.45593999997E+02  0.45594000000E+02  0.51100000000E-03 0. -1.
    9900012    2    1    2    0    0 -0.20001808225E+02 -0.14967931298E+02 -0.35489602739E+02  0.47787271870E+02  0.20000003765E+02 0.  0.
        -12    1    1    2    0    0  0.20001808225E+02  0.14967931298E+02  0.35489602739E+02  0.43400728130E+02  0.00000000000E+00 0.  1.
         11    1    3    3    0    0 -0.89217672246E+01 -0.99153828225E+01 -0.17254817509E+02  0.21809206186E+02  0.51100000000E-03 0. -1.
        -11    1    3    3    0    0 -0.12520448656E+02 -0.66514722277E+01 -0.97053147616E+01  0.17181293671E+02  0.51100000000E-03 0.  1.
         12    1    3    3    0    0  0.14404076553E+01  0.15989237521E+01 -0.85294704685E+01  0.87967720132E+01  0.00000000000E+00 0. -1.
</event>
<event>
 7    1  0.2642243E-009  0.4778727E+02  0.7816164E-02  0.1312668E+00
        -11   -1    0    0    0    0  0.00000000000E+00  0.00000000000E+00  0.45593999997E+02  0.45594000000E+02  0.51100000000E-03 0.  1.
         11   -1    0    0    0    0 -0.00000000000E+00 -0.00000000000E+00 -0.45593999997E+02  0.45594000000E+02  0.51100000000E-03 0. -1.
    9900012    2    1    2    0    0  0.24778030957E+02 -0.35607185084E+02 -0.13418500183E+01  0.47787274094E+02  0.20000013904E+02 0.  0.
        -12    1    1    2    0    0 -0.24778030957E+02  0.35607185084E+02  0.13418500183E+01  0.43400725906E+02  0.00000000000E+00 0.  1.
         11    1    3    3    0    0  0.17094296940E+02 -0.30798371173E+02 -0.77001202367E+01  0.36056157680E+02  0.51100000000E-03 0. -1.
        -11    1    3    3    0    0  0.73521773993E+01 -0.47990754762E+01  0.68514369361E+01  0.11136778093E+02  0.51100000000E-03 0.  1.
         12    1    3    3    0    0  0.33155661829E+00 -0.97384349038E-02 -0.49316671762E+00  0.59433832084E+00  0.00000000000E+00 0. -1.
</event>
<event>
 7    1  0.2642243E-009  0.4778727E+02  0.7816164E-02  0.1312668E+00
        -11   -1    0    0    0    0  0.00000000000E+00  0.00000000000E+00  0.45593999997E+02  0.45594000000E+02  0.51100000000E-03 0. -1.
         11   -1    0    0    0    0 -0.00000000000E+00 -0.00000000000E+00 -0.45593999997E+02  0.45594000000E+02  0.51100000000E-03 0.  1.
    9900012    2    1    2    0    0 -0.22711240636E+02  0.74422396637E+01  0.36227555080E+02  0.47787272708E+02  0.20000007584E+02 0.  0.
        -12    1    1    2    0    0  0.22711240636E+02 -0.74422396637E+01 -0.36227555080E+02  0.43400727292E+02  0.00000000000E+00 0.  1.
         11    1    3    3    0    0 -0.18829949745E+02 -0.21009917484E+01  0.25600702148E+02  0.31849287660E+02  0.51100000000E-03 0. -1.
        -11    1    3    3    0    0 -0.38848573857E+01  0.85596544634E+01  0.58739202001E+01  0.11084346630E+02  0.51100000000E-03 0.  1.
        -12    1    3    3    0    0  0.35664947044E-02  0.98357694872E+00  0.47529327320E+01  0.48536384176E+01  0.00000000000E+00 0.  1.
</event>
<event>
 7    1  0.2642243E-009  0.4778727E+02  0.7816164E-02  0.1312668E+00
        -11   -1    0    0    0    0  0.00000000000E+00  0.00000000000E+00  0.45593999997E+02  0.45594000000E+02  0.51100000000E-03 0.  1.
         11   -1    0    0    0    0 -0.00000000000E+00 -0.00000000000E+00 -0.45593999997E+02  0.45594000000E+02  0.51100000000E-03 0. -1.
    9900012    2    1    2    0    0 -0.17763097750E+02  0.14553797871E+02 -0.36827741424E+02  0.47787271751E+02  0.20000003222E+02 0.  0.
        -12    1    1    2    0    0  0.17763097750E+02 -0.14553797871E+02  0.36827741424E+02  0.43400728249E+02  0.00000000000E+00 0.  1.
         11    1    3    3    0    0 -0.39337589446E+01  0.99662832481E+00 -0.13772857887E+02  0.14358249966E+02  0.51100000000E-03 0. -1.
        -11    1    3    3    0    0 -0.13611762402E+02  0.87284515796E+01 -0.88694830896E+01  0.18442713282E+02  0.51100000000E-03 0.  1.
        -12    1    3    3    0    0 -0.21757640288E+00  0.48287179664E+01 -0.14185400448E+02  0.14986308503E+02  0.00000000000E+00 0.  1.
</event>
<event>
 7    1  0.2642243E-009  0.4778728E+02  0.7816164E-02  0.1312668E+00
        -11   -1    0    0    0    0  0.00000000000E+00  0.00000000000E+00  0.45593999997E+02  0.45594000000E+02  0.51100000000E-03 0.  1.
         11   -1    0    0    0    0 -0.00000000000E+00 -0.00000000000E+00 -0.45593999997E+02  0.45594000000E+02  0.51100000000E-03 0. -1.
    9900012    2    1    2    0    0 -0.11308031087E+02 -0.20313748053E+02 -0.36648368478E+02  0.47787276053E+02  0.20000022837E+02 0.  0.
        -12    1    1    2    0    0  0.11308031087E+02  0.20313748053E+02  0.36648368478E+02  0.43400723947E+02  0.00000000000E+00 0.  1.
         11    1    3    3    0    0 -0.30384267539E+01 -0.56908620153E+01 -0.24906487198E+02  0.25728409442E+02  0.51100000000E-03 0. -1.
        -11    1    3    3    0    0 -0.61784904577E+01 -0.13873765574E+02 -0.67988655615E+01  0.16639702183E+02  0.51100000000E-03 0.  1.
        -12    1    3    3    0    0 -0.20911138754E+01 -0.74912046306E+00 -0.49430157182E+01  0.54191644281E+01  0.00000000000E+00 0.  1.
</event>
<event>
 7    1  0.2642243E-009  0.4778727E+02  0.7816164E-02  0.1312668E+00
        -11   -1    0    0    0    0  0.00000000000E+00  0.00000000000E+00  0.45593999997E+02  0.45594000000E+02  0.51100000000E-03 0. -1.
         11   -1    0    0    0    0 -0.00000000000E+00 -0.00000000000E+00 -0.45593999997E+02  0.45594000000E+02  0.51100000000E-03 0.  1.
    9900012    2    1    2    0    0 -0.63370369192E+01 -0.41481170150E+02  0.11080515902E+02  0.47787270207E+02  0.19999996180E+02 0.  0.
        -12    1    1    2    0    0  0.63370369192E+01  0.41481170150E+02 -0.11080515902E+02  0.43400729793E+02  0.00000000000E+00 0.  1.
         11    1    3    3    0    0 -0.30015571652E+01 -0.10206436184E+01  0.21095029376E+01  0.38080259606E+01  0.51100000000E-03 0. -1.
        -11    1    3    3    0    0 -0.35781024339E+01 -0.39786093666E+02  0.53681102058E+01  0.40305739959E+02  0.51100000000E-03 0.  1.
        -12    1    3    3    0    0  0.24262267995E+00 -0.67443286584E+00  0.36029027589E+01  0.36735042869E+01  0.00000000000E+00 0.  1.
</event>
<event>
 7    1  0.2642243E-009  0.4778727E+02  0.7816164E-02  0.1312668E+00
        -11   -1    0    0    0    0  0.00000000000E+00  0.00000000000E+00  0.45593999997E+02  0.45594000000E+02  0.51100000000E-03 0. -1.
         11   -1    0    0    0    0 -0.00000000000E+00 -0.00000000000E+00 -0.45593999997E+02  0.45594000000E+02  0.51100000000E-03 0.  1.
    9900012    2    1    2    0    0 -0.42015252782E+02 -0.96940075339E+01 -0.49363786326E+01  0.47787273250E+02  0.20000010056E+02 0.  0.
        -12    1    1    2    0    0  0.42015252782E+02  0.96940075339E+01  0.49363786326E+01  0.43400726750E+02  0.00000000000E+00 0.  1.
         11    1    3    3    0    0 -0.60320551116E+01  0.55086228608E+01  0.17676184305E+00  0.81707930889E+01  0.51100000000E-03 0. -1.
        -11    1    3    3    0    0 -0.12285950925E+02 -0.63407500188E+01 -0.35176807217E+01  0.14266176042E+02  0.51100000000E-03 0.  1.
         12    1    3    3    0    0 -0.23697246745E+02 -0.88618803759E+01 -0.15954597540E+01  0.25350304119E+02  0.00000000000E+00 0. -1.
</event>
<event>
 7    1  0.2642243E-009  0.4778727E+02  0.7816164E-02  0.1312668E+00
        -11   -1    0    0    0    0  0.00000000000E+00  0.00000000000E+00  0.45593999997E+02  0.45594000000E+02  0.51100000000E-03 0.  1.
         11   -1    0    0    0    0 -0.00000000000E+00 -0.00000000000E+00 -0.45593999997E+02  0.45594000000E+02  0.51100000000E-03 0. -1.
    9900012    2    1    2    0    0 -0.11689478126E+02  0.31148156407E+02 -0.27870618688E+02  0.47787274978E+02  0.20000017933E+02 0.  0.
        -12    1    1    2    0    0  0.11689478126E+02 -0.31148156407E+02  0.27870618688E+02  0.43400725022E+02  0.00000000000E+00 0.  1.
         11    1    3    3    0    0 -0.93633655497E+01  0.24837964694E+02 -0.15006137698E+02  0.30492314990E+02  0.51100000000E-03 0. -1.
        -11    1    3    3    0    0  0.34358482621E+01  0.10362643567E+01 -0.54479358642E+01  0.65237184595E+01  0.51100000000E-03 0.  1.
         12    1    3    3    0    0 -0.57619608384E+01  0.52739273559E+01 -0.74165451260E+01  0.10771241528E+02  0.00000000000E+00 0. -1.
</event>
<event>
 7    1  0.2642243E-009  0.4778724E+02  0.7816164E-02  0.1312668E+00
        -11   -1    0    0    0    0  0.00000000000E+00  0.00000000000E+00  0.45593999997E+02  0.45594000000E+02  0.51100000000E-03 0.  1.
         11   -1    0    0    0    0 -0.00000000000E+00 -0.00000000000E+00 -0.45593999997E+02  0.45594000000E+02  0.51100000000E-03 0. -1.
    9900012    2    1    2    0    0 -0.37185343571E+02 -0.15046404979E+02 -0.16567495021E+02  0.47787239977E+02  0.19999858351E+02 0.  0.
        -12    1    1    2    0    0  0.37185343571E+02  0.15046404979E+02  0.16567495021E+02  0.43400760023E+02  0.00000000000E+00 0.  1.
         11    1    3    3    0    0 -0.18330479748E+02 -0.18798555971E+01 -0.10544102963E+02  0.21230130768E+02  0.51100000000E-03 0. -1.
        -11    1    3    3    0    0 -0.12441955502E+02 -0.12882275312E+02 -0.23144729923E+00  0.17911137374E+02  0.51100000000E-03 0.  1.
        -12    1    3    3    0    0 -0.64129083214E+01 -0.28427406973E+00 -0.57919447587E+01  0.86459718350E+01  0.00000000000E+00 0.  1.
</event>
<event>
 7    1  0.2642243E-009  0.4778727E+02  0.7816164E-02  0.1312668E+00
        -11   -1    0    0    0    0  0.00000000000E+00  0.00000000000E+00  0.45593999997E+02  0.45594000000E+02  0.51100000000E-03 0.  1.
         11   -1    0    0    0    0 -0.00000000000E+00 -0.00000000000E+00 -0.45593999997E+02  0.45594000000E+02  0.51100000000E-03 0. -1.
    9900012    2    1    2    0    0 -0.42966479891E+01 -0.37275671863E+02 -0.21810230753E+02  0.47787273482E+02  0.20000011115E+02 0.  0.
        -12    1    1    2    0    0  0.42966479891E+01  0.37275671863E+02  0.21810230753E+02  0.43400726518E+02  0.00000000000E+00 0.  1.
         11    1    3    3    0    0  0.14058723609E+00 -0.69542306973E+01  0.18395210880E+01  0.71947847401E+01  0.51100000000E-03 0.  1.
        -11    1    3    3    0    0 -0.18414061680E+01 -0.29251972760E+02 -0.23836285058E+02  0.37778792631E+02  0.51100000000E-03 0. -1.
         12    1    3    3    0    0 -0.25958290572E+01 -0.10694684056E+01  0.18653321740E+00  0.28136961112E+01  0.00000000000E+00 0. -1.
</event>
<event>
 7    1  0.2642243E-009  0.4778727E+02  0.7816164E-02  0.1312668E+00
        -11   -1    0    0    0    0  0.00000000000E+00  0.00000000000E+00  0.45593999997E+02  0.45594000000E+02  0.51100000000E-03 0.  1.
         11   -1    0    0    0    0 -0.00000000000E+00 -0.00000000000E+00 -0.45593999997E+02  0.45594000000E+02  0.51100000000E-03 0. -1.
    9900012    2    1    2    0    0  0.27245866888E+02 -0.27376502053E+02 -0.19794263791E+02  0.47787274129E+02  0.20000014062E+02 0.  0.
        -12    1    1    2    0    0 -0.27245866888E+02  0.27376502053E+02  0.19794263791E+02  0.43400725871E+02  0.00000000000E+00 0.  1.
         11    1    3    3    0    0  0.17736382842E+02 -0.16289667402E+02 -0.28268936514E+01  0.24247141447E+02  0.51100000000E-03 0. -1.
        -11    1    3    3    0    0  0.10315051384E+02 -0.94034717055E+01 -0.12652912098E+02  0.18839367027E+02  0.51100000000E-03 0.  1.
         12    1    3    3    0    0 -0.80556733765E+00 -0.16833629452E+01 -0.43144580420E+01  0.47007656543E+01  0.00000000000E+00 0. -1.
</event>
<event>
 7    1  0.2642243E-009  0.4778726E+02  0.7816164E-02  0.1312668E+00
        -11   -1    0    0    0    0  0.00000000000E+00  0.00000000000E+00  0.45593999997E+02  0.45594000000E+02  0.51100000000E-03 0.  1.
         11   -1    0    0    0    0 -0.00000000000E+00 -0.00000000000E+00 -0.45593999997E+02  0.45594000000E+02  0.51100000000E-03 0. -1.
    9900012    2    1    2    0    0  0.12279772173E+02 -0.32841387945E+02 -0.25578796745E+02  0.47787257959E+02  0.19999940338E+02 0.  0.
        -12    1    1    2    0    0 -0.12279772173E+02  0.32841387945E+02  0.25578796745E+02  0.43400742041E+02  0.00000000000E+00 0.  1.
         11    1    3    3    0    0  0.99559872112E+01 -0.28097034977E+02 -0.24967549784E+02  0.38883718936E+02  0.51100000000E-03 0. -1.
        -11    1    3    3    0    0  0.45746251799E+01 -0.36202681646E+01  0.99574515760E+00  0.59181961610E+01  0.51100000000E-03 0.  1.
        -12    1    3    3    0    0 -0.22508402180E+01 -0.11240848035E+01 -0.16069921186E+01  0.29853428616E+01  0.00000000000E+00 0.  1.
</event>
<event>
 7    1  0.2642243E-009  0.4778727E+02  0.7816164E-02  0.1312668E+00
        -11   -1    0    0    0    0  0.00000000000E+00  0.00000000000E+00  0.45593999997E+02  0.45594000000E+02  0.51100000000E-03 0. -1.
         11   -1    0    0    0    0 -0.00000000000E+00 -0.00000000000E+00 -0.45593999997E+02  0.45594000000E+02  0.51100000000E-03 0.  1.
    9900012    2    1    2    0    0  0.14284272568E+02  0.99856816127E+01  0.39747564422E+02  0.47787272385E+02  0.20000006110E+02 0.  0.
        -12    1    1    2    0    0 -0.14284272568E+02 -0.99856816127E+01 -0.39747564422E+02  0.43400727615E+02  0.00000000000E+00 0.  1.
         11    1    3    3    0    0 -0.25689053707E+01  0.13831618042E+01 -0.44295176357E+00  0.29510367511E+01  0.51100000000E-03 0. -1.
        -11    1    3    3    0    0  0.16110989665E+01  0.22411175642E+01  0.26646162862E+01  0.38364603517E+01  0.51100000000E-03 0.  1.
         12    1    3    3    0    0  0.15242078972E+02  0.63614022443E+01  0.37525899899E+02  0.40999775282E+02  0.00000000000E+00 0. -1.
</event>
<event>
 7    1  0.2642243E-009  0.4778726E+02  0.7816164E-02  0.1312668E+00
        -11   -1    0    0    0    0  0.00000000000E+00  0.00000000000E+00  0.45593999997E+02  0.45594000000E+02  0.51100000000E-03 0.  1.
         11   -1    0    0    0    0 -0.00000000000E+00 -0.00000000000E+00 -0.45593999997E+02  0.45594000000E+02  0.51100000000E-03 0. -1.
    9900012    2    1    2    0    0 -0.21579667526E+02 -0.31639784695E+02 -0.20417292432E+02  0.47787264334E+02  0.19999969405E+02 0.  0.
        -12    1    1    2    0    0  0.21579667526E+02  0.31639784695E+02  0.20417292432E+02  0.43400735666E+02  0.00000000000E+00 0.  1.
         11    1    3    3    0    0  0.91976690415E+00 -0.95102799890E+01 -0.11062745352E+02  0.14617651371E+02  0.51100000000E-03 0. -1.
        -11    1    3    3    0    0 -0.65865073234E+01 -0.40261647007E+01 -0.23604897289E+01  0.80724217518E+01  0.51100000000E-03 0.  1.
         12    1    3    3    0    0 -0.15912927107E+02 -0.18103340005E+02 -0.69940573512E+01  0.25097191211E+02  0.00000000000E+00 0. -1.
</event>
<event>
 7    1  0.2642243E-009  0.4778727E+02  0.7816164E-02  0.1312668E+00
        -11   -1    0    0    0    0  0.00000000000E+00  0.00000000000E+00  0.45593999997E+02  0.45594000000E+02  0.51100000000E-03 0.  1.
         11   -1    0    0    0    0 -0.00000000000E+00 -0.00000000000E+00 -0.45593999997E+02  0.45594000000E+02  0.51100000000E-03 0. -1.
    9900012    2    1    2    0    0  0.12397215732E+02  0.15936370912E+02 -0.38418279433E+02  0.47787273389E+02  0.20000010692E+02 0.  0.
        -12    1    1    2    0    0 -0.12397215732E+02 -0.15936370912E+02  0.38418279433E+02  0.43400726611E+02  0.00000000000E+00 0.  1.
         11    1    3    3    0    0  0.15903455004E+01  0.83136713102E+01 -0.16006412370E+02  0.18106671883E+02  0.51100000000E-03 0. -1.
        -11    1    3    3    0    0  0.33259509730E+01  0.36205820955E+01 -0.20369045217E+02  0.20953963060E+02  0.51100000000E-03 0.  1.
        -12    1    3    3    0    0  0.74809192589E+01  0.40021175059E+01 -0.20428218461E+01  0.87266384470E+01  0.00000000000E+00 0.  1.
</event>
<event>
 7    1  0.2642243E-009  0.4778727E+02  0.7816164E-02  0.1312668E+00
        -11   -1    0    0    0    0  0.00000000000E+00  0.00000000000E+00  0.45593999997E+02  0.45594000000E+02  0.51100000000E-03 0. -1.
         11   -1    0    0    0    0 -0.00000000000E+00 -0.00000000000E+00 -0.45593999997E+02  0.45594000000E+02  0.51100000000E-03 0.  1.
    9900012    2    1    2    0    0 -0.39712774198E+02 -0.16407326458E+02  0.61088837476E+01  0.47787271243E+02  0.20000000904E+02 0.  0.
        -12    1    1    2    0    0  0.39712774198E+02  0.16407326458E+02 -0.61088837476E+01  0.43400728757E+02  0.00000000000E+00 0.  1.
         11    1    3    3    0    0 -0.64493665069E+01  0.34986033847E+01  0.25163392547E+01  0.77567079028E+01  0.51100000000E-03 0.  1.
        -11    1    3    3    0    0 -0.21783198106E+02 -0.16577910956E+02  0.55152304938E+01  0.27924050907E+02  0.51100000000E-03 0. -1.
         12    1    3    3    0    0 -0.11480209585E+02 -0.33280188868E+01 -0.19226860009E+01  0.12106512433E+02  0.00000000000E+00 0. -1.
</event>
<event>
 7    1  0.2642243E-009  0.4778727E+02  0.7816164E-02  0.1312668E+00
        -11   -1    0    0    0    0  0.00000000000E+00  0.00000000000E+00  0.45593999997E+02  0.45594000000E+02  0.51100000000E-03 0. -1.
         11   -1    0    0    0    0 -0.00000000000E+00 -0.00000000000E+00 -0.45593999997E+02  0.45594000000E+02  0.51100000000E-03 0.  1.
    9900012    2    1    2    0    0 -0.18079778412E+00  0.28552285102E+02  0.32685739972E+02  0.47787271090E+02  0.20000000210E+02 0.  0.
        -12    1    1    2    0    0  0.18079778412E+00 -0.28552285102E+02 -0.32685739972E+02  0.43400728910E+02  0.00000000000E+00 0.  1.
         11    1    3    3    0    0  0.17774135329E+00  0.90545473831E+01 -0.60063286592E+00  0.90761875478E+01  0.51100000000E-03 0.  1.
        -11    1    3    3    0    0 -0.88328891533E+00  0.92106055572E+01  0.18576188728E+02  0.20753077891E+02  0.51100000000E-03 0. -1.
        -12    1    3    3    0    0  0.52474977792E+00  0.10287132162E+02  0.14710184110E+02  0.17958005652E+02  0.00000000000E+00 0.  1.
</event>
<event>
 7    1  0.2642243E-009  0.4778727E+02  0.7816164E-02  0.1312668E+00
        -11   -1    0    0    0    0  0.00000000000E+00  0.00000000000E+00  0.45593999997E+02  0.45594000000E+02  0.51100000000E-03 0. -1.
         11   -1    0    0    0    0 -0.00000000000E+00 -0.00000000000E+00 -0.45593999997E+02  0.45594000000E+02  0.51100000000E-03 0.  1.
    9900012    2    1    2    0    0  0.29202495726E+02  0.24677339486E+02  0.20539387765E+02  0.47787270853E+02  0.19999999126E+02 0.  0.
        -12    1    1    2    0    0 -0.29202495726E+02 -0.24677339486E+02 -0.20539387765E+02  0.43400729147E+02  0.00000000000E+00 0.  1.
         11    1    3    3    0    0  0.29326355154E+02  0.14903774997E+02  0.13577391362E+02  0.35587963867E+02  0.51100000000E-03 0. -1.
        -11    1    3    3    0    0 -0.87618528184E+00  0.57298882519E+01  0.31786499073E+01  0.66108347069E+01  0.51100000000E-03 0.  1.
         12    1    3    3    0    0  0.75232585441E+00  0.40436762364E+01  0.37833464961E+01  0.55884722783E+01  0.00000000000E+00 0. -1.
</event>
<event>
 7    1  0.2642243E-009  0.4778727E+02  0.7816164E-02  0.1312668E+00
        -11   -1    0    0    0    0  0.00000000000E+00  0.00000000000E+00  0.45593999997E+02  0.45594000000E+02  0.51100000000E-03 0.  1.
         11   -1    0    0    0    0 -0.00000000000E+00 -0.00000000000E+00 -0.45593999997E+02  0.45594000000E+02  0.51100000000E-03 0. -1.
    9900012    2    1    2    0    0  0.25690436427E+02 -0.92485041396E+01 -0.33735589616E+02  0.47787270059E+02  0.19999995508E+02 0.  0.
        -12    1    1    2    0    0 -0.25690436427E+02  0.92485041396E+01  0.33735589616E+02  0.43400729941E+02  0.00000000000E+00 0.  1.
         11    1    3    3    0    0  0.27386070175E+02 -0.11581005415E+02 -0.29846849904E+02  0.42130167048E+02  0.51100000000E-03 0. -1.
        -11    1    3    3    0    0 -0.21118618169E+01  0.17593495181E+01 -0.14301024899E+01  0.30984616268E+01  0.51100000000E-03 0.  1.
         12    1    3    3    0    0  0.41622806920E+00  0.57315175714E+00 -0.24586372225E+01  0.25586413845E+01  0.00000000000E+00 0. -1.
</event>
<event>
 7    1  0.2642243E-009  0.4778727E+02  0.7816164E-02  0.1312668E+00
        -11   -1    0    0    0    0  0.00000000000E+00  0.00000000000E+00  0.45593999997E+02  0.45594000000E+02  0.51100000000E-03 0.  1.
         11   -1    0    0    0    0 -0.00000000000E+00 -0.00000000000E+00 -0.45593999997E+02  0.45594000000E+02  0.51100000000E-03 0. -1.
    9900012    2    1    2    0    0 -0.14087965181E+02 -0.27804493651E+02 -0.30200372082E+02  0.47787273001E+02  0.20000008921E+02 0.  0.
        -12    1    1    2    0    0  0.14087965181E+02  0.27804493651E+02  0.30200372082E+02  0.43400726999E+02  0.00000000000E+00 0.  1.
         11    1    3    3    0    0 -0.14687052573E+02 -0.12239625142E+02 -0.13750671735E+02  0.23549923786E+02  0.51100000000E-03 0. -1.
        -11    1    3    3    0    0  0.20570334062E+01  0.19099069757E-01 -0.27668501614E+01  0.34477835323E+01  0.51100000000E-03 0.  1.
         12    1    3    3    0    0 -0.14579460146E+01 -0.15583967578E+02 -0.13682850186E+02  0.20789565683E+02  0.00000000000E+00 0. -1.
</event>
<event>
 7    1  0.2642243E-009  0.4778728E+02  0.7816164E-02  0.1312668E+00
        -11   -1    0    0    0    0  0.00000000000E+00  0.00000000000E+00  0.45593999997E+02  0.45594000000E+02  0.51100000000E-03 0.  1.
         11   -1    0    0    0    0 -0.00000000000E+00 -0.00000000000E+00 -0.45593999997E+02  0.45594000000E+02  0.51100000000E-03 0. -1.
    9900012    2    1    2    0    0 -0.17920732685E+02  0.17659080401E+02 -0.35364206060E+02  0.47787275918E+02  0.20000022221E+02 0.  0.
        -12    1    1    2    0    0  0.17920732685E+02 -0.17659080401E+02  0.35364206060E+02  0.43400724082E+02  0.00000000000E+00 0.  1.
         11    1    3    3    0    0 -0.56513156490E+01  0.13378368877E+02 -0.27499904616E+02  0.31099242379E+02  0.51100000000E-03 0. -1.
        -11    1    3    3    0    0 -0.46355378729E+01  0.15940614747E+01 -0.70048336134E+01  0.85496747055E+01  0.51100000000E-03 0.  1.
         12    1    3    3    0    0 -0.76338791626E+01  0.26866500497E+01 -0.85946783089E+00  0.81383588340E+01  0.00000000000E+00 0. -1.
</event>
<event>
 7    1  0.2642243E-009  0.4778727E+02  0.7816164E-02  0.1312668E+00
        -11   -1    0    0    0    0  0.00000000000E+00  0.00000000000E+00  0.45593999997E+02  0.45594000000E+02  0.51100000000E-03 0.  1.
         11   -1    0    0    0    0 -0.00000000000E+00 -0.00000000000E+00 -0.45593999997E+02  0.45594000000E+02  0.51100000000E-03 0. -1.
    9900012    2    1    2    0    0  0.84881270602E+01  0.43785996894E+01 -0.42336779837E+02  0.47787270016E+02  0.19999995310E+02 0.  0.
        -12    1    1    2    0    0 -0.84881270602E+01 -0.43785996894E+01  0.42336779837E+02  0.43400729984E+02  0.00000000000E+00 0.  1.
         11    1    3    3    0    0  0.48134839766E+01 -0.18007461028E+01 -0.25735495050E+02  0.26243628184E+02  0.51100000000E-03 0. -1.
        -11    1    3    3    0    0  0.43425047908E+01  0.89262054923E+01 -0.88711980316E+01  0.13312875239E+02  0.51100000000E-03 0.  1.
        -12    1    3    3    0    0 -0.66786170720E+00 -0.27468597001E+01 -0.77300867546E+01  0.82307665928E+01  0.00000000000E+00 0.  1.
</event>
<event>
 7    1  0.2642243E-009  0.4778727E+02  0.7816164E-02  0.1312668E+00
        -11   -1    0    0    0    0  0.00000000000E+00  0.00000000000E+00  0.45593999997E+02  0.45594000000E+02  0.51100000000E-03 0.  1.
         11   -1    0    0    0    0 -0.00000000000E+00 -0.00000000000E+00 -0.45593999997E+02  0.45594000000E+02  0.51100000000E-03 0. -1.
    9900012    2    1    2    0    0 -0.11087346018E+02 -0.33251221525E+02 -0.25593952371E+02  0.47787269907E+02  0.19999994814E+02 0.  0.
        -12    1    1    2    0    0  0.11087346018E+02  0.33251221525E+02  0.25593952371E+02  0.43400730093E+02  0.00000000000E+00 0.  1.
         11    1    3    3    0    0 -0.46066439090E+01 -0.22611340673E+02 -0.18330952215E+02  0.29470624434E+02  0.51100000000E-03 0. -1.
        -11    1    3    3    0    0 -0.95315870422E+01 -0.60330746977E+01 -0.45891077601E+01  0.12178220401E+02  0.51100000000E-03 0.  1.
         12    1    3    3    0    0  0.30508849329E+01 -0.46068061547E+01 -0.26738923956E+01  0.61384250719E+01  0.00000000000E+00 0. -1.
</event>
<event>
 7    1  0.2642243E-009  0.4778727E+02  0.7816164E-02  0.1312668E+00
        -11   -1    0    0    0    0  0.00000000000E+00  0.00000000000E+00  0.45593999997E+02  0.45594000000E+02  0.51100000000E-03 0.  1.
         11   -1    0    0    0    0 -0.00000000000E+00 -0.00000000000E+00 -0.45593999997E+02  0.45594000000E+02  0.51100000000E-03 0. -1.
    9900012    2    1    2    0    0  0.45552241642E+01 -0.40606112927E+01 -0.42969578771E+02  0.47787270386E+02  0.19999997000E+02 0.  0.
        -12    1    1    2    0    0 -0.45552241642E+01  0.40606112927E+01  0.42969578771E+02  0.43400729614E+02  0.00000000000E+00 0.  1.
         11    1    3    3    0    0 -0.63656752380E+00 -0.85330373970E+01 -0.36474041730E+02  0.37464298549E+02  0.51100000000E-03 0. -1.
        -11    1    3    3    0    0  0.35359072069E+01  0.51339650549E+01 -0.52176272083E+01  0.81291986632E+01  0.51100000000E-03 0.  1.
        -12    1    3    3    0    0  0.16558844812E+01 -0.66153895056E+00 -0.12779098327E+01  0.21937731739E+01  0.00000000000E+00 0.  1.
</event>
<event>
 7    1  0.2642243E-009  0.4778727E+02  0.7816164E-02  0.1312668E+00
        -11   -1    0    0    0    0  0.00000000000E+00  0.00000000000E+00  0.45593999997E+02  0.45594000000E+02  0.51100000000E-03 0. -1.
         11   -1    0    0    0    0 -0.00000000000E+00 -0.00000000000E+00 -0.45593999997E+02  0.45594000000E+02  0.51100000000E-03 0.  1.
    9900012    2    1    2    0    0  0.90213071065E+01 -0.10861387914E+02  0.41039856581E+02  0.47787267776E+02  0.19999985099E+02 0.  0.
        -12    1    1    2    0    0 -0.90213071065E+01  0.10861387914E+02 -0.41039856581E+02  0.43400732224E+02  0.00000000000E+00 0.  1.
         11    1    3    3    0    0  0.55783059854E+01 -0.12996123461E+02  0.34433493908E+02  0.37224752862E+02  0.51100000000E-03 0. -1.
        -11    1    3    3    0    0 -0.33242426896E+00  0.34801872710E+01  0.52958022680E+01  0.63456860353E+01  0.51100000000E-03 0.  1.
         12    1    3    3    0    0  0.37754253901E+01 -0.13454517240E+01  0.13105604057E+01  0.42168288790E+01  0.00000000000E+00 0. -1.
</event>
<event>
 7    1  0.2642243E-009  0.4778727E+02  0.7816164E-02  0.1312668E+00
        -11   -1    0    0    0    0  0.00000000000E+00  0.00000000000E+00  0.45593999997E+02  0.45594000000E+02  0.51100000000E-03 0.  1.
         11   -1    0    0    0    0 -0.00000000000E+00 -0.00000000000E+00 -0.45593999997E+02  0.45594000000E+02  0.51100000000E-03 0. -1.
    9900012    2    1    2    0    0  0.37958761452E+02  0.24952233086E+01 -0.20893282720E+02  0.47787274509E+02  0.20000015795E+02 0.  0.
        -12    1    1    2    0    0 -0.37958761452E+02 -0.24952233086E+01  0.20893282720E+02  0.43400725491E+02  0.00000000000E+00 0.  1.
         11    1    3    3    0    0  0.26019326406E+02  0.47536135630E+01 -0.18046491802E+02  0.32019963385E+02  0.51100000000E-03 0. -1.
        -11    1    3    3    0    0  0.12641030955E+02 -0.42975888473E+01 -0.24685326788E+01  0.13577871238E+02  0.51100000000E-03 0.  1.
         12    1    3    3    0    0 -0.70159590858E+00  0.20391985929E+01 -0.37825823933E+00  0.21894398863E+01  0.00000000000E+00 0. -1.
</event>
<event>
 7    1  0.2642243E-009  0.4778727E+02  0.7816164E-02  0.1312668E+00
        -11   -1    0    0    0    0  0.00000000000E+00  0.00000000000E+00  0.45593999997E+02  0.45594000000E+02  0.51100000000E-03 0.  1.
         11   -1    0    0    0    0 -0.00000000000E+00 -0.00000000000E+00 -0.45593999997E+02  0.45594000000E+02  0.51100000000E-03 0. -1.
    9900012    2    1    2    0    0 -0.33319360324E+01 -0.20118170562E+02 -0.38311625344E+02  0.47787271654E+02  0.20000002778E+02 0.  0.
        -12    1    1    2    0    0  0.33319360324E+01  0.20118170562E+02  0.38311625344E+02  0.43400728346E+02  0.00000000000E+00 0.  1.
         11    1    3    3    0    0  0.24268886815E+01  0.18650117642E+01 -0.12320453135E+02  0.12694944792E+02  0.51100000000E-03 0. -1.
        -11    1    3    3    0    0 -0.56321511948E+01 -0.13960003638E+02 -0.13354480467E+02  0.20123244705E+02  0.51100000000E-03 0.  1.
         12    1    3    3    0    0 -0.12667351905E+00 -0.80231786883E+01 -0.12636691741E+02  0.14969082157E+02  0.00000000000E+00 0. -1.
</event>
<event>
 7    1  0.2642243E-009  0.4778727E+02  0.7816164E-02  0.1312668E+00
        -11   -1    0    0    0    0  0.00000000000E+00  0.00000000000E+00  0.45593999997E+02  0.45594000000E+02  0.51100000000E-03 0. -1.
         11   -1    0    0    0    0 -0.00000000000E+00 -0.00000000000E+00 -0.45593999997E+02  0.45594000000E+02  0.51100000000E-03 0.  1.
    9900012    2    1    2    0    0  0.39920365819E+02  0.43782397278E+01 -0.16456578575E+02  0.47787267649E+02  0.19999984518E+02 0.  0.
        -12    1    1    2    0    0 -0.39920365819E+02 -0.43782397278E+01  0.16456578575E+02  0.43400732351E+02  0.00000000000E+00 0.  1.
         11    1    3    3    0    0  0.15188439300E+02  0.27404284264E+01 -0.12709625944E+00  0.15434208436E+02  0.51100000000E-03 0. -1.
        -11    1    3    3    0    0 -0.10168321349E+00  0.55509814721E+00 -0.50068431666E+01  0.50385466342E+01  0.51100000000E-03 0.  1.
        -12    1    3    3    0    0  0.24833609732E+02  0.10827131542E+01 -0.11322639149E+02  0.27314512579E+02  0.00000000000E+00 0.  1.
</event>
<event>
 7    1  0.2642243E-009  0.4778727E+02  0.7816164E-02  0.1312668E+00
        -11   -1    0    0    0    0  0.00000000000E+00  0.00000000000E+00  0.45593999997E+02  0.45594000000E+02  0.51100000000E-03 0.  1.
         11   -1    0    0    0    0 -0.00000000000E+00 -0.00000000000E+00 -0.45593999997E+02  0.45594000000E+02  0.51100000000E-03 0. -1.
    9900012    2    1    2    0    0 -0.38322235403E+01  0.39089441545E+02 -0.18464916379E+02  0.47787268273E+02  0.19999987366E+02 0.  0.
        -12    1    1    2    0    0  0.38322235403E+01 -0.39089441545E+02  0.18464916379E+02  0.43400731727E+02  0.00000000000E+00 0.  1.
         11    1    3    3    0    0 -0.63386922650E+01  0.24148067964E+02 -0.17503027839E+02  0.30490395042E+02  0.51100000000E-03 0. -1.
        -11    1    3    3    0    0 -0.41265317751E+00  0.25350172588E+00  0.19775343796E+01  0.20359735395E+01  0.51100000000E-03 0.  1.
         12    1    3    3    0    0  0.29191219021E+01  0.14687871855E+02 -0.29394229189E+01  0.15260899692E+02  0.00000000000E+00 0. -1.
</event>
<event>
 7    1  0.2642243E-009  0.4778727E+02  0.7816164E-02  0.1312668E+00
        -11   -1    0    0    0    0  0.00000000000E+00  0.00000000000E+00  0.45593999997E+02  0.45594000000E+02  0.51100000000E-03 0.  1.
         11   -1    0    0    0    0 -0.00000000000E+00 -0.00000000000E+00 -0.45593999997E+02  0.45594000000E+02  0.51100000000E-03 0. -1.
    9900012    2    1    2    0    0 -0.41523938806E+02 -0.35518959225E+01 -0.12114854266E+02  0.47787272443E+02  0.20000006378E+02 0.  0.
        -12    1    1    2    0    0  0.41523938806E+02  0.35518959225E+01  0.12114854266E+02  0.43400727557E+02  0.00000000000E+00 0.  1.
         11    1    3    3    0    0 -0.15025266263E+02  0.37918042609E+01 -0.63622608250E+01  0.16751560193E+02  0.51100000000E-03 0. -1.
        -11    1    3    3    0    0 -0.25474911460E+02 -0.92073776939E+01 -0.76909684272E+01  0.28158443024E+02  0.51100000000E-03 0.  1.
        -12    1    3    3    0    0 -0.10237610827E+01  0.18636775106E+01  0.19383749863E+01  0.28772692271E+01  0.00000000000E+00 0.  1.
</event>
<event>
 7    1  0.2642243E-009  0.4778727E+02  0.7816164E-02  0.1312668E+00
        -11   -1    0    0    0    0  0.00000000000E+00  0.00000000000E+00  0.45593999997E+02  0.45594000000E+02  0.51100000000E-03 0. -1.
         11   -1    0    0    0    0 -0.00000000000E+00 -0.00000000000E+00 -0.45593999997E+02  0.45594000000E+02  0.51100000000E-03 0.  1.
    9900012    2    1    2    0    0 -0.42823993525E+02 -0.68998985745E+01  0.14561864162E+01  0.47787268432E+02  0.19999988088E+02 0.  0.
        -12    1    1    2    0    0  0.42823993525E+02  0.68998985745E+01 -0.14561864162E+01  0.43400731568E+02  0.00000000000E+00 0.  1.
         11    1    3    3    0    0 -0.22914635682E+02 -0.11339392880E+02  0.35147397801E+01  0.25807281053E+02  0.51100000000E-03 0. -1.
        -11    1    3    3    0    0 -0.15866221523E+02  0.23734718746E+01 -0.47127980323E+01  0.16720670432E+02  0.51100000000E-03 0.  1.
         12    1    3    3    0    0 -0.40431363201E+01  0.20660224313E+01  0.26542446685E+01  0.52593169471E+01  0.00000000000E+00 0. -1.
</event>
<event>
 7    1  0.2642243E-009  0.4778727E+02  0.7816164E-02  0.1312668E+00
        -11   -1    0    0    0    0  0.00000000000E+00  0.00000000000E+00  0.45593999997E+02  0.45594000000E+02  0.51100000000E-03 0. -1.
         11   -1    0    0    0    0 -0.00000000000E+00 -0.00000000000E+00 -0.45593999997E+02  0.45594000000E+02  0.51100000000E-03 0.  1.
    9900012    2    1    2    0    0 -0.33080953033E+02 -0.13548398795E+02  0.24611269142E+02  0.47787272676E+02  0.20000007438E+02 0.  0.
        -12    1    1    2    0    0  0.33080953033E+02  0.13548398795E+02 -0.24611269142E+02  0.43400727324E+02  0.00000000000E+00 0.  1.
         11    1    3    3    0    0 -0.12631166928E+01 -0.51843751676E+01  0.69861502096E+01  0.87908762174E+01  0.51100000000E-03 0. -1.
        -11    1    3    3    0    0 -0.26531083468E+02 -0.10060804532E+02  0.11201215446E+02  0.30505497956E+02  0.51100000000E-03 0.  1.
         12    1    3    3    0    0 -0.52867528724E+01  0.16967809052E+01  0.64239034863E+01  0.84908985023E+01  0.00000000000E+00 0. -1.
</event>
<event>
 7    1  0.2642243E-009  0.4778727E+02  0.7816164E-02  0.1312668E+00
        -11   -1    0    0    0    0  0.00000000000E+00  0.00000000000E+00  0.45593999997E+02  0.45594000000E+02  0.51100000000E-03 0. -1.
         11   -1    0    0    0    0 -0.00000000000E+00 -0.00000000000E+00 -0.45593999997E+02  0.45594000000E+02  0.51100000000E-03 0.  1.
    9900012    2    1    2    0    0 -0.82031485189E+01  0.26580689519E+02 -0.33313642538E+02  0.47787268669E+02  0.19999989170E+02 0.  0.
        -12    1    1    2    0    0  0.82031485189E+01 -0.26580689519E+02  0.33313642538E+02  0.43400731331E+02  0.00000000000E+00 0.  1.
         11    1    3    3    0    0  0.33610791501E+00  0.14598236413E+02 -0.74250062250E+01  0.16381458806E+02  0.51100000000E-03 0. -1.
        -11    1    3    3    0    0 -0.10015190842E+02  0.64070639931E+01 -0.15642283494E+02  0.19647787402E+02  0.51100000000E-03 0.  1.
        -12    1    3    3    0    0  0.14759344078E+01  0.55753891129E+01 -0.10246352818E+02  0.11758022462E+02  0.00000000000E+00 0.  1.
</event>
<event>
 7    1  0.2642243E-009  0.4778724E+02  0.7816164E-02  0.1312668E+00
        -11   -1    0    0    0    0  0.00000000000E+00  0.00000000000E+00  0.45593999997E+02  0.45594000000E+02  0.51100000000E-03 0.  1.
         11   -1    0    0    0    0 -0.00000000000E+00 -0.00000000000E+00 -0.45593999997E+02  0.45594000000E+02  0.51100000000E-03 0. -1.
    9900012    2    1    2    0    0  0.36232145289E+02  0.23880363872E+02 -0.76515289654E+00  0.47787244363E+02  0.19999878350E+02 0.  0.
        -12    1    1    2    0    0 -0.36232145289E+02 -0.23880363872E+02  0.76515289654E+00  0.43400755637E+02  0.00000000000E+00 0.  1.
         11    1    3    3    0    0  0.15009170426E+02  0.18722913773E+02  0.40116875881E+01  0.24329330747E+02  0.51100000000E-03 0. -1.
        -11    1    3    3    0    0  0.19022231584E+02  0.65120049429E+01 -0.53611167036E+01  0.20808485658E+02  0.51100000000E-03 0.  1.
        -12    1    3    3    0    0  0.22007432783E+01 -0.13545548445E+01  0.58427621903E+00  0.26494279578E+01  0.00000000000E+00 0.  1.
</event>
<event>
 7    1  0.2642243E-009  0.4778725E+02  0.7816164E-02  0.1312668E+00
        -11   -1    0    0    0    0  0.00000000000E+00  0.00000000000E+00  0.45593999997E+02  0.45594000000E+02  0.51100000000E-03 0. -1.
         11   -1    0    0    0    0 -0.00000000000E+00 -0.00000000000E+00 -0.45593999997E+02  0.45594000000E+02  0.51100000000E-03 0.  1.
    9900012    2    1    2    0    0 -0.55607026771E+01 -0.40930847465E+02 -0.13318008245E+02  0.47787250789E+02  0.19999907647E+02 0.  0.
        -12    1    1    2    0    0  0.55607026771E+01  0.40930847465E+02  0.13318008245E+02  0.43400749211E+02  0.00000000000E+00 0.  1.
         11    1    3    3    0    0 -0.53428539767E+01 -0.16452236026E+02 -0.11720379457E+02  0.20894723107E+02  0.51100000000E-03 0. -1.
        -11    1    3    3    0    0 -0.43660855190E+01 -0.63822311352E+01 -0.29528823942E+01  0.82773843524E+01  0.51100000000E-03 0.  1.
         12    1    3    3    0    0  0.41482368187E+01 -0.18096380304E+02  0.13552536064E+01  0.18615143329E+02  0.00000000000E+00 0. -1.
</event>
<event>
 7    1  0.2642243E-009  0.4778727E+02  0.7816164E-02  0.1312668E+00
        -11   -1    0    0    0    0  0.00000000000E+00  0.00000000000E+00  0.45593999997E+02  0.45594000000E+02  0.51100000000E-03 0.  1.
         11   -1    0    0    0    0 -0.00000000000E+00 -0.00000000000E+00 -0.45593999997E+02  0.45594000000E+02  0.51100000000E-03 0. -1.
    9900012    2    1    2    0    0 -0.22401903030E+02  0.12535384930E+02 -0.34994887224E+02  0.47787271129E+02  0.20000000384E+02 0.  0.
        -12    1    1    2    0    0  0.22401903030E+02 -0.12535384930E+02  0.34994887224E+02  0.43400728871E+02  0.00000000000E+00 0.  1.
         11    1    3    3    0    0 -0.61734465102E+01  0.81422169903E+00 -0.17591695082E+02  0.18661246875E+02  0.51100000000E-03 0. -1.
        -11    1    3    3    0    0 -0.50592852180E+01  0.54403877917E+01  0.10447341424E+00  0.74300135395E+01  0.51100000000E-03 0.  1.
        -12    1    3    3    0    0 -0.11169171302E+02  0.62807754390E+01 -0.17507665556E+02  0.21696010714E+02  0.00000000000E+00 0.  1.
</event>
<event>
 7    1  0.2642243E-009  0.4778727E+02  0.7816164E-02  0.1312668E+00
        -11   -1    0    0    0    0  0.00000000000E+00  0.00000000000E+00  0.45593999997E+02  0.45594000000E+02  0.51100000000E-03 0.  1.
         11   -1    0    0    0    0 -0.00000000000E+00 -0.00000000000E+00 -0.45593999997E+02  0.45594000000E+02  0.51100000000E-03 0. -1.
    9900012    2    1    2    0    0  0.11217243697E+02  0.29312046816E+02 -0.29976668317E+02  0.47787270880E+02  0.19999999251E+02 0.  0.
        -12    1    1    2    0    0 -0.11217243697E+02 -0.29312046816E+02  0.29976668317E+02  0.43400729120E+02  0.00000000000E+00 0.  1.
         11    1    3    3    0    0  0.43456458803E+01  0.88572395005E+01  0.24176321728E+00  0.98688286742E+01  0.51100000000E-03 0. -1.
        -11    1    3    3    0    0  0.14362212874E+01  0.25499573697E+01 -0.76681494794E+00  0.30253957757E+01  0.51100000000E-03 0.  1.
         12    1    3    3    0    0  0.54353765292E+01  0.17904849946E+02 -0.29451616587E+02  0.34893046430E+02  0.00000000000E+00 0. -1.
</event>
<event>
 7    1  0.2642243E-009  0.4778727E+02  0.7816164E-02  0.1312668E+00
        -11   -1    0    0    0    0  0.00000000000E+00  0.00000000000E+00  0.45593999997E+02  0.45594000000E+02  0.51100000000E-03 0.  1.
         11   -1    0    0    0    0 -0.00000000000E+00 -0.00000000000E+00 -0.45593999997E+02  0.45594000000E+02  0.51100000000E-03 0. -1.
    9900012    2    1    2    0    0 -0.20787788512E+02 -0.72593800229E+01 -0.37400435611E+02  0.47787270358E+02  0.19999996870E+02 0.  0.
        -12    1    1    2    0    0  0.20787788512E+02  0.72593800229E+01  0.37400435611E+02  0.43400729642E+02  0.00000000000E+00 0.  1.
         11    1    3    3    0    0 -0.11024835156E+02 -0.43412388974E+01 -0.33515838572E+02  0.35548625583E+02  0.51100000000E-03 0. -1.
        -11    1    3    3    0    0 -0.69508340939E+01 -0.36905695116E+01 -0.66996259455E+00  0.78983066578E+01  0.51100000000E-03 0.  1.
        -12    1    3    3    0    0 -0.28121192624E+01  0.77242838613E+00 -0.32146344444E+01  0.43403381169E+01  0.00000000000E+00 0.  1.
</event>
<event>
 7    1  0.2642243E-009  0.4778728E+02  0.7816164E-02  0.1312668E+00
        -11   -1    0    0    0    0  0.00000000000E+00  0.00000000000E+00  0.45593999997E+02  0.45594000000E+02  0.51100000000E-03 0.  1.
         11   -1    0    0    0    0 -0.00000000000E+00 -0.00000000000E+00 -0.45593999997E+02  0.45594000000E+02  0.51100000000E-03 0. -1.
    9900012    2    1    2    0    0  0.59839618966E+01  0.37253981828E+01 -0.42824483973E+02  0.47787276283E+02  0.20000023886E+02 0.  0.
        -12    1    1    2    0    0 -0.59839618966E+01 -0.37253981828E+01  0.42824483973E+02  0.43400723717E+02  0.00000000000E+00 0.  1.
         11    1    3    3    0    0  0.77959637954E+01  0.15322046309E+01 -0.19942898232E+02  0.21467274924E+02  0.51100000000E-03 0. -1.
        -11    1    3    3    0    0 -0.18706681629E+01 -0.49942515812E+01 -0.63432125146E+01  0.82872367831E+01  0.51100000000E-03 0.  1.
        -12    1    3    3    0    0  0.58666264078E-01  0.71874451332E+01 -0.16538373226E+02  0.18032764576E+02  0.00000000000E+00 0.  1.
</event>
<event>
 7    1  0.2642243E-009  0.4778728E+02  0.7816164E-02  0.1312668E+00
        -11   -1    0    0    0    0  0.00000000000E+00  0.00000000000E+00  0.45593999997E+02  0.45594000000E+02  0.51100000000E-03 0.  1.
         11   -1    0    0    0    0 -0.00000000000E+00 -0.00000000000E+00 -0.45593999997E+02  0.45594000000E+02  0.51100000000E-03 0. -1.
    9900012    2    1    2    0    0 -0.12489138904E+02 -0.20804533109E+02 -0.35983546107E+02  0.47787276747E+02  0.20000026001E+02 0.  0.
        -12    1    1    2    0    0  0.12489138904E+02  0.20804533109E+02  0.35983546107E+02  0.43400723253E+02  0.00000000000E+00 0.  1.
         11    1    3    3    0    0 -0.52763026397E+01 -0.50210134316E+00 -0.11842919849E+02  0.12974830485E+02  0.51100000000E-03 0. -1.
        -11    1    3    3    0    0 -0.34908826840E-01 -0.15705639848E+02 -0.11096008976E+02  0.19229918281E+02  0.51100000000E-03 0.  1.
        -12    1    3    3    0    0 -0.71779274379E+01 -0.45967919180E+01 -0.13044617282E+02  0.15582527981E+02  0.00000000000E+00 0.  1.
</event>
<event>
 7    1  0.2642243E-009  0.4778725E+02  0.7816164E-02  0.1312668E+00
        -11   -1    0    0    0    0  0.00000000000E+00  0.00000000000E+00  0.45593999997E+02  0.45594000000E+02  0.51100000000E-03 0.  1.
         11   -1    0    0    0    0 -0.00000000000E+00 -0.00000000000E+00 -0.45593999997E+02  0.45594000000E+02  0.51100000000E-03 0. -1.
    9900012    2    1    2    0    0 -0.27743091003E+02 -0.32599077884E+02  0.71586299632E+01  0.47787251616E+02  0.19999911419E+02 0.  0.
        -12    1    1    2    0    0  0.27743091003E+02  0.32599077884E+02 -0.71586299632E+01  0.43400748384E+02  0.00000000000E+00 0.  1.
         11    1    3    3    0    0 -0.13627826186E+02 -0.79405048775E+01  0.37595789691E+00  0.15776901118E+02  0.51100000000E-03 0. -1.
        -11    1    3    3    0    0  0.68503629962E+00 -0.63541636956E+01  0.55072349702E+01  0.84364867261E+01  0.51100000000E-03 0.  1.
        -12    1    3    3    0    0 -0.14800301117E+02 -0.18304409311E+02  0.12754370962E+01  0.23573863773E+02  0.00000000000E+00 0.  1.
</event>
<event>
 7    1  0.2642243E-009  0.4778727E+02  0.7816164E-02  0.1312668E+00
        -11   -1    0    0    0    0  0.00000000000E+00  0.00000000000E+00  0.45593999997E+02  0.45594000000E+02  0.51100000000E-03 0.  1.
         11   -1    0    0    0    0 -0.00000000000E+00 -0.00000000000E+00 -0.45593999997E+02  0.45594000000E+02  0.51100000000E-03 0. -1.
    9900012    2    1    2    0    0  0.42148046783E+02  0.10310278630E+02 -0.92930836868E+00  0.47787270662E+02  0.19999998257E+02 0.  0.
        -12    1    1    2    0    0 -0.42148046783E+02 -0.10310278630E+02  0.92930836868E+00  0.43400729338E+02  0.00000000000E+00 0.  1.
         11    1    3    3    0    0  0.13452490683E+02  0.13673369043E+00 -0.65967585075E+01  0.14983505088E+02  0.51100000000E-03 0. -1.
        -11    1    3    3    0    0  0.13607702454E+02  0.10161831254E+02  0.10095430758E+01  0.17013275934E+02  0.51100000000E-03 0.  1.
        -12    1    3    3    0    0  0.15087853647E+02  0.11713685064E-01  0.46579070630E+01  0.15790489640E+02  0.00000000000E+00 0.  1.
</event>
<event>
 7    1  0.2642243E-009  0.4778728E+02  0.7816164E-02  0.1312668E+00
        -11   -1    0    0    0    0  0.00000000000E+00  0.00000000000E+00  0.45593999997E+02  0.45594000000E+02  0.51100000000E-03 0.  1.
         11   -1    0    0    0    0 -0.00000000000E+00 -0.00000000000E+00 -0.45593999997E+02  0.45594000000E+02  0.51100000000E-03 0. -1.
    9900012    2    1    2    0    0 -0.31736908386E+01  0.20294510759E+02 -0.38231967790E+02  0.47787276024E+02  0.20000022706E+02 0.  0.
        -12    1    1    2    0    0  0.31736908386E+01 -0.20294510759E+02  0.38231967790E+02  0.43400723976E+02  0.00000000000E+00 0.  1.
         11    1    3    3    0    0  0.58820231006E+00  0.14203318688E+02 -0.15585208152E+02  0.21094524339E+02  0.51100000000E-03 0. -1.
        -11    1    3    3    0    0 -0.66200015735E+01 -0.80000217263E+00 -0.10788964491E+02  0.12683303172E+02  0.51100000000E-03 0.  1.
        -12    1    3    3    0    0  0.28581084249E+01  0.68911942435E+01 -0.11857795148E+02  0.14009448513E+02  0.00000000000E+00 0.  1.
</event>
<event>
 7    1  0.2642243E-009  0.4778727E+02  0.7816164E-02  0.1312668E+00
        -11   -1    0    0    0    0  0.00000000000E+00  0.00000000000E+00  0.45593999997E+02  0.45594000000E+02  0.51100000000E-03 0.  1.
         11   -1    0    0    0    0 -0.00000000000E+00 -0.00000000000E+00 -0.45593999997E+02  0.45594000000E+02  0.51100000000E-03 0. -1.
    9900012    2    1    2    0    0 -0.36766613428E+02  0.12707804236E+01  0.23026600745E+02  0.47787273189E+02  0.20000009778E+02 0.  0.
        -12    1    1    2    0    0  0.36766613428E+02 -0.12707804236E+01 -0.23026600745E+02  0.43400726811E+02  0.00000000000E+00 0.  1.
         11    1    3    3    0    0 -0.28717058821E+02  0.71181525068E+01  0.13312130564E+02  0.32443032886E+02  0.51100000000E-03 0. -1.
        -11    1    3    3    0    0 -0.65544077524E+01 -0.52631528477E+01  0.10586091125E+02  0.13517631614E+02  0.51100000000E-03 0.  1.
         12    1    3    3    0    0 -0.14951468550E+01 -0.58421923554E+00 -0.87162094408E+00  0.18266086891E+01  0.00000000000E+00 0. -1.
</event>
<event>
 7    1  0.2642243E-009  0.4778727E+02  0.7816164E-02  0.1312668E+00
        -11   -1    0    0    0    0  0.00000000000E+00  0.00000000000E+00  0.45593999997E+02  0.45594000000E+02  0.51100000000E-03 0.  1.
         11   -1    0    0    0    0 -0.00000000000E+00 -0.00000000000E+00 -0.45593999997E+02  0.45594000000E+02  0.51100000000E-03 0. -1.
    9900012    2    1    2    0    0  0.91138876191E+01  0.37015141022E+02 -0.20747037083E+02  0.47787272355E+02  0.20000005975E+02 0.  0.
        -12    1    1    2    0    0 -0.91138876191E+01 -0.37015141022E+02  0.20747037083E+02  0.43400727645E+02  0.00000000000E+00 0.  1.
         11    1    3    3    0    0  0.96981019718E+01  0.21334394634E+02 -0.62481633698E+01  0.24253847571E+02  0.51100000000E-03 0. -1.
        -11    1    3    3    0    0 -0.38778760512E+01  0.13539176333E+02 -0.13433291593E+02  0.19462798918E+02  0.51100000000E-03 0.  1.
        -12    1    3    3    0    0  0.32936616984E+01  0.21415700558E+01 -0.10655821201E+01  0.40706258662E+01  0.00000000000E+00 0.  1.
</event>
<event>
 7    1  0.2642243E-009  0.4778727E+02  0.7816164E-02  0.1312668E+00
        -11   -1    0    0    0    0  0.00000000000E+00  0.00000000000E+00  0.45593999997E+02  0.45594000000E+02  0.51100000000E-03 0.  1.
         11   -1    0    0    0    0 -0.00000000000E+00 -0.00000000000E+00 -0.45593999997E+02  0.45594000000E+02  0.51100000000E-03 0. -1.
    9900012    2    1    2    0    0  0.35385949543E+02  0.19448401460E+02 -0.15912804143E+02  0.47787273277E+02  0.20000010177E+02 0.  0.
        -12    1    1    2    0    0 -0.35385949543E+02 -0.19448401460E+02  0.15912804143E+02  0.43400726723E+02  0.00000000000E+00 0.  1.
         11    1    3    3    0    0  0.11784787325E+02  0.79207347972E+01 -0.85820111073E+01  0.16591267791E+02  0.51100000000E-03 0. -1.
        -11    1    3    3    0    0  0.25464467697E+02  0.11850312392E+02 -0.79769651674E+01  0.29197619637E+02  0.51100000000E-03 0.  1.
        -12    1    3    3    0    0 -0.18633054794E+01 -0.32264572890E+00  0.64617213128E+00  0.19983858484E+01  0.00000000000E+00 0.  1.
</event>
<event>
 7    1  0.2642243E-009  0.4778727E+02  0.7816164E-02  0.1312668E+00
        -11   -1    0    0    0    0  0.00000000000E+00  0.00000000000E+00  0.45593999997E+02  0.45594000000E+02  0.51100000000E-03 0.  1.
         11   -1    0    0    0    0 -0.00000000000E+00 -0.00000000000E+00 -0.45593999997E+02  0.45594000000E+02  0.51100000000E-03 0. -1.
    9900012    2    1    2    0    0  0.13459104383E+02 -0.38634300407E+02 -0.14486772611E+02  0.47787271441E+02  0.20000001809E+02 0.  0.
        -12    1    1    2    0    0 -0.13459104383E+02  0.38634300407E+02  0.14486772611E+02  0.43400728559E+02  0.00000000000E+00 0.  1.
         11    1    3    3    0    0  0.13712839565E+02 -0.22921643793E+02 -0.50964757506E+01  0.27192237651E+02  0.51100000000E-03 0. -1.
        -11    1    3    3    0    0 -0.32087938447E+01 -0.10465348771E+02 -0.21116271719E+01  0.11148042537E+02  0.51100000000E-03 0.  1.
        -12    1    3    3    0    0  0.29550586628E+01 -0.52473078427E+01 -0.72786696888E+01  0.94469912531E+01  0.00000000000E+00 0.  1.
</event>
<event>
 7    1  0.2642243E-009  0.4778727E+02  0.7816164E-02  0.1312668E+00
        -11   -1    0    0    0    0  0.00000000000E+00  0.00000000000E+00  0.45593999997E+02  0.45594000000E+02  0.51100000000E-03 0.  1.
         11   -1    0    0    0    0 -0.00000000000E+00 -0.00000000000E+00 -0.45593999997E+02  0.45594000000E+02  0.51100000000E-03 0. -1.
    9900012    2    1    2    0    0 -0.60955871205E+01 -0.30313624568E+02 -0.30455725880E+02  0.47787271254E+02  0.20000000954E+02 0.  0.
        -12    1    1    2    0    0  0.60955871205E+01  0.30313624568E+02  0.30455725880E+02  0.43400728746E+02  0.00000000000E+00 0.  1.
         11    1    3    3    0    0 -0.10370629315E+02 -0.13327605025E+02 -0.18727096725E+02  0.25216644505E+02  0.51100000000E-03 0. -1.
        -11    1    3    3    0    0  0.56482833805E+01 -0.61597272213E+01 -0.55077587002E+01  0.10009033457E+02  0.51100000000E-03 0.  1.
         12    1    3    3    0    0 -0.13732411863E+01 -0.10826292322E+02 -0.62208704555E+01  0.12561593291E+02  0.00000000000E+00 0. -1.
</event>
<event>
 7    1  0.2642243E-009  0.4778727E+02  0.7816164E-02  0.1312668E+00
        -11   -1    0    0    0    0  0.00000000000E+00  0.00000000000E+00  0.45593999997E+02  0.45594000000E+02  0.51100000000E-03 0. -1.
         11   -1    0    0    0    0 -0.00000000000E+00 -0.00000000000E+00 -0.45593999997E+02  0.45594000000E+02  0.51100000000E-03 0.  1.
    9900012    2    1    2    0    0 -0.13477294677E+02  0.19916272651E+01  0.41207029533E+02  0.47787270353E+02  0.19999996846E+02 0.  0.
        -12    1    1    2    0    0  0.13477294677E+02 -0.19916272651E+01 -0.41207029533E+02  0.43400729647E+02  0.00000000000E+00 0.  1.
         11    1    3    3    0    0 -0.67277496038E+01  0.67482862341E+01  0.29512491447E+02  0.31012725348E+02  0.51100000000E-03 0. -1.
        -11    1    3    3    0    0 -0.78863686975E+01 -0.18633969248E+01  0.10870534493E+02  0.13558598001E+02  0.51100000000E-03 0.  1.
         12    1    3    3    0    0  0.11368236242E+01 -0.28932620442E+01  0.82400359278E+00  0.32159470036E+01  0.00000000000E+00 0. -1.
</event>
<event>
 7    1  0.2642243E-009  0.4778727E+02  0.7816164E-02  0.1312668E+00
        -11   -1    0    0    0    0  0.00000000000E+00  0.00000000000E+00  0.45593999997E+02  0.45594000000E+02  0.51100000000E-03 0.  1.
         11   -1    0    0    0    0 -0.00000000000E+00 -0.00000000000E+00 -0.45593999997E+02  0.45594000000E+02  0.51100000000E-03 0. -1.
    9900012    2    1    2    0    0  0.93942580027E+01 -0.42364330570E+02 -0.79692346777E+00  0.47787266423E+02  0.19999978927E+02 0.  0.
        -12    1    1    2    0    0 -0.93942580027E+01  0.42364330570E+02  0.79692346777E+00  0.43400733577E+02  0.00000000000E+00 0.  1.
         11    1    3    3    0    0  0.47094477558E+01 -0.17910997999E+02  0.62781912715E+01  0.19555010442E+02  0.51100000000E-03 0. -1.
        -11    1    3    3    0    0  0.73795833353E+01 -0.96684426026E+01 -0.45874120675E+01  0.12999283915E+02  0.51100000000E-03 0.  1.
         12    1    3    3    0    0 -0.26947730884E+01 -0.14784889968E+02 -0.24877026717E+01  0.15232972065E+02  0.00000000000E+00 0. -1.
</event>
<event>
 7    1  0.2642243E-009  0.4778730E+02  0.7816164E-02  0.1312668E+00
        -11   -1    0    0    0    0  0.00000000000E+00  0.00000000000E+00  0.45593999997E+02  0.45594000000E+02  0.51100000000E-03 0.  1.
         11   -1    0    0    0    0 -0.00000000000E+00 -0.00000000000E+00 -0.45593999997E+02  0.45594000000E+02  0.51100000000E-03 0. -1.
    9900012    2    1    2    0    0 -0.55702225434E+01  0.20989383878E+02 -0.37577110230E+02  0.47787299222E+02  0.20000128472E+02 0.  0.
        -12    1    1    2    0    0  0.55702225434E+01 -0.20989383878E+02  0.37577110230E+02  0.43400700778E+02  0.00000000000E+00 0.  1.
         11    1    3    3    0    0 -0.40746762641E+01  0.20353463992E+02 -0.23308741550E+02  0.31211599063E+02  0.51100000000E-03 0. -1.
        -11    1    3    3    0    0 -0.32363496433E+01  0.18212177190E+01 -0.13962098337E+02  0.14447525159E+02  0.51100000000E-03 0.  1.
         12    1    3    3    0    0  0.17408033639E+01 -0.11852978334E+01 -0.30627034295E+00  0.21281749995E+01  0.00000000000E+00 0. -1.
</event>
<event>
 7    1  0.2642243E-009  0.4778727E+02  0.7816164E-02  0.1312668E+00
        -11   -1    0    0    0    0  0.00000000000E+00  0.00000000000E+00  0.45593999997E+02  0.45594000000E+02  0.51100000000E-03 0.  1.
         11   -1    0    0    0    0 -0.00000000000E+00 -0.00000000000E+00 -0.45593999997E+02  0.45594000000E+02  0.51100000000E-03 0. -1.
    9900012    2    1    2    0    0 -0.18533802595E+02  0.33754946091E+02  0.20018129033E+02  0.47787265972E+02  0.19999976871E+02 0.  0.
        -12    1    1    2    0    0  0.18533802595E+02 -0.33754946091E+02 -0.20018129033E+02  0.43400734028E+02  0.00000000000E+00 0.  1.
         11    1    3    3    0    0 -0.98812085435E+01  0.16226773123E+02  0.25207370451E+01  0.19165087106E+02  0.51100000000E-03 0. -1.
        -11    1    3    3    0    0  0.46219176778E+00  0.11456001118E+02  0.10994071972E+02  0.15884684499E+02  0.51100000000E-03 0.  1.
        -12    1    3    3    0    0 -0.91147858198E+01  0.60721718499E+01  0.65033200155E+01  0.12737494367E+02  0.00000000000E+00 0.  1.
</event>
<event>
 7    1  0.2642243E-009  0.4778728E+02  0.7816164E-02  0.1312668E+00
        -11   -1    0    0    0    0  0.00000000000E+00  0.00000000000E+00  0.45593999997E+02  0.45594000000E+02  0.51100000000E-03 0.  1.
         11   -1    0    0    0    0 -0.00000000000E+00 -0.00000000000E+00 -0.45593999997E+02  0.45594000000E+02  0.51100000000E-03 0. -1.
    9900012    2    1    2    0    0  0.53974791936E+01  0.85889417680E+01 -0.42198576408E+02  0.47787279347E+02  0.20000037856E+02 0.  0.
        -12    1    1    2    0    0 -0.53974791936E+01 -0.85889417680E+01  0.42198576408E+02  0.43400720653E+02  0.00000000000E+00 0.  1.
         11    1    3    3    0    0  0.98346368809E+01  0.96979147662E+01 -0.17573798745E+02  0.22351913475E+02  0.51100000000E-03 0. -1.
        -11    1    3    3    0    0 -0.26462845026E+01 -0.26802051159E+01 -0.18137494834E+02  0.18524444398E+02  0.51100000000E-03 0.  1.
         12    1    3    3    0    0 -0.17908731847E+01  0.15712321177E+01 -0.64872828281E+01  0.69109214742E+01  0.00000000000E+00 0. -1.
</event>
<event>
 7    1  0.2642243E-009  0.4778726E+02  0.7816164E-02  0.1312668E+00
        -11   -1    0    0    0    0  0.00000000000E+00  0.00000000000E+00  0.45593999997E+02  0.45594000000E+02  0.51100000000E-03 0. -1.
         11   -1    0    0    0    0 -0.00000000000E+00 -0.00000000000E+00 -0.45593999997E+02  0.45594000000E+02  0.51100000000E-03 0.  1.
    9900012    2    1    2    0    0 -0.12454468210E+02 -0.28591928557E+02  0.30182974375E+02  0.47787261537E+02  0.19999956653E+02 0.  0.
        -12    1    1    2    0    0  0.12454468210E+02  0.28591928557E+02 -0.30182974375E+02  0.43400738463E+02  0.00000000000E+00 0.  1.
         11    1    3    3    0    0 -0.32008831031E+01 -0.26812634412E+02  0.18337203143E+02  0.32640711330E+02  0.51100000000E-03 0. -1.
        -11    1    3    3    0    0 -0.83924880696E+01 -0.16716896112E+01  0.10502638752E+02  0.13547465562E+02  0.51100000000E-03 0.  1.
         12    1    3    3    0    0 -0.86109703714E+00 -0.10760453354E+00  0.13431324795E+01  0.15990846446E+01  0.00000000000E+00 0. -1.
</event>
<event>
 7    1  0.2642243E-009  0.4778731E+02  0.7816164E-02  0.1312668E+00
        -11   -1    0    0    0    0  0.00000000000E+00  0.00000000000E+00  0.45593999997E+02  0.45594000000E+02  0.51100000000E-03 0.  1.
         11   -1    0    0    0    0 -0.00000000000E+00 -0.00000000000E+00 -0.45593999997E+02  0.45594000000E+02  0.51100000000E-03 0. -1.
    9900012    2    1    2    0    0 -0.38940576969E+02  0.13819811632E+02  0.13276464523E+02  0.47787306014E+02  0.20000159440E+02 0.  0.
        -12    1    1    2    0    0  0.38940576969E+02 -0.13819811632E+02 -0.13276464523E+02  0.43400693986E+02  0.00000000000E+00 0.  1.
         11    1    3    3    0    0 -0.14038078410E+02  0.83435513278E+01  0.57744393400E+01  0.17321277209E+02  0.51100000000E-03 0. -1.
        -11    1    3    3    0    0 -0.14226115333E+02 -0.90444183895E+00 -0.25412715548E+01  0.14479586800E+02  0.51100000000E-03 0.  1.
        -12    1    3    3    0    0 -0.10676383226E+02  0.63807021427E+01  0.10043296738E+02  0.15986442005E+02  0.00000000000E+00 0.  1.
</event>
<event>
 7    1  0.2642243E-009  0.4778727E+02  0.7816164E-02  0.1312668E+00
        -11   -1    0    0    0    0  0.00000000000E+00  0.00000000000E+00  0.45593999997E+02  0.45594000000E+02  0.51100000000E-03 0.  1.
         11   -1    0    0    0    0 -0.00000000000E+00 -0.00000000000E+00 -0.45593999997E+02  0.45594000000E+02  0.51100000000E-03 0. -1.
    9900012    2    1    2    0    0  0.11832648002E+02  0.15933565052E+02 -0.38597064109E+02  0.47787269455E+02  0.19999992754E+02 0.  0.
        -12    1    1    2    0    0 -0.11832648002E+02 -0.15933565052E+02  0.38597064109E+02  0.43400730545E+02  0.00000000000E+00 0.  1.
         11    1    3    3    0    0  0.10008602007E+02  0.41414444150E+01 -0.28413768127E+02  0.30408319509E+02  0.51100000000E-03 0. -1.
        -11    1    3    3    0    0  0.31409122604E+01  0.76914252877E+01 -0.26839090061E+01  0.87307915218E+01  0.51100000000E-03 0.  1.
         12    1    3    3    0    0 -0.13168662652E+01  0.41006953492E+01 -0.74993869761E+01  0.86481584239E+01  0.00000000000E+00 0. -1.
</event>
<event>
 7    1  0.2642243E-009  0.4778727E+02  0.7816164E-02  0.1312668E+00
        -11   -1    0    0    0    0  0.00000000000E+00  0.00000000000E+00  0.45593999997E+02  0.45594000000E+02  0.51100000000E-03 0. -1.
         11   -1    0    0    0    0 -0.00000000000E+00 -0.00000000000E+00 -0.45593999997E+02  0.45594000000E+02  0.51100000000E-03 0.  1.
    9900012    2    1    2    0    0  0.86695320051E+01  0.41342641529E+02 -0.99623561563E+01  0.47787270353E+02  0.19999996845E+02 0.  0.
        -12    1    1    2    0    0 -0.86695320051E+01 -0.41342641529E+02  0.99623561563E+01  0.43400729647E+02  0.00000000000E+00 0.  1.
         11    1    3    3    0    0  0.82323530716E+01  0.67300300449E+01  0.40385985967E+00  0.10640866720E+02  0.51100000000E-03 0. -1.
        -11    1    3    3    0    0  0.31380703144E+01  0.30182810202E+02 -0.99771208079E+01  0.31943582405E+02  0.51100000000E-03 0.  1.
        -12    1    3    3    0    0 -0.27008913810E+01  0.44298012812E+01 -0.38909520817E+00  0.52028212274E+01  0.00000000000E+00 0.  1.
</event>
<event>
 7    1  0.2642243E-009  0.4778727E+02  0.7816164E-02  0.1312668E+00
        -11   -1    0    0    0    0  0.00000000000E+00  0.00000000000E+00  0.45593999997E+02  0.45594000000E+02  0.51100000000E-03 0. -1.
         11   -1    0    0    0    0 -0.00000000000E+00 -0.00000000000E+00 -0.45593999997E+02  0.45594000000E+02  0.51100000000E-03 0.  1.
    9900012    2    1    2    0    0 -0.10415858496E+02 -0.41474707800E+02 -0.74149946500E+01  0.47787266816E+02  0.19999980719E+02 0.  0.
        -12    1    1    2    0    0  0.10415858496E+02  0.41474707800E+02  0.74149946500E+01  0.43400733184E+02  0.00000000000E+00 0.  1.
         11    1    3    3    0    0  0.48402855749E+01 -0.90734769055E+01  0.22618914634E+01  0.10529601173E+02  0.51100000000E-03 0. -1.
        -11    1    3    3    0    0 -0.12812887853E+02 -0.25136829069E+02 -0.64505969043E+01  0.28942019133E+02  0.51100000000E-03 0.  1.
        -12    1    3    3    0    0 -0.24432562177E+01 -0.72644018253E+01 -0.32262892091E+01  0.83156465104E+01  0.00000000000E+00 0.  1.
</event>
<event>
 7    1  0.2642243E-009  0.4778727E+02  0.7816164E-02  0.1312668E+00
        -11   -1    0    0    0    0  0.00000000000E+00  0.00000000000E+00  0.45593999997E+02  0.45594000000E+02  0.51100000000E-03 0. -1.
         11   -1    0    0    0    0 -0.00000000000E+00 -0.00000000000E+00 -0.45593999997E+02  0.45594000000E+02  0.51100000000E-03 0.  1.
    9900012    2    1    2    0    0 -0.39818343593E+02 -0.15912442608E+02 -0.67020122717E+01  0.47787270920E+02  0.19999999430E+02 0.  0.
        -12    1    1    2    0    0  0.39818343593E+02  0.15912442608E+02  0.67020122717E+01  0.43400729080E+02  0.00000000000E+00 0.  1.
         11    1    3    3    0    0 -0.61959027937E+01 -0.54601405554E+01  0.21404945798E+01  0.85313576658E+01  0.51100000000E-03 0. -1.
        -11    1    3    3    0    0 -0.34353382383E+02 -0.11851881008E+02 -0.73357236287E+01  0.37073370578E+02  0.51100000000E-03 0.  1.
        -12    1    3    3    0    0  0.73094158427E+00  0.13995789550E+01 -0.15067832229E+01  0.21825426758E+01  0.00000000000E+00 0.  1.
</event>
<event>
 7    1  0.2642243E-009  0.4778728E+02  0.7816164E-02  0.1312668E+00
        -11   -1    0    0    0    0  0.00000000000E+00  0.00000000000E+00  0.45593999997E+02  0.45594000000E+02  0.51100000000E-03 0. -1.
         11   -1    0    0    0    0 -0.00000000000E+00 -0.00000000000E+00 -0.45593999997E+02  0.45594000000E+02  0.51100000000E-03 0.  1.
    9900012    2    1    2    0    0  0.39458239414E+02  0.72225857937E+01 -0.16568169239E+02  0.47787278402E+02  0.20000033548E+02 0.  0.
        -12    1    1    2    0    0 -0.39458239414E+02 -0.72225857937E+01  0.16568169239E+02  0.43400721598E+02  0.00000000000E+00 0.  1.
         11    1    3    3    0    0  0.26329305506E+02  0.68366115109E+01 -0.52807699511E+01  0.27710252920E+02  0.51100000000E-03 0. -1.
        -11    1    3    3    0    0  0.84643179830E+01  0.33263227952E+01 -0.20556076473E+01  0.93238739435E+01  0.51100000000E-03 0.  1.
         12    1    3    3    0    0  0.46646159256E+01 -0.29403485124E+01 -0.92317916410E+01  0.10753151539E+02  0.00000000000E+00 0. -1.
</event>
<event>
 7    1  0.2642243E-009  0.4778726E+02  0.7816164E-02  0.1312668E+00
        -11   -1    0    0    0    0  0.00000000000E+00  0.00000000000E+00  0.45593999997E+02  0.45594000000E+02  0.51100000000E-03 0.  1.
         11   -1    0    0    0    0 -0.00000000000E+00 -0.00000000000E+00 -0.45593999997E+02  0.45594000000E+02  0.51100000000E-03 0. -1.
    9900012    2    1    2    0    0  0.16383108781E+02 -0.36674384974E+02 -0.16437976871E+02  0.47787264406E+02  0.19999969731E+02 0.  0.
        -12    1    1    2    0    0 -0.16383108781E+02  0.36674384974E+02  0.16437976871E+02  0.43400735594E+02  0.00000000000E+00 0.  1.
         11    1    3    3    0    0 -0.37956596665E+01 -0.25302383802E+01 -0.35067770866E+01  0.57538356216E+01  0.51100000000E-03 0. -1.
        -11    1    3    3    0    0  0.10072981537E+02 -0.18575257745E+02 -0.43007629422E+01  0.21563898522E+02  0.51100000000E-03 0.  1.
         12    1    3    3    0    0  0.10105786910E+02 -0.15568888849E+02 -0.86304368423E+01  0.20469530262E+02  0.00000000000E+00 0. -1.
</event>
<event>
 7    1  0.2642243E-009  0.4778727E+02  0.7816164E-02  0.1312668E+00
        -11   -1    0    0    0    0  0.00000000000E+00  0.00000000000E+00  0.45593999997E+02  0.45594000000E+02  0.51100000000E-03 0.  1.
         11   -1    0    0    0    0 -0.00000000000E+00 -0.00000000000E+00 -0.45593999997E+02  0.45594000000E+02  0.51100000000E-03 0. -1.
    9900012    2    1    2    0    0  0.19445919844E+02  0.71143396868E+01 -0.38142699652E+02  0.47787272305E+02  0.20000005747E+02 0.  0.
        -12    1    1    2    0    0 -0.19445919844E+02 -0.71143396868E+01  0.38142699652E+02  0.43400727695E+02  0.00000000000E+00 0.  1.
         11    1    3    3    0    0  0.28913597605E+01  0.90786608714E+01 -0.19302133015E+02  0.21525668019E+02  0.51100000000E-03 0. -1.
        -11    1    3    3    0    0  0.16407609274E+02 -0.10839344744E+01 -0.14797771189E+02  0.22121450867E+02  0.51100000000E-03 0.  1.
         12    1    3    3    0    0  0.14695080898E+00 -0.88038671012E+00 -0.40427954481E+01  0.41401534192E+01  0.00000000000E+00 0. -1.
</event>
<event>
 7    1  0.2642243E-009  0.4778727E+02  0.7816164E-02  0.1312668E+00
        -11   -1    0    0    0    0  0.00000000000E+00  0.00000000000E+00  0.45593999997E+02  0.45594000000E+02  0.51100000000E-03 0.  1.
         11   -1    0    0    0    0 -0.00000000000E+00 -0.00000000000E+00 -0.45593999997E+02  0.45594000000E+02  0.51100000000E-03 0. -1.
    9900012    2    1    2    0    0  0.17041344456E+02  0.56324362744E-01 -0.39915070352E+02  0.47787269194E+02  0.19999991563E+02 0.  0.
        -12    1    1    2    0    0 -0.17041344456E+02 -0.56324362744E-01  0.39915070352E+02  0.43400730806E+02  0.00000000000E+00 0.  1.
         11    1    3    3    0    0  0.91887056213E+01  0.86215184349E+01 -0.13630103944E+02  0.18561859414E+02  0.51100000000E-03 0. -1.
        -11    1    3    3    0    0  0.13055223060E+01 -0.52643904141E+01 -0.10374777178E+02  0.11707014849E+02  0.51100000000E-03 0.  1.
         12    1    3    3    0    0  0.65471165287E+01 -0.33008036580E+01 -0.15910189230E+02  0.17518394931E+02  0.00000000000E+00 0. -1.
</event>
<event>
 7    1  0.2642243E-009  0.4778726E+02  0.7816164E-02  0.1312668E+00
        -11   -1    0    0    0    0  0.00000000000E+00  0.00000000000E+00  0.45593999997E+02  0.45594000000E+02  0.51100000000E-03 0.  1.
         11   -1    0    0    0    0 -0.00000000000E+00 -0.00000000000E+00 -0.45593999997E+02  0.45594000000E+02  0.51100000000E-03 0. -1.
    9900012    2    1    2    0    0 -0.30926556491E+01 -0.23054539377E+02 -0.36640795455E+02  0.47787260416E+02  0.19999951540E+02 0.  0.
        -12    1    1    2    0    0  0.30926556491E+01  0.23054539377E+02  0.36640795455E+02  0.43400739584E+02  0.00000000000E+00 0.  1.
         11    1    3    3    0    0 -0.64271198367E+01 -0.90538067112E+01 -0.84559442008E+01  0.13956442167E+02  0.51100000000E-03 0. -1.
        -11    1    3    3    0    0  0.54016989824E+01 -0.46950906637E+01 -0.49093641799E+01  0.86789449329E+01  0.51100000000E-03 0.  1.
         12    1    3    3    0    0 -0.20672347948E+01 -0.93056420026E+01 -0.23275487074E+02  0.25151873316E+02  0.00000000000E+00 0. -1.
</event>
<event>
 7    1  0.2642243E-009  0.4778727E+02  0.7816164E-02  0.1312668E+00
        -11   -1    0    0    0    0  0.00000000000E+00  0.00000000000E+00  0.45593999997E+02  0.45594000000E+02  0.51100000000E-03 0.  1.
         11   -1    0    0    0    0 -0.00000000000E+00 -0.00000000000E+00 -0.45593999997E+02  0.45594000000E+02  0.51100000000E-03 0. -1.
    9900012    2    1    2    0    0 -0.24495816350E+02 -0.35559842112E+02 -0.43675674725E+01  0.47787273792E+02  0.20000012529E+02 0.  0.
        -12    1    1    2    0    0  0.24495816350E+02  0.35559842112E+02  0.43675674725E+01  0.43400726208E+02  0.00000000000E+00 0.  1.
         11    1    3    3    0    0 -0.96196751187E+01 -0.87155574609E+01  0.15397814490E+01  0.13071725916E+02  0.51100000000E-03 0. -1.
        -11    1    3    3    0    0 -0.40902179383E+01 -0.10701991433E+02 -0.96072350319E+01  0.14951972065E+02  0.51100000000E-03 0.  1.
        -12    1    3    3    0    0 -0.10785923293E+02 -0.16142293218E+02  0.36998861104E+01  0.19763575812E+02  0.00000000000E+00 0.  1.
</event>
<event>
 7    1  0.2642243E-009  0.4778726E+02  0.7816164E-02  0.1312668E+00
        -11   -1    0    0    0    0  0.00000000000E+00  0.00000000000E+00  0.45593999997E+02  0.45594000000E+02  0.51100000000E-03 0.  1.
         11   -1    0    0    0    0 -0.00000000000E+00 -0.00000000000E+00 -0.45593999997E+02  0.45594000000E+02  0.51100000000E-03 0. -1.
    9900012    2    1    2    0    0 -0.96223148968E+01  0.20129546241E+02 -0.37226824218E+02  0.47787262481E+02  0.19999960954E+02 0.  0.
        -12    1    1    2    0    0  0.96223148968E+01 -0.20129546241E+02  0.37226824218E+02  0.43400737519E+02  0.00000000000E+00 0.  1.
         11    1    3    3    0    0 -0.11231876686E+02  0.17596886541E+02 -0.21894146685E+02  0.30251597134E+02  0.51100000000E-03 0. -1.
        -11    1    3    3    0    0  0.44493520444E+01  0.33096681202E+01 -0.94348409152E+01  0.10943804642E+02  0.51100000000E-03 0.  1.
         12    1    3    3    0    0 -0.28397902556E+01 -0.77700842037E+00 -0.58978366177E+01  0.65918607047E+01  0.00000000000E+00 0. -1.
</event>
<event>
 7    1  0.2642243E-009  0.4778727E+02  0.7816164E-02  0.1312668E+00
        -11   -1    0    0    0    0  0.00000000000E+00  0.00000000000E+00  0.45593999997E+02  0.45594000000E+02  0.51100000000E-03 0.  1.
         11   -1    0    0    0    0 -0.00000000000E+00 -0.00000000000E+00 -0.45593999997E+02  0.45594000000E+02  0.51100000000E-03 0. -1.
    9900012    2    1    2    0    0 -0.44404174181E+01  0.48534576389E+00 -0.43170250066E+02  0.47787270074E+02  0.19999995573E+02 0.  0.
        -12    1    1    2    0    0  0.44404174181E+01 -0.48534576389E+00  0.43170250066E+02  0.43400729926E+02  0.00000000000E+00 0.  1.
         11    1    3    3    0    0 -0.67372783039E+01 -0.25412950126E+01 -0.60448480129E+01  0.94015576925E+01  0.51100000000E-03 0. -1.
        -11    1    3    3    0    0  0.77803485085E-01 -0.88937896839E+00 -0.29624660080E+02  0.29638109478E+02  0.51100000000E-03 0.  1.
        -12    1    3    3    0    0  0.22190574008E+01  0.39160197449E+01 -0.75007419733E+01  0.87476029025E+01  0.00000000000E+00 0.  1.
</event>
<event>
 7    1  0.2642243E-009  0.4778727E+02  0.7816164E-02  0.1312668E+00
        -11   -1    0    0    0    0  0.00000000000E+00  0.00000000000E+00  0.45593999997E+02  0.45594000000E+02  0.51100000000E-03 0. -1.
         11   -1    0    0    0    0 -0.00000000000E+00 -0.00000000000E+00 -0.45593999997E+02  0.45594000000E+02  0.51100000000E-03 0.  1.
    9900012    2    1    2    0    0  0.22189493900E+02  0.37019513032E+02  0.45612586202E+01  0.47787273452E+02  0.20000010978E+02 0.  0.
        -12    1    1    2    0    0 -0.22189493900E+02 -0.37019513032E+02 -0.45612586202E+01  0.43400726548E+02  0.00000000000E+00 0.  1.
         11    1    3    3    0    0  0.20841317011E+02  0.32309629543E+02 -0.22339903485E+01  0.38513158389E+02  0.51100000000E-03 0. -1.
        -11    1    3    3    0    0  0.23508231616E+01  0.17214980156E+01  0.45542480071E+01  0.54065793369E+01  0.51100000000E-03 0.  1.
         12    1    3    3    0    0 -0.10026462724E+01  0.29883854734E+01  0.22410009616E+01  0.38675357264E+01  0.00000000000E+00 0. -1.
</event>
<event>
 7    1  0.2642243E-009  0.4778727E+02  0.7816164E-02  0.1312668E+00
        -11   -1    0    0    0    0  0.00000000000E+00  0.00000000000E+00  0.45593999997E+02  0.45594000000E+02  0.51100000000E-03 0.  1.
         11   -1    0    0    0    0 -0.00000000000E+00 -0.00000000000E+00 -0.45593999997E+02  0.45594000000E+02  0.51100000000E-03 0. -1.
    9900012    2    1    2    0    0  0.28462299082E+02  0.29956549552E+02 -0.13271256333E+02  0.47787267578E+02  0.19999984195E+02 0.  0.
        -12    1    1    2    0    0 -0.28462299082E+02 -0.29956549552E+02  0.13271256333E+02  0.43400732422E+02  0.00000000000E+00 0.  1.
         11    1    3    3    0    0  0.14489181665E+02  0.13541907963E+02 -0.45964635065E+00  0.19837614061E+02  0.51100000000E-03 0. -1.
        -11    1    3    3    0    0  0.15881946406E+02  0.11681633254E+02 -0.10641636204E+02  0.22404044244E+02  0.51100000000E-03 0.  1.
        -12    1    3    3    0    0 -0.19088289889E+01  0.47330083351E+01 -0.21699737781E+01  0.55456092728E+01  0.00000000000E+00 0.  1.
</event>
<event>
 7    1  0.2642243E-009  0.4778727E+02  0.7816164E-02  0.1312668E+00
        -11   -1    0    0    0    0  0.00000000000E+00  0.00000000000E+00  0.45593999997E+02  0.45594000000E+02  0.51100000000E-03 0.  1.
         11   -1    0    0    0    0 -0.00000000000E+00 -0.00000000000E+00 -0.45593999997E+02  0.45594000000E+02  0.51100000000E-03 0. -1.
    9900012    2    1    2    0    0  0.31045421372E+02  0.17569259070E+02 -0.24720967469E+02  0.47787270916E+02  0.19999999415E+02 0.  0.
        -12    1    1    2    0    0 -0.31045421372E+02 -0.17569259070E+02  0.24720967469E+02  0.43400729084E+02  0.00000000000E+00 0.  1.
         11    1    3    3    0    0  0.58474042173E+01 -0.17080275182E+01  0.57583588521E-01  0.60920284154E+01  0.51100000000E-03 0. -1.
        -11    1    3    3    0    0  0.69072790044E+01  0.62273924404E+01 -0.16420337754E+01  0.94438972375E+01  0.51100000000E-03 0.  1.
         12    1    3    3    0    0  0.18290738150E+02  0.13049894147E+02 -0.23136517282E+02  0.32251345263E+02  0.00000000000E+00 0. -1.
</event>
<event>
 7    1  0.2642243E-009  0.4778727E+02  0.7816164E-02  0.1312668E+00
        -11   -1    0    0    0    0  0.00000000000E+00  0.00000000000E+00  0.45593999997E+02  0.45594000000E+02  0.51100000000E-03 0.  1.
         11   -1    0    0    0    0 -0.00000000000E+00 -0.00000000000E+00 -0.45593999997E+02  0.45594000000E+02  0.51100000000E-03 0. -1.
    9900012    2    1    2    0    0 -0.50514011427E+01  0.28820047569E+02 -0.32054821783E+02  0.47787269649E+02  0.19999993640E+02 0.  0.
        -12    1    1    2    0    0  0.50514011427E+01 -0.28820047569E+02  0.32054821783E+02  0.43400730351E+02  0.00000000000E+00 0.  1.
         11    1    3    3    0    0 -0.13367917428E+01  0.10148804422E+02 -0.18336531514E+02  0.21000324559E+02  0.51100000000E-03 0. -1.
        -11    1    3    3    0    0 -0.80231311130E+01  0.75843990884E+01 -0.55441053385E+01  0.12354385725E+02  0.51100000000E-03 0.  1.
        -12    1    3    3    0    0  0.43085217131E+01  0.11086844059E+02 -0.81741849308E+01  0.14432559365E+02  0.00000000000E+00 0.  1.
</event>
<event>
 7    1  0.2642243E-009  0.4778724E+02  0.7816164E-02  0.1312668E+00
        -11   -1    0    0    0    0  0.00000000000E+00  0.00000000000E+00  0.45593999997E+02  0.45594000000E+02  0.51100000000E-03 0.  1.
         11   -1    0    0    0    0 -0.00000000000E+00 -0.00000000000E+00 -0.45593999997E+02  0.45594000000E+02  0.51100000000E-03 0. -1.
    9900012    2    1    2    0    0 -0.30057895679E+02 -0.21552670292E+02 -0.22707511289E+02  0.47787242422E+02  0.19999869500E+02 0.  0.
        -12    1    1    2    0    0  0.30057895679E+02  0.21552670292E+02  0.22707511289E+02  0.43400757578E+02  0.00000000000E+00 0.  1.
         11    1    3    3    0    0 -0.87042579845E+01 -0.15554271861E+02 -0.13380629323E+02  0.22287680937E+02  0.51100000000E-03 0. -1.
        -11    1    3    3    0    0 -0.51241599008E+01 -0.19438354725E+01  0.13629602500E+01  0.56474039998E+01  0.51100000000E-03 0.  1.
         12    1    3    3    0    0 -0.16229477794E+02 -0.40545629580E+01 -0.10689842216E+02  0.19852157486E+02  0.00000000000E+00 0. -1.
</event>
<event>
 7    1  0.2642243E-009  0.4778727E+02  0.7816164E-02  0.1312668E+00
        -11   -1    0    0    0    0  0.00000000000E+00  0.00000000000E+00  0.45593999997E+02  0.45594000000E+02  0.51100000000E-03 0.  1.
         11   -1    0    0    0    0 -0.00000000000E+00 -0.00000000000E+00 -0.45593999997E+02  0.45594000000E+02  0.51100000000E-03 0. -1.
    9900012    2    1    2    0    0 -0.21465492895E+02 -0.37569399360E+02  0.33757907631E+01  0.47787272854E+02  0.20000008250E+02 0.  0.
        -12    1    1    2    0    0  0.21465492895E+02  0.37569399360E+02 -0.33757907631E+01  0.43400727146E+02  0.00000000000E+00 0.  1.
         11    1    3    3    0    0 -0.56649180622E+00 -0.18032515284E+02 -0.11529709253E+00  0.18041779683E+02  0.51100000000E-03 0. -1.
        -11    1    3    3    0    0 -0.77758071803E+01 -0.39879373906E+01 -0.13194428335E+01  0.88378589934E+01  0.51100000000E-03 0.  1.
         12    1    3    3    0    0 -0.13123193909E+02 -0.15548946686E+02  0.48105306891E+01  0.20907634178E+02  0.00000000000E+00 0. -1.
</event>
<event>
 7    1  0.2642243E-009  0.4778727E+02  0.7816164E-02  0.1312668E+00
        -11   -1    0    0    0    0  0.00000000000E+00  0.00000000000E+00  0.45593999997E+02  0.45594000000E+02  0.51100000000E-03 0.  1.
         11   -1    0    0    0    0 -0.00000000000E+00 -0.00000000000E+00 -0.45593999997E+02  0.45594000000E+02  0.51100000000E-03 0. -1.
    9900012    2    1    2    0    0  0.36142277851E+02  0.16003353971E+02 -0.17923492877E+02  0.47787272086E+02  0.20000004748E+02 0.  0.
        -12    1    1    2    0    0 -0.36142277851E+02 -0.16003353971E+02  0.17923492877E+02  0.43400727914E+02  0.00000000000E+00 0.  1.
         11    1    3    3    0    0  0.26239017842E+02  0.16968912421E+02 -0.17023240103E+02  0.35583995699E+02  0.51100000000E-03 0. -1.
        -11    1    3    3    0    0  0.61724337253E+01 -0.37628023162E+01 -0.18105926572E+01  0.74522389518E+01  0.51100000000E-03 0.  1.
        -12    1    3    3    0    0  0.37308262834E+01  0.27972438666E+01  0.91033988286E+00  0.47510374350E+01  0.00000000000E+00 0.  1.
</event>
<event>
 7    1  0.2642243E-009  0.4778727E+02  0.7816164E-02  0.1312668E+00
        -11   -1    0    0    0    0  0.00000000000E+00  0.00000000000E+00  0.45593999997E+02  0.45594000000E+02  0.51100000000E-03 0.  1.
         11   -1    0    0    0    0 -0.00000000000E+00 -0.00000000000E+00 -0.45593999997E+02  0.45594000000E+02  0.51100000000E-03 0. -1.
    9900012    2    1    2    0    0  0.35633813290E+02 -0.42333121386E+01 -0.24411753409E+02  0.47787270908E+02  0.19999999377E+02 0.  0.
        -12    1    1    2    0    0 -0.35633813290E+02  0.42333121386E+01  0.24411753409E+02  0.43400729092E+02  0.00000000000E+00 0.  1.
         11    1    3    3    0    0  0.23254230590E+02 -0.49218177950E+01 -0.22675314132E+02  0.32850470346E+02  0.51100000000E-03 0. -1.
        -11    1    3    3    0    0  0.11925613260E+02  0.10970951938E+01  0.11083842735E+01  0.12027152010E+02  0.51100000000E-03 0.  1.
        -12    1    3    3    0    0  0.45396943936E+00 -0.40858953740E+00 -0.28448235506E+01  0.29096485520E+01  0.00000000000E+00 0.  1.
</event>
<event>
 7    1  0.2642243E-009  0.4778727E+02  0.7816164E-02  0.1312668E+00
        -11   -1    0    0    0    0  0.00000000000E+00  0.00000000000E+00  0.45593999997E+02  0.45594000000E+02  0.51100000000E-03 0.  1.
         11   -1    0    0    0    0 -0.00000000000E+00 -0.00000000000E+00 -0.45593999997E+02  0.45594000000E+02  0.51100000000E-03 0. -1.
    9900012    2    1    2    0    0 -0.59594389213E+01 -0.41281339803E+02  0.11998300932E+02  0.47787272431E+02  0.20000006324E+02 0.  0.
        -12    1    1    2    0    0  0.59594389213E+01  0.41281339803E+02 -0.11998300932E+02  0.43400727569E+02  0.00000000000E+00 0.  1.
         11    1    3    3    0    0 -0.12808438625E+01 -0.25486466820E+02  0.73530621236E+01  0.26556883756E+02  0.51100000000E-03 0. -1.
        -11    1    3    3    0    0 -0.24721587558E+01 -0.34532079130E+01  0.72715604020E+01  0.84209147214E+01  0.51100000000E-03 0.  1.
        -12    1    3    3    0    0 -0.22064363029E+01 -0.12341665070E+02 -0.26263215935E+01  0.12809473954E+02  0.00000000000E+00 0.  1.
</event>
<event>
 7    1  0.2642243E-009  0.4778726E+02  0.7816164E-02  0.1312668E+00
        -11   -1    0    0    0    0  0.00000000000E+00  0.00000000000E+00  0.45593999997E+02  0.45594000000E+02  0.51100000000E-03 0.  1.
         11   -1    0    0    0    0 -0.00000000000E+00 -0.00000000000E+00 -0.45593999997E+02  0.45594000000E+02  0.51100000000E-03 0. -1.
    9900012    2    1    2    0    0  0.94625856490E+01 -0.39068823495E+02 -0.16361859075E+02  0.47787263499E+02  0.19999965597E+02 0.  0.
        -12    1    1    2    0    0 -0.94625856490E+01  0.39068823495E+02  0.16361859075E+02  0.43400736501E+02  0.00000000000E+00 0.  1.
         11    1    3    3    0    0  0.88475140823E+01 -0.95216401256E+01 -0.27526829065E+01  0.13285985081E+02  0.51100000000E-03 0. -1.
        -11    1    3    3    0    0 -0.12687638358E-01 -0.25321280003E+02 -0.63939875373E+01  0.26116095781E+02  0.51100000000E-03 0.  1.
        -12    1    3    3    0    0  0.62775920511E+00 -0.42259033667E+01 -0.72151886309E+01  0.83851826374E+01  0.00000000000E+00 0.  1.
</event>
<event>
 7    1  0.2642243E-009  0.4778727E+02  0.7816164E-02  0.1312668E+00
        -11   -1    0    0    0    0  0.00000000000E+00  0.00000000000E+00  0.45593999997E+02  0.45594000000E+02  0.51100000000E-03 0.  1.
         11   -1    0    0    0    0 -0.00000000000E+00 -0.00000000000E+00 -0.45593999997E+02  0.45594000000E+02  0.51100000000E-03 0. -1.
    9900012    2    1    2    0    0  0.21985616897E+02  0.11394821011E+01 -0.37402638637E+02  0.47787272508E+02  0.20000006674E+02 0.  0.
        -12    1    1    2    0    0 -0.21985616897E+02 -0.11394821011E+01  0.37402638637E+02  0.43400727492E+02  0.00000000000E+00 0.  1.
         11    1    3    3    0    0  0.17202832994E+02 -0.37895335473E+01 -0.20873279976E+02  0.27312851275E+02  0.51100000000E-03 0. -1.
        -11    1    3    3    0    0  0.17027194699E+01  0.30805578837E+01  0.40112143984E-01  0.35200425726E+01  0.51100000000E-03 0.  1.
         12    1    3    3    0    0  0.30800644327E+01  0.18484577647E+01 -0.16569470805E+02  0.16954378661E+02  0.00000000000E+00 0. -1.
</event>
<event>
 7    1  0.2642243E-009  0.4778727E+02  0.7816164E-02  0.1312668E+00
        -11   -1    0    0    0    0  0.00000000000E+00  0.00000000000E+00  0.45593999997E+02  0.45594000000E+02  0.51100000000E-03 0.  1.
         11   -1    0    0    0    0 -0.00000000000E+00 -0.00000000000E+00 -0.45593999997E+02  0.45594000000E+02  0.51100000000E-03 0. -1.
    9900012    2    1    2    0    0 -0.30043228450E+02 -0.28243437997E+02 -0.13540174054E+02  0.47787266377E+02  0.19999978721E+02 0.  0.
        -12    1    1    2    0    0  0.30043228450E+02  0.28243437997E+02  0.13540174054E+02  0.43400733623E+02  0.00000000000E+00 0.  1.
         11    1    3    3    0    0 -0.27395511878E+02 -0.14577633207E+02 -0.87562892359E+01  0.32244287284E+02  0.51100000000E-03 0. -1.
        -11    1    3    3    0    0 -0.83483986845E+00 -0.71374082884E+01  0.10674418937E+00  0.71868594855E+01  0.51100000000E-03 0.  1.
        -12    1    3    3    0    0 -0.18128767034E+01 -0.65283965013E+01 -0.48906290073E+01  0.83561196083E+01  0.00000000000E+00 0.  1.
</event>
<event>
 7    1  0.2642243E-009  0.4778727E+02  0.7816164E-02  0.1312668E+00
        -11   -1    0    0    0    0  0.00000000000E+00  0.00000000000E+00  0.45593999997E+02  0.45594000000E+02  0.51100000000E-03 0.  1.
         11   -1    0    0    0    0 -0.00000000000E+00 -0.00000000000E+00 -0.45593999997E+02  0.45594000000E+02  0.51100000000E-03 0. -1.
    9900012    2    1    2    0    0 -0.24343618047E+02 -0.13955062332E+02 -0.33109936663E+02  0.47787269474E+02  0.19999992841E+02 0.  0.
        -12    1    1    2    0    0  0.24343618047E+02  0.13955062332E+02  0.33109936663E+02  0.43400730526E+02  0.00000000000E+00 0.  1.
         11    1    3    3    0    0  0.10285905210E+00  0.15305118846E+01 -0.19197248948E+01  0.24573136849E+01  0.51100000000E-03 0. -1.
        -11    1    3    3    0    0 -0.15588921417E+02 -0.16827486802E+01 -0.10253526292E+02  0.18734484667E+02  0.51100000000E-03 0.  1.
        -12    1    3    3    0    0 -0.88575556819E+01 -0.13802825536E+02 -0.20936685477E+02  0.26595471122E+02  0.00000000000E+00 0.  1.
</event>
<event>
 7    1  0.2642243E-009  0.4778727E+02  0.7816164E-02  0.1312668E+00
        -11   -1    0    0    0    0  0.00000000000E+00  0.00000000000E+00  0.45593999997E+02  0.45594000000E+02  0.51100000000E-03 0. -1.
         11   -1    0    0    0    0 -0.00000000000E+00 -0.00000000000E+00 -0.45593999997E+02  0.45594000000E+02  0.51100000000E-03 0.  1.
    9900012    2    1    2    0    0  0.58786052197E+01 -0.21068410838E+01  0.42949114855E+02  0.47787271371E+02  0.20000001490E+02 0.  0.
        -12    1    1    2    0    0 -0.58786052197E+01  0.21068410838E+01 -0.42949114855E+02  0.43400728629E+02  0.00000000000E+00 0.  1.
         11    1    3    3    0    0  0.80122067432E+00  0.69956281430E+01  0.26669293432E+02  0.27583182922E+02  0.51100000000E-03 0. -1.
        -11    1    3    3    0    0  0.61532536865E+00  0.65586245252E+00  0.28476688439E+00  0.94333096286E+00  0.51100000000E-03 0.  1.
         12    1    3    3    0    0  0.44620591767E+01 -0.97583316794E+01  0.15995054538E+02  0.19260757486E+02  0.00000000000E+00 0. -1.
</event>
<event>
 7    1  0.2642243E-009  0.4778728E+02  0.7816164E-02  0.1312668E+00
        -11   -1    0    0    0    0  0.00000000000E+00  0.00000000000E+00  0.45593999997E+02  0.45594000000E+02  0.51100000000E-03 0. -1.
         11   -1    0    0    0    0 -0.00000000000E+00 -0.00000000000E+00 -0.45593999997E+02  0.45594000000E+02  0.51100000000E-03 0.  1.
    9900012    2    1    2    0    0  0.41409848996E+02 -0.12991756789E+02  0.24689693109E+00  0.47787282305E+02  0.20000051341E+02 0.  0.
        -12    1    1    2    0    0 -0.41409848996E+02  0.12991756789E+02 -0.24689693109E+00  0.43400717695E+02  0.00000000000E+00 0.  1.
         11    1    3    3    0    0  0.21036948409E+02 -0.74138948048E+01  0.90326547290E+01  0.24064660527E+02  0.51100000000E-03 0. -1.
        -11    1    3    3    0    0  0.78344256477E+01 -0.41359566837E+01 -0.62694139340E+01  0.10853106203E+02  0.51100000000E-03 0.  1.
         12    1    3    3    0    0  0.12538474939E+02 -0.14419053003E+01 -0.25163438639E+01  0.12869515575E+02  0.00000000000E+00 0. -1.
</event>
<event>
 7    1  0.2642243E-009  0.4778726E+02  0.7816164E-02  0.1312668E+00
        -11   -1    0    0    0    0  0.00000000000E+00  0.00000000000E+00  0.45593999997E+02  0.45594000000E+02  0.51100000000E-03 0.  1.
         11   -1    0    0    0    0 -0.00000000000E+00 -0.00000000000E+00 -0.45593999997E+02  0.45594000000E+02  0.51100000000E-03 0. -1.
    9900012    2    1    2    0    0 -0.32043002837E+01 -0.19472598790E+02 -0.38654554654E+02  0.47787259921E+02  0.19999949283E+02 0.  0.
        -12    1    1    2    0    0  0.32043002837E+01  0.19472598790E+02  0.38654554654E+02  0.43400740079E+02  0.00000000000E+00 0.  1.
         11    1    3    3    0    0 -0.66275401550E+01 -0.85794371542E+01 -0.29811442710E+02  0.31721493457E+02  0.51100000000E-03 0. -1.
        -11    1    3    3    0    0  0.46536320037E+01 -0.67022501699E+01 -0.28352968656E+01  0.86380181027E+01  0.51100000000E-03 0.  1.
        -12    1    3    3    0    0 -0.12303921324E+01 -0.41909114657E+01 -0.60078150777E+01  0.74277483614E+01  0.00000000000E+00 0.  1.
</event>
<event>
 7    1  0.2642243E-009  0.4778729E+02  0.7816164E-02  0.1312668E+00
        -11   -1    0    0    0    0  0.00000000000E+00  0.00000000000E+00  0.45593999997E+02  0.45594000000E+02  0.51100000000E-03 0.  1.
         11   -1    0    0    0    0 -0.00000000000E+00 -0.00000000000E+00 -0.45593999997E+02  0.45594000000E+02  0.51100000000E-03 0. -1.
    9900012    2    1    2    0    0  0.24986348368E+02 -0.16720745547E+02 -0.31300483772E+02  0.47787294697E+02  0.20000107843E+02 0.  0.
        -12    1    1    2    0    0 -0.24986348368E+02  0.16720745547E+02  0.31300483772E+02  0.43400705303E+02  0.00000000000E+00 0.  1.
         11    1    3    3    0    0  0.50776322610E+01  0.20399037940E+01 -0.21267982361E+01  0.58708455835E+01  0.51100000000E-03 0. -1.
        -11    1    3    3    0    0  0.12876918232E+02 -0.19101271964E+02 -0.23005113854E+02  0.32556241760E+02  0.51100000000E-03 0.  1.
        -12    1    3    3    0    0  0.70317978745E+01  0.34062262342E+00 -0.61685716819E+01  0.93602073542E+01  0.00000000000E+00 0.  1.
</event>
<event>
 7    1  0.2642243E-009  0.4778727E+02  0.7816164E-02  0.1312668E+00
        -11   -1    0    0    0    0  0.00000000000E+00  0.00000000000E+00  0.45593999997E+02  0.45594000000E+02  0.51100000000E-03 0. -1.
         11   -1    0    0    0    0 -0.00000000000E+00 -0.00000000000E+00 -0.45593999997E+02  0.45594000000E+02  0.51100000000E-03 0.  1.
    9900012    2    1    2    0    0 -0.41782806745E+01  0.41598903514E+02  0.11648873769E+02  0.47787273473E+02  0.20000011073E+02 0.  0.
        -12    1    1    2    0    0  0.41782806745E+01 -0.41598903514E+02 -0.11648873769E+02  0.43400726527E+02  0.00000000000E+00 0.  1.
         11    1    3    3    0    0 -0.43994983319E+01  0.22059615326E+02  0.64372275262E-01  0.22494140525E+02  0.51100000000E-03 0. -1.
        -11    1    3    3    0    0  0.36019419838E+01  0.18040258694E+02  0.11287299373E+02  0.21583049998E+02  0.51100000000E-03 0.  1.
        -12    1    3    3    0    0 -0.33807243264E+01  0.14990294938E+01  0.29720212039E+00  0.37100829499E+01  0.00000000000E+00 0.  1.
</event>
<event>
 7    1  0.2642243E-009  0.4778727E+02  0.7816164E-02  0.1312668E+00
        -11   -1    0    0    0    0  0.00000000000E+00  0.00000000000E+00  0.45593999997E+02  0.45594000000E+02  0.51100000000E-03 0.  1.
         11   -1    0    0    0    0 -0.00000000000E+00 -0.00000000000E+00 -0.45593999997E+02  0.45594000000E+02  0.51100000000E-03 0. -1.
    9900012    2    1    2    0    0 -0.13183174243E+02  0.34387896754E+02 -0.22963011040E+02  0.47787269565E+02  0.19999993255E+02 0.  0.
        -12    1    1    2    0    0  0.13183174243E+02 -0.34387896754E+02  0.22963011040E+02  0.43400730435E+02  0.00000000000E+00 0.  1.
         11    1    3    3    0    0 -0.70597172231E+01  0.13325690100E+02 -0.13579436075E+02  0.20293218283E+02  0.51100000000E-03 0. -1.
        -11    1    3    3    0    0 -0.92999871558E+01  0.88121347217E+01 -0.70566550622E+01  0.14626683164E+02  0.51100000000E-03 0.  1.
        -12    1    3    3    0    0  0.31765301359E+01  0.12250071932E+02 -0.23269199026E+01  0.12867368118E+02  0.00000000000E+00 0.  1.
</event>
<event>
 7    1  0.2642243E-009  0.4778727E+02  0.7816164E-02  0.1312668E+00
        -11   -1    0    0    0    0  0.00000000000E+00  0.00000000000E+00  0.45593999997E+02  0.45594000000E+02  0.51100000000E-03 0.  1.
         11   -1    0    0    0    0 -0.00000000000E+00 -0.00000000000E+00 -0.45593999997E+02  0.45594000000E+02  0.51100000000E-03 0. -1.
    9900012    2    1    2    0    0  0.14508614547E+02 -0.23202258682E+02 -0.33686471283E+02  0.47787273606E+02  0.20000011681E+02 0.  0.
        -12    1    1    2    0    0 -0.14508614547E+02  0.23202258682E+02  0.33686471283E+02  0.43400726394E+02  0.00000000000E+00 0.  1.
         11    1    3    3    0    0  0.98810033430E+01 -0.16185535224E+02 -0.26426941782E+02  0.32526743301E+02  0.51100000000E-03 0. -1.
        -11    1    3    3    0    0  0.27791151508E+01  0.24917943513E+01 -0.21886204635E+01  0.43269596607E+01  0.51100000000E-03 0.  1.
        -12    1    3    3    0    0  0.18484960531E+01 -0.95085178091E+01 -0.50709090372E+01  0.10933570645E+02  0.00000000000E+00 0.  1.
</event>
<event>
 7    1  0.2642243E-009  0.4778727E+02  0.7816164E-02  0.1312668E+00
        -11   -1    0    0    0    0  0.00000000000E+00  0.00000000000E+00  0.45593999997E+02  0.45594000000E+02  0.51100000000E-03 0.  1.
         11   -1    0    0    0    0 -0.00000000000E+00 -0.00000000000E+00 -0.45593999997E+02  0.45594000000E+02  0.51100000000E-03 0. -1.
    9900012    2    1    2    0    0 -0.19953777709E+02  0.15074993753E+02 -0.35471324713E+02  0.47787267767E+02  0.19999985056E+02 0.  0.
        -12    1    1    2    0    0  0.19953777709E+02 -0.15074993753E+02  0.35471324713E+02  0.43400732233E+02  0.00000000000E+00 0.  1.
         11    1    3    3    0    0 -0.12141925578E+02  0.85266002603E+01 -0.29368959494E+02  0.32903875923E+02  0.51100000000E-03 0. -1.
        -11    1    3    3    0    0 -0.43017542070E+01  0.92668120431E+00 -0.69251429684E+01  0.82049639064E+01  0.51100000000E-03 0.  1.
         12    1    3    3    0    0 -0.35100979244E+01  0.56217122882E+01  0.82277774959E+00  0.66784279374E+01  0.00000000000E+00 0. -1.
</event>
<event>
 7    1  0.2642243E-009  0.4778726E+02  0.7816164E-02  0.1312668E+00
        -11   -1    0    0    0    0  0.00000000000E+00  0.00000000000E+00  0.45593999997E+02  0.45594000000E+02  0.51100000000E-03 0.  1.
         11   -1    0    0    0    0 -0.00000000000E+00 -0.00000000000E+00 -0.45593999997E+02  0.45594000000E+02  0.51100000000E-03 0. -1.
    9900012    2    1    2    0    0  0.83607945046E+01  0.78901044101E+01 -0.41850537321E+02  0.47787261453E+02  0.19999956268E+02 0.  0.
        -12    1    1    2    0    0 -0.83607945046E+01 -0.78901044101E+01  0.41850537321E+02  0.43400738547E+02  0.00000000000E+00 0.  1.
         11    1    3    3    0    0  0.78604817066E+00 -0.46511828665E+01 -0.22189586524E+02  0.22685438593E+02  0.51100000000E-03 0. -1.
        -11    1    3    3    0    0  0.75355877968E+01  0.11973343187E+02 -0.19954937402E+02  0.24461102950E+02  0.51100000000E-03 0.  1.
        -12    1    3    3    0    0  0.39158537105E-01  0.56794408924E+00  0.29398660482E+00  0.64071991022E+00  0.00000000000E+00 0.  1.
</event>
<event>
 7    1  0.2642243E-009  0.4778728E+02  0.7816164E-02  0.1312668E+00
        -11   -1    0    0    0    0  0.00000000000E+00  0.00000000000E+00  0.45593999997E+02  0.45594000000E+02  0.51100000000E-03 0.  1.
         11   -1    0    0    0    0 -0.00000000000E+00 -0.00000000000E+00 -0.45593999997E+02  0.45594000000E+02  0.51100000000E-03 0. -1.
    9900012    2    1    2    0    0  0.32704083729E+01 -0.21402208771E+02 -0.37614792838E+02  0.47787277063E+02  0.20000027442E+02 0.  0.
        -12    1    1    2    0    0 -0.32704083729E+01  0.21402208771E+02  0.37614792838E+02  0.43400722937E+02  0.00000000000E+00 0.  1.
         11    1    3    3    0    0  0.12844291084E+01 -0.17190384974E+02 -0.11071673401E+02  0.20487582724E+02  0.51100000000E-03 0. -1.
        -11    1    3    3    0    0  0.13332198828E+01 -0.26885412629E+01 -0.24432893658E+02  0.24616498982E+02  0.51100000000E-03 0.  1.
        -12    1    3    3    0    0  0.65275938180E+00 -0.15232825333E+01 -0.21102257792E+01  0.26831953574E+01  0.00000000000E+00 0.  1.
</event>
<event>
 7    1  0.2642243E-009  0.4778727E+02  0.7816164E-02  0.1312668E+00
        -11   -1    0    0    0    0  0.00000000000E+00  0.00000000000E+00  0.45593999997E+02  0.45594000000E+02  0.51100000000E-03 0.  1.
         11   -1    0    0    0    0 -0.00000000000E+00 -0.00000000000E+00 -0.45593999997E+02  0.45594000000E+02  0.51100000000E-03 0. -1.
    9900012    2    1    2    0    0 -0.13669646067E+02 -0.34910286310E+02 -0.21864029511E+02  0.47787273044E+02  0.20000009117E+02 0.  0.
        -12    1    1    2    0    0  0.13669646067E+02  0.34910286310E+02  0.21864029511E+02  0.43400726956E+02  0.00000000000E+00 0.  1.
         11    1    3    3    0    0 -0.17606046538E+02 -0.22017413101E+02 -0.14547404324E+02  0.31723277372E+02  0.51100000000E-03 0. -1.
        -11    1    3    3    0    0  0.45452189512E+01 -0.76623019633E+01 -0.35526582911E+01  0.95912078429E+01  0.51100000000E-03 0.  1.
         12    1    3    3    0    0 -0.60881848017E+00 -0.52305712451E+01 -0.37639668960E+01  0.64727878295E+01  0.00000000000E+00 0. -1.
</event>
<event>
 7    1  0.2642243E-009  0.4778727E+02  0.7816164E-02  0.1312668E+00
        -11   -1    0    0    0    0  0.00000000000E+00  0.00000000000E+00  0.45593999997E+02  0.45594000000E+02  0.51100000000E-03 0.  1.
         11   -1    0    0    0    0 -0.00000000000E+00 -0.00000000000E+00 -0.45593999997E+02  0.45594000000E+02  0.51100000000E-03 0. -1.
    9900012    2    1    2    0    0 -0.33317175643E+02 -0.52832864494E+01 -0.27307069790E+02  0.47787269948E+02  0.19999995001E+02 0.  0.
        -12    1    1    2    0    0  0.33317175643E+02  0.52832864494E+01  0.27307069790E+02  0.43400730052E+02  0.00000000000E+00 0.  1.
         11    1    3    3    0    0 -0.16492040740E+02  0.47240580836E+01 -0.86502998683E+01  0.19212803560E+02  0.51100000000E-03 0. -1.
        -11    1    3    3    0    0  0.58142622874E+00  0.91563253061E+00 -0.11176097539E+01  0.15573988615E+01  0.51100000000E-03 0.  1.
         12    1    3    3    0    0 -0.17406561131E+02 -0.10922977064E+02 -0.17539160168E+02  0.27017067527E+02  0.00000000000E+00 0. -1.
</event>
<event>
 7    1  0.2642243E-009  0.4778727E+02  0.7816164E-02  0.1312668E+00
        -11   -1    0    0    0    0  0.00000000000E+00  0.00000000000E+00  0.45593999997E+02  0.45594000000E+02  0.51100000000E-03 0. -1.
         11   -1    0    0    0    0 -0.00000000000E+00 -0.00000000000E+00 -0.45593999997E+02  0.45594000000E+02  0.51100000000E-03 0.  1.
    9900012    2    1    2    0    0  0.14058036698E+02 -0.16667405550E+02  0.37525888562E+02  0.47787272864E+02  0.20000008296E+02 0.  0.
        -12    1    1    2    0    0 -0.14058036698E+02  0.16667405550E+02 -0.37525888562E+02  0.43400727136E+02  0.00000000000E+00 0.  1.
         11    1    3    3    0    0  0.13126421801E+02 -0.97842390480E+01  0.11274250345E+02  0.19878204249E+02  0.51100000000E-03 0. -1.
        -11    1    3    3    0    0 -0.26344969286E+01 -0.34051265303E+01  0.94492163219E+01  0.10383792665E+02  0.51100000000E-03 0.  1.
        -12    1    3    3    0    0  0.35661118252E+01 -0.34780399715E+01  0.16802421895E+02  0.17525275950E+02  0.00000000000E+00 0.  1.
</event>
<event>
 7    1  0.2642243E-009  0.4778727E+02  0.7816164E-02  0.1312668E+00
        -11   -1    0    0    0    0  0.00000000000E+00  0.00000000000E+00  0.45593999997E+02  0.45594000000E+02  0.51100000000E-03 0.  1.
         11   -1    0    0    0    0 -0.00000000000E+00 -0.00000000000E+00 -0.45593999997E+02  0.45594000000E+02  0.51100000000E-03 0. -1.
    9900012    2    1    2    0    0 -0.22913868742E+02 -0.18106294238E+02 -0.32105139416E+02  0.47787271335E+02  0.20000001327E+02 0.  0.
        -12    1    1    2    0    0  0.22913868742E+02  0.18106294238E+02  0.32105139416E+02  0.43400728665E+02  0.00000000000E+00 0.  1.
         11    1    3    3    0    0 -0.10177105979E+02 -0.31769312384E+01 -0.19306191100E+02  0.22054373563E+02  0.51100000000E-03 0. -1.
        -11    1    3    3    0    0 -0.47606530542E+01 -0.13006008126E+02 -0.99267328879E+01  0.17039955721E+02  0.51100000000E-03 0.  1.
         12    1    3    3    0    0 -0.79761097087E+01 -0.19233548733E+01 -0.28722154274E+01  0.86929420518E+01  0.00000000000E+00 0. -1.
</event>
<event>
 7    1  0.2642243E-009  0.4778726E+02  0.7816164E-02  0.1312668E+00
        -11   -1    0    0    0    0  0.00000000000E+00  0.00000000000E+00  0.45593999997E+02  0.45594000000E+02  0.51100000000E-03 0.  1.
         11   -1    0    0    0    0 -0.00000000000E+00 -0.00000000000E+00 -0.45593999997E+02  0.45594000000E+02  0.51100000000E-03 0. -1.
    9900012    2    1    2    0    0 -0.25449984861E+02  0.29980847207E+02 -0.18359499478E+02  0.47787260953E+02  0.19999953991E+02 0.  0.
        -12    1    1    2    0    0  0.25449984861E+02 -0.29980847207E+02  0.18359499478E+02  0.43400739047E+02  0.00000000000E+00 0.  1.
         11    1    3    3    0    0  0.14682440933E+01  0.27561648289E+00 -0.13687744552E+01  0.20261413903E+01  0.51100000000E-03 0. -1.
        -11    1    3    3    0    0 -0.20895248070E+02  0.27807086870E+02 -0.18312987930E+02  0.39309171948E+02  0.51100000000E-03 0.  1.
        -12    1    3    3    0    0 -0.60229808848E+01  0.18981438547E+01  0.13222629068E+01  0.64519476150E+01  0.00000000000E+00 0.  1.
</event>
<event>
 7    1  0.2642243E-009  0.4778727E+02  0.7816164E-02  0.1312668E+00
        -11   -1    0    0    0    0  0.00000000000E+00  0.00000000000E+00  0.45593999997E+02  0.45594000000E+02  0.51100000000E-03 0.  1.
         11   -1    0    0    0    0 -0.00000000000E+00 -0.00000000000E+00 -0.45593999997E+02  0.45594000000E+02  0.51100000000E-03 0. -1.
    9900012    2    1    2    0    0 -0.64187769178E+00  0.30960515830E+02 -0.30408185821E+02  0.47787270601E+02  0.19999997976E+02 0.  0.
        -12    1    1    2    0    0  0.64187769178E+00 -0.30960515830E+02  0.30408185821E+02  0.43400729399E+02  0.00000000000E+00 0.  1.
         11    1    3    3    0    0 -0.38080316945E+01  0.30781918789E+02 -0.21693903898E+02  0.37850404177E+02  0.51100000000E-03 0. -1.
        -11    1    3    3    0    0  0.19432541128E+01 -0.84917471992E+00 -0.16300696426E+01  0.26747825244E+01  0.51100000000E-03 0.  1.
         12    1    3    3    0    0  0.12228998900E+01  0.10277717615E+01 -0.70842122802E+01  0.72620838996E+01  0.00000000000E+00 0. -1.
</event>
<event>
 7    1  0.2642243E-009  0.4778727E+02  0.7816164E-02  0.1312668E+00
        -11   -1    0    0    0    0  0.00000000000E+00  0.00000000000E+00  0.45593999997E+02  0.45594000000E+02  0.51100000000E-03 0.  1.
         11   -1    0    0    0    0 -0.00000000000E+00 -0.00000000000E+00 -0.45593999997E+02  0.45594000000E+02  0.51100000000E-03 0. -1.
    9900012    2    1    2    0    0  0.34688939862E+02  0.26010544119E+02  0.19370434572E+01  0.47787273146E+02  0.20000009583E+02 0.  0.
        -12    1    1    2    0    0 -0.34688939862E+02 -0.26010544119E+02 -0.19370434572E+01  0.43400726854E+02  0.00000000000E+00 0.  1.
         11    1    3    3    0    0  0.18598872063E+02  0.18528910741E+02 -0.47339420975E+01  0.26676746116E+02  0.51100000000E-03 0. -1.
        -11    1    3    3    0    0  0.10429993438E+02  0.84984287382E+01  0.17992981738E+01  0.13573707243E+02  0.51100000000E-03 0.  1.
         12    1    3    3    0    0  0.56600743601E+01 -0.10167953609E+01  0.48716873809E+01  0.75368197873E+01  0.00000000000E+00 0. -1.
</event>
<event>
 7    1  0.2642243E-009  0.4778725E+02  0.7816164E-02  0.1312668E+00
        -11   -1    0    0    0    0  0.00000000000E+00  0.00000000000E+00  0.45593999997E+02  0.45594000000E+02  0.51100000000E-03 0. -1.
         11   -1    0    0    0    0 -0.00000000000E+00 -0.00000000000E+00 -0.45593999997E+02  0.45594000000E+02  0.51100000000E-03 0.  1.
    9900012    2    1    2    0    0 -0.58174461626E+01  0.28014192991E+02  0.32634149556E+02  0.47787246480E+02  0.19999888002E+02 0.  0.
        -12    1    1    2    0    0  0.58174461626E+01 -0.28014192991E+02 -0.32634149556E+02  0.43400753520E+02  0.00000000000E+00 0.  1.
         11    1    3    3    0    0 -0.51118295243E+01  0.20588846204E+01 -0.87150831700E-01  0.55115698757E+01  0.51100000000E-03 0.  1.
        -11    1    3    3    0    0  0.18572302255E+01  0.20543106215E+02  0.23365626785E+02  0.31167627956E+02  0.51100000000E-03 0. -1.
        -12    1    3    3    0    0 -0.25628468638E+01  0.54122021560E+01  0.93556736031E+01  0.11108048649E+02  0.00000000000E+00 0.  1.
</event>
<event>
 7    1  0.2642243E-009  0.4778727E+02  0.7816164E-02  0.1312668E+00
        -11   -1    0    0    0    0  0.00000000000E+00  0.00000000000E+00  0.45593999997E+02  0.45594000000E+02  0.51100000000E-03 0. -1.
         11   -1    0    0    0    0 -0.00000000000E+00 -0.00000000000E+00 -0.45593999997E+02  0.45594000000E+02  0.51100000000E-03 0.  1.
    9900012    2    1    2    0    0  0.27737743163E+02 -0.22160918190E+02 -0.24962665600E+02  0.47787269999E+02  0.19999995232E+02 0.  0.
        -12    1    1    2    0    0 -0.27737743163E+02  0.22160918190E+02  0.24962665600E+02  0.43400730001E+02  0.00000000000E+00 0.  1.
         11    1    3    3    0    0  0.16647076978E+02 -0.14622564790E+02 -0.66271486392E+01  0.23127119845E+02  0.51100000000E-03 0. -1.
        -11    1    3    3    0    0  0.19906275079E+01 -0.58232149995E+00  0.90929145325E+00  0.22646208098E+01  0.51100000000E-03 0.  1.
         12    1    3    3    0    0  0.91000386770E+01 -0.69560318993E+01 -0.19244808414E+02  0.22395529344E+02  0.00000000000E+00 0. -1.
</event>
<event>
 7    1  0.2642243E-009  0.4778727E+02  0.7816164E-02  0.1312668E+00
        -11   -1    0    0    0    0  0.00000000000E+00  0.00000000000E+00  0.45593999997E+02  0.45594000000E+02  0.51100000000E-03 0.  1.
         11   -1    0    0    0    0 -0.00000000000E+00 -0.00000000000E+00 -0.45593999997E+02  0.45594000000E+02  0.51100000000E-03 0. -1.
    9900012    2    1    2    0    0  0.22418296518E+02 -0.21512276844E+02 -0.30302896023E+02  0.47787267504E+02  0.19999983859E+02 0.  0.
        -12    1    1    2    0    0 -0.22418296518E+02  0.21512276844E+02  0.30302896023E+02  0.43400732496E+02  0.00000000000E+00 0.  1.
         11    1    3    3    0    0  0.79944358651E+01 -0.76805564052E+01 -0.12548199007E+02  0.16743931739E+02  0.51100000000E-03 0. -1.
        -11    1    3    3    0    0  0.15625451975E+01 -0.82395062131E+01 -0.14335022495E+02  0.16607946300E+02  0.51100000000E-03 0.  1.
        -12    1    3    3    0    0  0.12861315455E+02 -0.55922142254E+01 -0.34196745223E+01  0.14435389465E+02  0.00000000000E+00 0.  1.
</event>
<event>
 7    1  0.2642243E-009  0.4778728E+02  0.7816164E-02  0.1312668E+00
        -11   -1    0    0    0    0  0.00000000000E+00  0.00000000000E+00  0.45593999997E+02  0.45594000000E+02  0.51100000000E-03 0.  1.
         11   -1    0    0    0    0 -0.00000000000E+00 -0.00000000000E+00 -0.45593999997E+02  0.45594000000E+02  0.51100000000E-03 0. -1.
    9900012    2    1    2    0    0  0.42765520652E+02 -0.60460185666E+01  0.42635937719E+01  0.47787281930E+02  0.20000049633E+02 0.  0.
        -12    1    1    2    0    0 -0.42765520652E+02  0.60460185666E+01 -0.42635937719E+01  0.43400718070E+02  0.00000000000E+00 0.  1.
         11    1    3    3    0    0  0.72968010852E+01 -0.85449730050E+01  0.16266966037E+01  0.11353678339E+02  0.51100000000E-03 0. -1.
        -11    1    3    3    0    0  0.16087358578E+02  0.22494125060E+01  0.47799114731E+01  0.16932528358E+02  0.51100000000E-03 0.  1.
         12    1    3    3    0    0  0.19381360988E+02  0.24954193242E+00 -0.21430143049E+01  0.19501075233E+02  0.00000000000E+00 0. -1.
</event>
<event>
 7    1  0.2642243E-009  0.4778727E+02  0.7816164E-02  0.1312668E+00
        -11   -1    0    0    0    0  0.00000000000E+00  0.00000000000E+00  0.45593999997E+02  0.45594000000E+02  0.51100000000E-03 0. -1.
         11   -1    0    0    0    0 -0.00000000000E+00 -0.00000000000E+00 -0.45593999997E+02  0.45594000000E+02  0.51100000000E-03 0.  1.
    9900012    2    1    2    0    0 -0.38578005539E+02  0.18398901364E+01  0.19798380112E+02  0.47787267723E+02  0.19999984858E+02 0.  0.
        -12    1    1    2    0    0  0.38578005539E+02 -0.18398901364E+01 -0.19798380112E+02  0.43400732277E+02  0.00000000000E+00 0.  1.
         11    1    3    3    0    0 -0.40662175227E+02  0.23599942139E+01  0.18859942132E+02  0.44885181122E+02  0.51100000000E-03 0. -1.
        -11    1    3    3    0    0  0.11120140533E+01 -0.58792539258E+00 -0.33198750873E+00  0.13009410014E+01  0.51100000000E-03 0.  1.
         12    1    3    3    0    0  0.97215563467E+00  0.67821315148E-01  0.12704254890E+01  0.16011455998E+01  0.00000000000E+00 0. -1.
</event>
<event>
 7    1  0.2642243E-009  0.4778726E+02  0.7816164E-02  0.1312668E+00
        -11   -1    0    0    0    0  0.00000000000E+00  0.00000000000E+00  0.45593999997E+02  0.45594000000E+02  0.51100000000E-03 0.  1.
         11   -1    0    0    0    0 -0.00000000000E+00 -0.00000000000E+00 -0.45593999997E+02  0.45594000000E+02  0.51100000000E-03 0. -1.
    9900012    2    1    2    0    0 -0.97233374773E+01  0.42083852853E+02  0.42461560292E+01  0.47787264941E+02  0.19999972173E+02 0.  0.
        -12    1    1    2    0    0  0.97233374773E+01 -0.42083852853E+02 -0.42461560292E+01  0.43400735059E+02  0.00000000000E+00 0.  1.
         11    1    3    3    0    0 -0.15569713647E+01  0.40402024558E+01 -0.81508047261E+00  0.44058770015E+01  0.51100000000E-03 0. -1.
        -11    1    3    3    0    0 -0.10618050700E+02  0.36644635240E+02  0.66599769193E+00  0.38157775692E+02  0.51100000000E-03 0.  1.
        -12    1    3    3    0    0  0.24516845875E+01  0.13990151568E+01  0.43952388098E+01  0.52236122483E+01  0.00000000000E+00 0.  1.
</event>
<event>
 7    1  0.2642243E-009  0.4778729E+02  0.7816164E-02  0.1312668E+00
        -11   -1    0    0    0    0  0.00000000000E+00  0.00000000000E+00  0.45593999997E+02  0.45594000000E+02  0.51100000000E-03 0.  1.
         11   -1    0    0    0    0 -0.00000000000E+00 -0.00000000000E+00 -0.45593999997E+02  0.45594000000E+02  0.51100000000E-03 0. -1.
    9900012    2    1    2    0    0  0.41834301577E+02  0.93260003302E+01 -0.68219238371E+01  0.47787288998E+02  0.20000081859E+02 0.  0.
        -12    1    1    2    0    0 -0.41834301577E+02 -0.93260003302E+01  0.68219238371E+01  0.43400711002E+02  0.00000000000E+00 0.  1.
         11    1    3    3    0    0  0.20908394774E+02 -0.35424664513E+01 -0.45558758131E+01  0.21690229258E+02  0.51100000000E-03 0. -1.
        -11    1    3    3    0    0  0.15415647310E+01  0.53465616759E+00  0.21519640065E+01  0.27005977827E+01  0.51100000000E-03 0.  1.
         12    1    3    3    0    0  0.19384342072E+02  0.12333810614E+02 -0.44180120305E+01  0.23396461958E+02  0.00000000000E+00 0. -1.
</event>
<event>
 7    1  0.2722871E-009  0.4778727E+02  0.7816164E-02  0.1312668E+00
        -11   -1    0    0    0    0  0.00000000000E+00  0.00000000000E+00  0.45593999997E+02  0.45594000000E+02  0.51100000000E-03 0. -1.
         11   -1    0    0    0    0 -0.00000000000E+00 -0.00000000000E+00 -0.45593999997E+02  0.45594000000E+02  0.51100000000E-03 0.  1.
    9900012    2    1    2    0    0 -0.59280641466E+01 -0.64249354903E+01  0.42511193670E+02  0.47787270423E+02  0.19999997167E+02 0.  0.
        -12    1    1    2    0    0  0.59280641466E+01  0.64249354903E+01 -0.42511193670E+02  0.43400729577E+02  0.00000000000E+00 0.  1.
         11    1    3    3    0    0  0.43726709140E+01 -0.64805252090E+01  0.19445471919E+02  0.20958144868E+02  0.51100000000E-03 0. -1.
        -11    1    3    3    0    0 -0.31886320301E+01 -0.50486298698E-01  0.57501218500E+00  0.32404571227E+01  0.51100000000E-03 0.  1.
         12    1    3    3    0    0 -0.71121030305E+01  0.10607601743E+00  0.22490709566E+02  0.23588668432E+02  0.00000000000E+00 0. -1.
</event>
<event>
 7    1  0.2642243E-009  0.4778727E+02  0.7816164E-02  0.1312668E+00
        -11   -1    0    0    0    0  0.00000000000E+00  0.00000000000E+00  0.45593999997E+02  0.45594000000E+02  0.51100000000E-03 0.  1.
         11   -1    0    0    0    0 -0.00000000000E+00 -0.00000000000E+00 -0.45593999997E+02  0.45594000000E+02  0.51100000000E-03 0. -1.
    9900012    2    1    2    0    0  0.33659557881E+01 -0.43071185078E+02  0.41433068867E+01  0.47787266891E+02  0.19999981065E+02 0.  0.
        -12    1    1    2    0    0 -0.33659557881E+01  0.43071185078E+02 -0.41433068867E+01  0.43400733109E+02  0.00000000000E+00 0.  1.
         11    1    3    3    0    0  0.12110110165E+00 -0.31929775471E+02 -0.16862033301E+01  0.31974497791E+02  0.51100000000E-03 0. -1.
        -11    1    3    3    0    0  0.55564939659E+01 -0.78616185057E+01  0.66715754175E+01  0.11712795974E+02  0.51100000000E-03 0.  1.
        -12    1    3    3    0    0 -0.23116392794E+01 -0.32797911019E+01 -0.84206520067E+00  0.40999731258E+01  0.00000000000E+00 0.  1.
</event>
<event>
 7    1  0.2642243E-009  0.4778727E+02  0.7816164E-02  0.1312668E+00
        -11   -1    0    0    0    0  0.00000000000E+00  0.00000000000E+00  0.45593999997E+02  0.45594000000E+02  0.51100000000E-03 0.  1.
         11   -1    0    0    0    0 -0.00000000000E+00 -0.00000000000E+00 -0.45593999997E+02  0.45594000000E+02  0.51100000000E-03 0. -1.
    9900012    2    1    2    0    0 -0.11770181550E+02  0.38498930246E+02 -0.16214761057E+02  0.47787270974E+02  0.19999999681E+02 0.  0.
        -12    1    1    2    0    0  0.11770181550E+02 -0.38498930246E+02  0.16214761057E+02  0.43400729026E+02  0.00000000000E+00 0.  1.
         11    1    3    3    0    0 -0.78257974384E+01  0.14408258713E+02  0.29435856802E+01  0.16658502982E+02  0.51100000000E-03 0. -1.
        -11    1    3    3    0    0 -0.20416812427E+01  0.85052230395E+01 -0.81282025850E+01  0.11940475651E+02  0.51100000000E-03 0.  1.
         12    1    3    3    0    0 -0.19027028685E+01  0.15585448494E+02 -0.11030144152E+02  0.19188292342E+02  0.00000000000E+00 0. -1.
</event>
<event>
 7    1  0.2642243E-009  0.4778727E+02  0.7816164E-02  0.1312668E+00
        -11   -1    0    0    0    0  0.00000000000E+00  0.00000000000E+00  0.45593999997E+02  0.45594000000E+02  0.51100000000E-03 0. -1.
         11   -1    0    0    0    0 -0.00000000000E+00 -0.00000000000E+00 -0.45593999997E+02  0.45594000000E+02  0.51100000000E-03 0.  1.
    9900012    2    1    2    0    0  0.35846103713E+02 -0.22846001183E+02  0.87601770082E+01  0.47787267026E+02  0.19999981678E+02 0.  0.
        -12    1    1    2    0    0 -0.35846103713E+02  0.22846001183E+02 -0.87601770082E+01  0.43400732974E+02  0.00000000000E+00 0.  1.
         11    1    3    3    0    0  0.18013866032E+02 -0.88383882933E+01  0.67207919243E+01  0.21160943301E+02  0.51100000000E-03 0. -1.
        -11    1    3    3    0    0  0.51485144858E+01  0.17415587093E+01  0.33120032846E+01  0.63647147750E+01  0.51100000000E-03 0.  1.
        -12    1    3    3    0    0  0.12683723196E+02 -0.15749171599E+02 -0.12726182008E+01  0.20261608950E+02  0.00000000000E+00 0.  1.
</event>
<event>
 7    1  0.2642243E-009  0.4778726E+02  0.7816164E-02  0.1312668E+00
        -11   -1    0    0    0    0  0.00000000000E+00  0.00000000000E+00  0.45593999997E+02  0.45594000000E+02  0.51100000000E-03 0.  1.
         11   -1    0    0    0    0 -0.00000000000E+00 -0.00000000000E+00 -0.45593999997E+02  0.45594000000E+02  0.51100000000E-03 0. -1.
    9900012    2    1    2    0    0  0.33361180586E+02 -0.13642614270E+02 -0.24177154451E+02  0.47787261624E+02  0.19999957050E+02 0.  0.
        -12    1    1    2    0    0 -0.33361180586E+02  0.13642614270E+02  0.24177154451E+02  0.43400738376E+02  0.00000000000E+00 0.  1.
         11    1    3    3    0    0  0.27350440916E+02 -0.29262765831E+01 -0.21807010607E+02  0.35102071517E+02  0.51100000000E-03 0. -1.
        -11    1    3    3    0    0  0.34011805402E+01 -0.64169034351E+01 -0.36785140834E+00  0.72718631507E+01  0.51100000000E-03 0.  1.
         12    1    3    3    0    0  0.26095591296E+01 -0.42994342519E+01 -0.20022924357E+01  0.54133269563E+01  0.00000000000E+00 0. -1.
</event>
<event>
 7    1  0.2642243E-009  0.4778727E+02  0.7816164E-02  0.1312668E+00
        -11   -1    0    0    0    0  0.00000000000E+00  0.00000000000E+00  0.45593999997E+02  0.45594000000E+02  0.51100000000E-03 0. -1.
         11   -1    0    0    0    0 -0.00000000000E+00 -0.00000000000E+00 -0.45593999997E+02  0.45594000000E+02  0.51100000000E-03 0.  1.
    9900012    2    1    2    0    0  0.99407275255E+01 -0.23201158388E+02  0.35305968303E+02  0.47787271756E+02  0.20000003245E+02 0.  0.
        -12    1    1    2    0    0 -0.99407275255E+01  0.23201158388E+02 -0.35305968303E+02  0.43400728244E+02  0.00000000000E+00 0.  1.
         11    1    3    3    0    0  0.17094516379E+01 -0.14516745610E+02  0.89866356174E+01  0.17158605654E+02  0.51100000000E-03 0. -1.
        -11    1    3    3    0    0 -0.72233167530E+00 -0.41689315099E+01  0.14619713234E+02  0.15219650728E+02  0.51100000000E-03 0.  1.
         12    1    3    3    0    0  0.89536075629E+01 -0.45154812676E+01  0.11699619452E+02  0.15409015374E+02  0.00000000000E+00 0. -1.
</event>
<event>
 7    1  0.2642243E-009  0.4778727E+02  0.7816164E-02  0.1312668E+00
        -11   -1    0    0    0    0  0.00000000000E+00  0.00000000000E+00  0.45593999997E+02  0.45594000000E+02  0.51100000000E-03 0.  1.
         11   -1    0    0    0    0 -0.00000000000E+00 -0.00000000000E+00 -0.45593999997E+02  0.45594000000E+02  0.51100000000E-03 0. -1.
    9900012    2    1    2    0    0  0.52620433707E+00 -0.63974922010E+01 -0.42923405447E+02  0.47787268064E+02  0.19999986409E+02 0.  0.
        -12    1    1    2    0    0 -0.52620433707E+00  0.63974922010E+01  0.42923405447E+02  0.43400731936E+02  0.00000000000E+00 0.  1.
         11    1    3    3    0    0 -0.41733240957E+01 -0.54229302722E+01 -0.12434783864E+02  0.14193260963E+02  0.51100000000E-03 0. -1.
        -11    1    3    3    0    0  0.24947934743E+01 -0.69418470183E+01 -0.12507216323E+02  0.14520457807E+02  0.51100000000E-03 0.  1.
         12    1    3    3    0    0  0.22047349584E+01  0.59672850894E+01 -0.17981405259E+02  0.19073549294E+02  0.00000000000E+00 0. -1.
</event>
<event>
 7    1  0.2642243E-009  0.4778727E+02  0.7816164E-02  0.1312668E+00
        -11   -1    0    0    0    0  0.00000000000E+00  0.00000000000E+00  0.45593999997E+02  0.45594000000E+02  0.51100000000E-03 0. -1.
         11   -1    0    0    0    0 -0.00000000000E+00 -0.00000000000E+00 -0.45593999997E+02  0.45594000000E+02  0.51100000000E-03 0.  1.
    9900012    2    1    2    0    0 -0.20356930683E+02  0.29877443588E+02  0.24011601666E+02  0.47787271011E+02  0.19999999848E+02 0.  0.
        -12    1    1    2    0    0  0.20356930683E+02 -0.29877443588E+02 -0.24011601666E+02  0.43400728989E+02  0.00000000000E+00 0.  1.
         11    1    3    3    0    0 -0.12845131347E+02  0.52063090241E+01  0.50415042975E+01  0.14748553109E+02  0.51100000000E-03 0. -1.
        -11    1    3    3    0    0  0.19727208052E+00  0.11221257255E+02  0.54843173891E+01  0.12491327717E+02  0.51100000000E-03 0.  1.
         12    1    3    3    0    0 -0.77090714164E+01  0.13449877310E+02  0.13485779980E+02  0.20547390185E+02  0.00000000000E+00 0. -1.
</event>
<event>
 7    1  0.2642243E-009  0.4778727E+02  0.7816164E-02  0.1312668E+00
        -11   -1    0    0    0    0  0.00000000000E+00  0.00000000000E+00  0.45593999997E+02  0.45594000000E+02  0.51100000000E-03 0.  1.
         11   -1    0    0    0    0 -0.00000000000E+00 -0.00000000000E+00 -0.45593999997E+02  0.45594000000E+02  0.51100000000E-03 0. -1.
    9900012    2    1    2    0    0  0.42166546176E+02 -0.97054291035E+01 -0.33779173069E+01  0.47787270792E+02  0.19999998848E+02 0.  0.
        -12    1    1    2    0    0 -0.42166546176E+02  0.97054291035E+01  0.33779173069E+01  0.43400729208E+02  0.00000000000E+00 0.  1.
         11    1    3    3    0    0  0.36913412876E+02 -0.12514437218E+02  0.17188046736E+01  0.39014939174E+02  0.51100000000E-03 0. -1.
        -11    1    3    3    0    0  0.41162797211E+01  0.78815938054E+00 -0.48962334093E+01  0.64450023903E+01  0.51100000000E-03 0.  1.
         12    1    3    3    0    0  0.11368535792E+01  0.20208487337E+01 -0.20048857118E+00  0.23273292273E+01  0.00000000000E+00 0. -1.
</event>
<event>
 7    1  0.2642243E-009  0.4778727E+02  0.7816164E-02  0.1312668E+00
        -11   -1    0    0    0    0  0.00000000000E+00  0.00000000000E+00  0.45593999997E+02  0.45594000000E+02  0.51100000000E-03 0. -1.
         11   -1    0    0    0    0 -0.00000000000E+00 -0.00000000000E+00 -0.45593999997E+02  0.45594000000E+02  0.51100000000E-03 0.  1.
    9900012    2    1    2    0    0  0.18433980387E+01 -0.24444656774E+02  0.35814574548E+02  0.47787272919E+02  0.20000008545E+02 0.  0.
        -12    1    1    2    0    0 -0.18433980387E+01  0.24444656774E+02 -0.35814574548E+02  0.43400727081E+02  0.00000000000E+00 0.  1.
         11    1    3    3    0    0  0.16125558625E+01 -0.14691668385E+02  0.85006754928E+01  0.17050130217E+02  0.51100000000E-03 0. -1.
        -11    1    3    3    0    0 -0.47109157465E+01 -0.37967611838E+01  0.88890197934E+01  0.10752804090E+02  0.51100000000E-03 0.  1.
         12    1    3    3    0    0  0.49417579227E+01 -0.59562272056E+01  0.18424879262E+02  0.19984338611E+02  0.00000000000E+00 0. -1.
</event>
<event>
 7    1  0.2642243E-009  0.4778727E+02  0.7816164E-02  0.1312668E+00
        -11   -1    0    0    0    0  0.00000000000E+00  0.00000000000E+00  0.45593999997E+02  0.45594000000E+02  0.51100000000E-03 0.  1.
         11   -1    0    0    0    0 -0.00000000000E+00 -0.00000000000E+00 -0.45593999997E+02  0.45594000000E+02  0.51100000000E-03 0. -1.
    9900012    2    1    2    0    0 -0.65183599390E+01  0.98972312614E+01 -0.41751398668E+02  0.47787268512E+02  0.19999988455E+02 0.  0.
        -12    1    1    2    0    0  0.65183599390E+01 -0.98972312614E+01  0.41751398668E+02  0.43400731488E+02  0.00000000000E+00 0.  1.
         11    1    3    3    0    0  0.39348569994E+01  0.79002604828E+01 -0.20704298307E+02  0.22507002998E+02  0.51100000000E-03 0. -1.
        -11    1    3    3    0    0 -0.69596828670E+01  0.24153186498E+00 -0.45320658498E+01  0.83087390367E+01  0.51100000000E-03 0.  1.
        -12    1    3    3    0    0 -0.34935340713E+01  0.17554389136E+01 -0.16515034511E+02  0.16971526478E+02  0.00000000000E+00 0.  1.
</event>
<event>
 7    1  0.2642243E-009  0.4778727E+02  0.7816164E-02  0.1312668E+00
        -11   -1    0    0    0    0  0.00000000000E+00  0.00000000000E+00  0.45593999997E+02  0.45594000000E+02  0.51100000000E-03 0. -1.
         11   -1    0    0    0    0 -0.00000000000E+00 -0.00000000000E+00 -0.45593999997E+02  0.45594000000E+02  0.51100000000E-03 0.  1.
    9900012    2    1    2    0    0  0.12994486053E+01  0.10119758558E+01  0.43369469675E+02  0.47787267728E+02  0.19999984881E+02 0.  0.
        -12    1    1    2    0    0 -0.12994486053E+01 -0.10119758558E+01 -0.43369469675E+02  0.43400732272E+02  0.00000000000E+00 0.  1.
         11    1    3    3    0    0  0.74531371729E+01 -0.54279772928E+01  0.22483041743E+02  0.24300192540E+02  0.51100000000E-03 0. -1.
        -11    1    3    3    0    0 -0.24786779085E+00 -0.92536029768E+00  0.42688867385E+01  0.43750570704E+01  0.51100000000E-03 0.  1.
         12    1    3    3    0    0 -0.59058207767E+01  0.73653134463E+01  0.16617541194E+02  0.19112018118E+02  0.00000000000E+00 0. -1.
</event>
<event>
 7    1  0.2642243E-009  0.4778727E+02  0.7816164E-02  0.1312668E+00
        -11   -1    0    0    0    0  0.00000000000E+00  0.00000000000E+00  0.45593999997E+02  0.45594000000E+02  0.51100000000E-03 0. -1.
         11   -1    0    0    0    0 -0.00000000000E+00 -0.00000000000E+00 -0.45593999997E+02  0.45594000000E+02  0.51100000000E-03 0.  1.
    9900012    2    1    2    0    0  0.32238192492E+02  0.14582104403E+02  0.25133338250E+02  0.47787268260E+02  0.19999987305E+02 0.  0.
        -12    1    1    2    0    0 -0.32238192492E+02 -0.14582104403E+02 -0.25133338250E+02  0.43400731740E+02  0.00000000000E+00 0.  1.
         11    1    3    3    0    0  0.20677866966E+02  0.83518316336E+01  0.16040202858E+02  0.27470263593E+02  0.51100000000E-03 0. -1.
        -11    1    3    3    0    0 -0.32028496548E-01  0.31134403125E+01  0.76091894072E+01  0.82215752809E+01  0.51100000000E-03 0.  1.
        -12    1    3    3    0    0  0.11592354023E+02  0.31168324571E+01  0.14839459855E+01  0.12095429386E+02  0.00000000000E+00 0.  1.
</event>
<event>
 7    1  0.2642243E-009  0.4778727E+02  0.7816164E-02  0.1312668E+00
        -11   -1    0    0    0    0  0.00000000000E+00  0.00000000000E+00  0.45593999997E+02  0.45594000000E+02  0.51100000000E-03 0.  1.
         11   -1    0    0    0    0 -0.00000000000E+00 -0.00000000000E+00 -0.45593999997E+02  0.45594000000E+02  0.51100000000E-03 0. -1.
    9900012    2    1    2    0    0 -0.39172024512E+02 -0.10773905835E+02 -0.15267565373E+02  0.47787273004E+02  0.20000008936E+02 0.  0.
        -12    1    1    2    0    0  0.39172024512E+02  0.10773905835E+02  0.15267565373E+02  0.43400726996E+02  0.00000000000E+00 0.  1.
         11    1    3    3    0    0 -0.45811491984E+01 -0.84944424283E+01 -0.55413717059E+01  0.11128759176E+02  0.51100000000E-03 0. -1.
        -11    1    3    3    0    0 -0.55196950107E+00 -0.62863590283E+00 -0.13123325531E+01  0.15563002344E+01  0.51100000000E-03 0.  1.
         12    1    3    3    0    0 -0.34038905813E+02 -0.16508275036E+01 -0.84138611144E+01  0.35102213594E+02  0.00000000000E+00 0. -1.
</event>
<event>
 7    1  0.2642243E-009  0.4778727E+02  0.7816164E-02  0.1312668E+00
        -11   -1    0    0    0    0  0.00000000000E+00  0.00000000000E+00  0.45593999997E+02  0.45594000000E+02  0.51100000000E-03 0.  1.
         11   -1    0    0    0    0 -0.00000000000E+00 -0.00000000000E+00 -0.45593999997E+02  0.45594000000E+02  0.51100000000E-03 0. -1.
    9900012    2    1    2    0    0 -0.27180365057E+02 -0.30435790690E+02 -0.14782217388E+02  0.47787267858E+02  0.19999985471E+02 0.  0.
        -12    1    1    2    0    0  0.27180365057E+02  0.30435790690E+02  0.14782217388E+02  0.43400732142E+02  0.00000000000E+00 0.  1.
         11    1    3    3    0    0 -0.20348260120E+02 -0.21597128071E+02 -0.15686295171E+02  0.33564080314E+02  0.51100000000E-03 0. -1.
        -11    1    3    3    0    0  0.73333948237E+00 -0.59805293546E+01  0.11409265368E+01  0.61323920114E+01  0.51100000000E-03 0.  1.
         12    1    3    3    0    0 -0.75654444195E+01 -0.28581332645E+01 -0.23684875322E+00  0.80907955328E+01  0.00000000000E+00 0. -1.
</event>
<event>
 7    1  0.2642243E-009  0.4778727E+02  0.7816164E-02  0.1312668E+00
        -11   -1    0    0    0    0  0.00000000000E+00  0.00000000000E+00  0.45593999997E+02  0.45594000000E+02  0.51100000000E-03 0. -1.
         11   -1    0    0    0    0 -0.00000000000E+00 -0.00000000000E+00 -0.45593999997E+02  0.45594000000E+02  0.51100000000E-03 0.  1.
    9900012    2    1    2    0    0  0.27413324504E+02 -0.31990883629E+02  0.10426721832E+02  0.47787268164E+02  0.19999986865E+02 0.  0.
        -12    1    1    2    0    0 -0.27413324504E+02  0.31990883629E+02 -0.10426721832E+02  0.43400731836E+02  0.00000000000E+00 0.  1.
         11    1    3    3    0    0  0.19688716539E+02 -0.28031752309E+02  0.88808445413E+01  0.35387767611E+02  0.51100000000E-03 0. -1.
        -11    1    3    3    0    0  0.36951015404E+01 -0.13548327781E+01 -0.36213972449E+01  0.53482581760E+01  0.51100000000E-03 0.  1.
         12    1    3    3    0    0  0.40295064248E+01 -0.26042985419E+01  0.51672745356E+01  0.70512423762E+01  0.00000000000E+00 0. -1.
</event>
<event>
 7    1  0.2642243E-009  0.4778727E+02  0.7816164E-02  0.1312668E+00
        -11   -1    0    0    0    0  0.00000000000E+00  0.00000000000E+00  0.45593999997E+02  0.45594000000E+02  0.51100000000E-03 0.  1.
         11   -1    0    0    0    0 -0.00000000000E+00 -0.00000000000E+00 -0.45593999997E+02  0.45594000000E+02  0.51100000000E-03 0. -1.
    9900012    2    1    2    0    0  0.19538526368E+01 -0.28353660202E+02 -0.32800540451E+02  0.47787273728E+02  0.20000012237E+02 0.  0.
        -12    1    1    2    0    0 -0.19538526368E+01  0.28353660202E+02  0.32800540451E+02  0.43400726272E+02  0.00000000000E+00 0.  1.
         11    1    3    3    0    0 -0.17677127439E+01 -0.22977350441E+02 -0.21704368921E+02  0.31656959300E+02  0.51100000000E-03 0. -1.
        -11    1    3    3    0    0  0.70203771744E+01 -0.41982877506E+01 -0.72810973098E+01  0.10951059036E+02  0.51100000000E-03 0.  1.
         12    1    3    3    0    0 -0.32988117937E+01 -0.11780220106E+01 -0.38150742209E+01  0.51792553923E+01  0.00000000000E+00 0. -1.
</event>
<event>
 7    1  0.2642243E-009  0.4778727E+02  0.7816164E-02  0.1312668E+00
        -11   -1    0    0    0    0  0.00000000000E+00  0.00000000000E+00  0.45593999997E+02  0.45594000000E+02  0.51100000000E-03 0.  1.
         11   -1    0    0    0    0 -0.00000000000E+00 -0.00000000000E+00 -0.45593999997E+02  0.45594000000E+02  0.51100000000E-03 0. -1.
    9900012    2    1    2    0    0 -0.40557973019E+02 -0.15366385925E+02  0.15962628970E+01  0.47787273658E+02  0.20000011917E+02 0.  0.
        -12    1    1    2    0    0  0.40557973019E+02  0.15366385925E+02 -0.15962628970E+01  0.43400726342E+02  0.00000000000E+00 0.  1.
         11    1    3    3    0    0 -0.34431447076E+02 -0.12869532002E+02  0.37097791299E+01  0.36944713602E+02  0.51100000000E-03 0. -1.
        -11    1    3    3    0    0  0.65020038905E+00 -0.36860273188E+01 -0.98476567193E+00  0.38703128595E+01  0.51100000000E-03 0.  1.
         12    1    3    3    0    0 -0.67767263315E+01  0.11891733959E+01 -0.11287505610E+01  0.69722471963E+01  0.00000000000E+00 0. -1.
</event>
<event>
 7    1  0.2642243E-009  0.4778727E+02  0.7816164E-02  0.1312668E+00
        -11   -1    0    0    0    0  0.00000000000E+00  0.00000000000E+00  0.45593999997E+02  0.45594000000E+02  0.51100000000E-03 0. -1.
         11   -1    0    0    0    0 -0.00000000000E+00 -0.00000000000E+00 -0.45593999997E+02  0.45594000000E+02  0.51100000000E-03 0.  1.
    9900012    2    1    2    0    0  0.24674301670E+02 -0.27480860849E+02  0.22794838710E+02  0.47787267890E+02  0.19999985616E+02 0.  0.
        -12    1    1    2    0    0 -0.24674301670E+02  0.27480860849E+02 -0.22794838710E+02  0.43400732110E+02  0.00000000000E+00 0.  1.
         11    1    3    3    0    0  0.32010452243E+01 -0.12392754333E+02  0.17565469464E+01  0.12919462370E+02  0.51100000000E-03 0. -1.
        -11    1    3    3    0    0  0.14905131306E+02 -0.11533125824E+02  0.19731841603E+02  0.27285921348E+02  0.51100000000E-03 0.  1.
        -12    1    3    3    0    0  0.65681251395E+01 -0.35549806913E+01  0.13064501606E+01  0.75818841712E+01  0.00000000000E+00 0.  1.
</event>
<event>
 7    1  0.2642243E-009  0.4778727E+02  0.7816164E-02  0.1312668E+00
        -11   -1    0    0    0    0  0.00000000000E+00  0.00000000000E+00  0.45593999997E+02  0.45594000000E+02  0.51100000000E-03 0.  1.
         11   -1    0    0    0    0 -0.00000000000E+00 -0.00000000000E+00 -0.45593999997E+02  0.45594000000E+02  0.51100000000E-03 0. -1.
    9900012    2    1    2    0    0 -0.24618709470E+01  0.42623263585E+02 -0.77986952593E+01  0.47787273567E+02  0.20000011500E+02 0.  0.
        -12    1    1    2    0    0  0.24618709470E+01 -0.42623263585E+02  0.77986952593E+01  0.43400726433E+02  0.00000000000E+00 0.  1.
         11    1    3    3    0    0 -0.28764954016E+01  0.22492039578E+02  0.34249383386E+01  0.22932428416E+02  0.51100000000E-03 0. -1.
        -11    1    3    3    0    0 -0.29073097635E+01  0.16134300937E+01 -0.11785564606E+01  0.35276907914E+01  0.51100000000E-03 0.  1.
         12    1    3    3    0    0  0.33219342181E+01  0.18517793913E+02 -0.10045077137E+02  0.21327154359E+02  0.00000000000E+00 0. -1.
</event>
<event>
 7    1  0.2642243E-009  0.4778727E+02  0.7816164E-02  0.1312668E+00
        -11   -1    0    0    0    0  0.00000000000E+00  0.00000000000E+00  0.45593999997E+02  0.45594000000E+02  0.51100000000E-03 0.  1.
         11   -1    0    0    0    0 -0.00000000000E+00 -0.00000000000E+00 -0.45593999997E+02  0.45594000000E+02  0.51100000000E-03 0. -1.
    9900012    2    1    2    0    0 -0.77873887001E+01  0.25540159245E+02 -0.34215204599E+02  0.47787269790E+02  0.19999994279E+02 0.  0.
        -12    1    1    2    0    0  0.77873887001E+01 -0.25540159245E+02  0.34215204599E+02  0.43400730210E+02  0.00000000000E+00 0.  1.
         11    1    3    3    0    0 -0.15167957899E+01 -0.44532253235E+00 -0.22308153160E+01  0.27341395102E+01  0.51100000000E-03 0. -1.
        -11    1    3    3    0    0 -0.46824656340E+01 -0.90272878041E+00 -0.54827738973E+01  0.72664443529E+01  0.51100000000E-03 0.  1.
        -12    1    3    3    0    0 -0.15881272762E+01  0.26888210558E+02 -0.26501615386E+02  0.37786685926E+02  0.00000000000E+00 0.  1.
</event>
<event>
 7    1  0.2642243E-009  0.4778725E+02  0.7816164E-02  0.1312668E+00
        -11   -1    0    0    0    0  0.00000000000E+00  0.00000000000E+00  0.45593999997E+02  0.45594000000E+02  0.51100000000E-03 0.  1.
         11   -1    0    0    0    0 -0.00000000000E+00 -0.00000000000E+00 -0.45593999997E+02  0.45594000000E+02  0.51100000000E-03 0. -1.
    9900012    2    1    2    0    0 -0.99965910467E+01 -0.56439245106E+00 -0.42230020450E+02  0.47787251175E+02  0.19999909407E+02 0.  0.
        -12    1    1    2    0    0  0.99965910467E+01  0.56439245106E+00  0.42230020450E+02  0.43400748825E+02  0.00000000000E+00 0.  1.
         11    1    3    3    0    0 -0.83359809102E+01 -0.74378855303E+01 -0.19618027476E+02  0.22576043082E+02  0.51100000000E-03 0.  1.
        -11    1    3    3    0    0 -0.24020145166E+01  0.80531465543E+01 -0.22231590964E+02  0.23766919873E+02  0.51100000000E-03 0. -1.
         12    1    3    3    0    0  0.74140438014E+00 -0.11796534750E+01 -0.38040200876E+00  0.14442882207E+01  0.00000000000E+00 0. -1.
</event>
<event>
 7    1  0.2642243E-009  0.4778726E+02  0.7816164E-02  0.1312668E+00
        -11   -1    0    0    0    0  0.00000000000E+00  0.00000000000E+00  0.45593999997E+02  0.45594000000E+02  0.51100000000E-03 0. -1.
         11   -1    0    0    0    0 -0.00000000000E+00 -0.00000000000E+00 -0.45593999997E+02  0.45594000000E+02  0.51100000000E-03 0.  1.
    9900012    2    1    2    0    0 -0.11606097024E+02  0.15522980571E+01  0.41791299885E+02  0.47787264253E+02  0.19999969033E+02 0.  0.
        -12    1    1    2    0    0  0.11606097024E+02 -0.15522980571E+01 -0.41791299885E+02  0.43400735747E+02  0.00000000000E+00 0.  1.
         11    1    3    3    0    0 -0.58018300252E+01  0.58842149216E+01  0.13986235857E+02  0.16244999556E+02  0.51100000000E-03 0. -1.
        -11    1    3    3    0    0 -0.30589257121E+01 -0.87308938881E+01  0.21307960302E+02  0.23229608414E+02  0.51100000000E-03 0.  1.
        -12    1    3    3    0    0 -0.27453412866E+01  0.43989770236E+01  0.64971037259E+01  0.83126562818E+01  0.00000000000E+00 0.  1.
</event>
<event>
 7    1  0.2642243E-009  0.4778727E+02  0.7816164E-02  0.1312668E+00
        -11   -1    0    0    0    0  0.00000000000E+00  0.00000000000E+00  0.45593999997E+02  0.45594000000E+02  0.51100000000E-03 0. -1.
         11   -1    0    0    0    0 -0.00000000000E+00 -0.00000000000E+00 -0.45593999997E+02  0.45594000000E+02  0.51100000000E-03 0.  1.
    9900012    2    1    2    0    0  0.25620172495E+01  0.40408156972E+02 -0.15628185421E+02  0.47787271183E+02  0.20000000632E+02 0.  0.
        -12    1    1    2    0    0 -0.25620172495E+01 -0.40408156972E+02  0.15628185421E+02  0.43400728817E+02  0.00000000000E+00 0.  1.
         11    1    3    3    0    0  0.32873821048E+01  0.27499978636E+02 -0.17049502909E+02  0.32522934304E+02  0.51100000000E-03 0. -1.
        -11    1    3    3    0    0 -0.19254177470E+01  0.19977153197E+01  0.31001667217E+01  0.41604247334E+01  0.51100000000E-03 0.  1.
        -12    1    3    3    0    0  0.12000528917E+01  0.10910463017E+02 -0.16788492342E+01  0.11103912146E+02  0.00000000000E+00 0.  1.
</event>
<event>
 7    1  0.2642243E-009  0.4778726E+02  0.7816164E-02  0.1312668E+00
        -11   -1    0    0    0    0  0.00000000000E+00  0.00000000000E+00  0.45593999997E+02  0.45594000000E+02  0.51100000000E-03 0.  1.
         11   -1    0    0    0    0 -0.00000000000E+00 -0.00000000000E+00 -0.45593999997E+02  0.45594000000E+02  0.51100000000E-03 0. -1.
    9900012    2    1    2    0    0  0.10347899130E+02  0.40010450012E+02 -0.13255533219E+02  0.47787259367E+02  0.19999946757E+02 0.  0.
        -12    1    1    2    0    0 -0.10347899130E+02 -0.40010450012E+02  0.13255533219E+02  0.43400740633E+02  0.00000000000E+00 0.  1.
         11    1    3    3    0    0  0.53805576264E+01  0.18139280380E+02 -0.12078291767E+02  0.22447027093E+02  0.51100000000E-03 0. -1.
        -11    1    3    3    0    0  0.78378523263E+01  0.20680110404E+02 -0.32610952867E+00  0.22117984607E+02  0.51100000000E-03 0.  1.
        -12    1    3    3    0    0 -0.28705108230E+01  0.11910592291E+01 -0.85113192343E+00  0.32222476663E+01  0.00000000000E+00 0.  1.
</event>
<event>
 7    1  0.2642243E-009  0.4778726E+02  0.7816164E-02  0.1312668E+00
        -11   -1    0    0    0    0  0.00000000000E+00  0.00000000000E+00  0.45593999997E+02  0.45594000000E+02  0.51100000000E-03 0.  1.
         11   -1    0    0    0    0 -0.00000000000E+00 -0.00000000000E+00 -0.45593999997E+02  0.45594000000E+02  0.51100000000E-03 0. -1.
    9900012    2    1    2    0    0  0.23902204813E+00 -0.12022356347E+02 -0.41701680470E+02  0.47787258789E+02  0.19999944121E+02 0.  0.
        -12    1    1    2    0    0 -0.23902204813E+00  0.12022356347E+02  0.41701680470E+02  0.43400741211E+02  0.00000000000E+00 0.  1.
         11    1    3    3    0    0 -0.38245913900E+01  0.35657100048E+00 -0.19753239605E+02  0.20123248180E+02  0.51100000000E-03 0. -1.
        -11    1    3    3    0    0 -0.73357534945E+00  0.68060954604E+00  0.60147592517E+00  0.11675340240E+01  0.51100000000E-03 0.  1.
         12    1    3    3    0    0  0.47971887875E+01 -0.13059536893E+02 -0.22549916791E+02  0.26496476585E+02  0.00000000000E+00 0. -1.
</event>
<event>
 7    1  0.2642243E-009  0.4778727E+02  0.7816164E-02  0.1312668E+00
        -11   -1    0    0    0    0  0.00000000000E+00  0.00000000000E+00  0.45593999997E+02  0.45594000000E+02  0.51100000000E-03 0.  1.
         11   -1    0    0    0    0 -0.00000000000E+00 -0.00000000000E+00 -0.45593999997E+02  0.45594000000E+02  0.51100000000E-03 0. -1.
    9900012    2    1    2    0    0 -0.40656406939E+02  0.15034529431E+02 -0.21546539237E+01  0.47787273808E+02  0.20000012601E+02 0.  0.
        -12    1    1    2    0    0  0.40656406939E+02 -0.15034529431E+02  0.21546539237E+01  0.43400726192E+02  0.00000000000E+00 0.  1.
         11    1    3    3    0    0 -0.12602150712E+02  0.65129465036E+01  0.38159214056E+01  0.14689926180E+02  0.51100000000E-03 0. -1.
        -11    1    3    3    0    0 -0.31355112370E+01 -0.80841320941E+00  0.35799670401E+01  0.48271240821E+01  0.51100000000E-03 0.  1.
        -12    1    3    3    0    0 -0.24918744990E+02  0.93299961372E+01 -0.95505423694E+01  0.28270223546E+02  0.00000000000E+00 0.  1.
</event>
<event>
 7    1  0.2642243E-009  0.4778728E+02  0.7816164E-02  0.1312668E+00
        -11   -1    0    0    0    0  0.00000000000E+00  0.00000000000E+00  0.45593999997E+02  0.45594000000E+02  0.51100000000E-03 0.  1.
         11   -1    0    0    0    0 -0.00000000000E+00 -0.00000000000E+00 -0.45593999997E+02  0.45594000000E+02  0.51100000000E-03 0. -1.
    9900012    2    1    2    0    0  0.23244210733E+02  0.93714629935E+01 -0.35433109256E+02  0.47787275550E+02  0.20000020545E+02 0.  0.
        -12    1    1    2    0    0 -0.23244210733E+02 -0.93714629935E+01  0.35433109256E+02  0.43400724450E+02  0.00000000000E+00 0.  1.
         11    1    3    3    0    0  0.11851337819E+02  0.12019243299E+02 -0.19052398342E+02  0.25454082196E+02  0.51100000000E-03 0. -1.
        -11    1    3    3    0    0  0.12205677513E+01  0.28343328579E+01 -0.13356784872E+01  0.33626277919E+01  0.51100000000E-03 0.  1.
         12    1    3    3    0    0  0.10172305162E+02 -0.54821131638E+01 -0.15045032427E+02  0.18970565563E+02  0.00000000000E+00 0. -1.
</event>
<event>
 7    1  0.2642243E-009  0.4778727E+02  0.7816164E-02  0.1312668E+00
        -11   -1    0    0    0    0  0.00000000000E+00  0.00000000000E+00  0.45593999997E+02  0.45594000000E+02  0.51100000000E-03 0. -1.
         11   -1    0    0    0    0 -0.00000000000E+00 -0.00000000000E+00 -0.45593999997E+02  0.45594000000E+02  0.51100000000E-03 0.  1.
    9900012    2    1    2    0    0  0.24197889850E+02  0.35937812040E+02  0.25610316045E+01  0.47787273159E+02  0.20000009640E+02 0.  0.
        -12    1    1    2    0    0 -0.24197889850E+02 -0.35937812040E+02 -0.25610316045E+01  0.43400726841E+02  0.00000000000E+00 0.  1.
         11    1    3    3    0    0  0.16776998146E+02  0.19411034993E+02  0.32217906526E+01  0.25857994538E+02  0.51100000000E-03 0. -1.
        -11    1    3    3    0    0  0.48769904242E+00  0.11996487113E+02  0.37075365381E+01  0.12565802038E+02  0.51100000000E-03 0.  1.
        -12    1    3    3    0    0  0.69331926618E+01  0.45302899345E+01 -0.43682955862E+01  0.93634765822E+01  0.00000000000E+00 0.  1.
</event>
<event>
 7    1  0.2642243E-009  0.4778728E+02  0.7816164E-02  0.1312668E+00
        -11   -1    0    0    0    0  0.00000000000E+00  0.00000000000E+00  0.45593999997E+02  0.45594000000E+02  0.51100000000E-03 0.  1.
         11   -1    0    0    0    0 -0.00000000000E+00 -0.00000000000E+00 -0.45593999997E+02  0.45594000000E+02  0.51100000000E-03 0. -1.
    9900012    2    1    2    0    0  0.28500903384E+01 -0.30807142630E+02 -0.30437146236E+02  0.47787275087E+02  0.20000018432E+02 0.  0.
        -12    1    1    2    0    0 -0.28500903384E+01  0.30807142630E+02  0.30437146236E+02  0.43400724913E+02  0.00000000000E+00 0.  1.
         11    1    3    3    0    0  0.15219029340E+01 -0.15041995770E+02 -0.13554450220E+02  0.20305195058E+02  0.51100000000E-03 0. -1.
        -11    1    3    3    0    0 -0.51223863184E+01 -0.14130745979E+02 -0.11671534021E+02  0.19030016558E+02  0.51100000000E-03 0.  1.
        -12    1    3    3    0    0  0.64505737229E+01 -0.16344008803E+01 -0.52111619954E+01  0.84520634720E+01  0.00000000000E+00 0.  1.
</event>
<event>
 7    1  0.2642243E-009  0.4778728E+02  0.7816164E-02  0.1312668E+00
        -11   -1    0    0    0    0  0.00000000000E+00  0.00000000000E+00  0.45593999997E+02  0.45594000000E+02  0.51100000000E-03 0.  1.
         11   -1    0    0    0    0 -0.00000000000E+00 -0.00000000000E+00 -0.45593999997E+02  0.45594000000E+02  0.51100000000E-03 0. -1.
    9900012    2    1    2    0    0  0.24928147638E+02 -0.27021427185E+02 -0.23066267068E+02  0.47787277100E+02  0.20000027610E+02 0.  0.
        -12    1    1    2    0    0 -0.24928147638E+02  0.27021427185E+02  0.23066267068E+02  0.43400722900E+02  0.00000000000E+00 0.  1.
         11    1    3    3    0    0 -0.20113879947E+00 -0.63634840243E+00  0.20241940951E+01  0.21313746977E+01  0.51100000000E-03 0. -1.
        -11    1    3    3    0    0 -0.15424399640E-01 -0.57950508966E+00  0.10104847900E+01  0.11649651638E+01  0.51100000000E-03 0.  1.
         12    1    3    3    0    0  0.25144710837E+02 -0.25805573693E+02 -0.26100945953E+02  0.44490937239E+02  0.00000000000E+00 0. -1.
</event>
<event>
 7    1  0.2642243E-009  0.4778728E+02  0.7816164E-02  0.1312668E+00
        -11   -1    0    0    0    0  0.00000000000E+00  0.00000000000E+00  0.45593999997E+02  0.45594000000E+02  0.51100000000E-03 0.  1.
         11   -1    0    0    0    0 -0.00000000000E+00 -0.00000000000E+00 -0.45593999997E+02  0.45594000000E+02  0.51100000000E-03 0. -1.
    9900012    2    1    2    0    0 -0.34047350797E+02 -0.23044591144E+02 -0.13904931369E+02  0.47787281185E+02  0.20000046234E+02 0.  0.
        -12    1    1    2    0    0  0.34047350797E+02  0.23044591144E+02  0.13904931369E+02  0.43400718815E+02  0.00000000000E+00 0.  1.
         11    1    3    3    0    0 -0.11433275267E+02 -0.16780634716E+02 -0.68850008952E+01  0.21440912350E+02  0.51100000000E-03 0. -1.
        -11    1    3    3    0    0 -0.68822841524E+01  0.18137043583E+01  0.48853567729E+00  0.71340049077E+01  0.51100000000E-03 0.  1.
        -12    1    3    3    0    0 -0.15731791378E+02 -0.80776607868E+01 -0.75084661511E+01  0.19212363928E+02  0.00000000000E+00 0.  1.
</event>
<event>
 7    1  0.2642243E-009  0.4778727E+02  0.7816164E-02  0.1312668E+00
        -11   -1    0    0    0    0  0.00000000000E+00  0.00000000000E+00  0.45593999997E+02  0.45594000000E+02  0.51100000000E-03 0.  1.
         11   -1    0    0    0    0 -0.00000000000E+00 -0.00000000000E+00 -0.45593999997E+02  0.45594000000E+02  0.51100000000E-03 0. -1.
    9900012    2    1    2    0    0  0.27018321979E+02 -0.33965178250E+02 -0.73219263540E-02  0.47787272935E+02  0.20000008620E+02 0.  0.
        -12    1    1    2    0    0 -0.27018321979E+02  0.33965178250E+02  0.73219263540E-02  0.43400727065E+02  0.00000000000E+00 0.  1.
         11    1    3    3    0    0  0.17418282342E+02 -0.13814726601E+02 -0.26548287844E+01  0.22389536551E+02  0.51100000000E-03 0. -1.
        -11    1    3    3    0    0  0.21817574073E+01 -0.16397167100E+02 -0.39059203081E+00  0.16546290118E+02  0.51100000000E-03 0.  1.
        -12    1    3    3    0    0  0.74182822293E+01 -0.37532845498E+01  0.30380988888E+01  0.88514462662E+01  0.00000000000E+00 0.  1.
</event>
<event>
 7    1  0.2642243E-009  0.4778727E+02  0.7816164E-02  0.1312668E+00
        -11   -1    0    0    0    0  0.00000000000E+00  0.00000000000E+00  0.45593999997E+02  0.45594000000E+02  0.51100000000E-03 0.  1.
         11   -1    0    0    0    0 -0.00000000000E+00 -0.00000000000E+00 -0.45593999997E+02  0.45594000000E+02  0.51100000000E-03 0. -1.
    9900012    2    1    2    0    0  0.36033095901E+01 -0.42066953905E+02 -0.10050406950E+02  0.47787272693E+02  0.20000007518E+02 0.  0.
        -12    1    1    2    0    0 -0.36033095901E+01  0.42066953905E+02  0.10050406950E+02  0.43400727307E+02  0.00000000000E+00 0.  1.
         11    1    3    3    0    0 -0.47789156288E+01 -0.15807201917E+02 -0.26850211555E+01  0.16730660653E+02  0.51100000000E-03 0. -1.
        -11    1    3    3    0    0  0.96809208315E+01 -0.12900838942E+02 -0.88847952539E+00  0.16153676661E+02  0.51100000000E-03 0.  1.
         12    1    3    3    0    0 -0.12986956125E+01 -0.13358913047E+02 -0.64769062691E+01  0.14902935379E+02  0.00000000000E+00 0. -1.
</event>
<event>
 7    1  0.2642243E-009  0.4778727E+02  0.7816164E-02  0.1312668E+00
        -11   -1    0    0    0    0  0.00000000000E+00  0.00000000000E+00  0.45593999997E+02  0.45594000000E+02  0.51100000000E-03 0. -1.
         11   -1    0    0    0    0 -0.00000000000E+00 -0.00000000000E+00 -0.45593999997E+02  0.45594000000E+02  0.51100000000E-03 0.  1.
    9900012    2    1    2    0    0 -0.22176683115E+02 -0.29549554132E+02  0.22773716836E+02  0.47787267266E+02  0.19999982771E+02 0.  0.
        -12    1    1    2    0    0  0.22176683115E+02  0.29549554132E+02 -0.22773716836E+02  0.43400732734E+02  0.00000000000E+00 0.  1.
         11    1    3    3    0    0 -0.76221360169E+01 -0.11702517373E+02  0.13568399539E+02  0.19471706054E+02  0.51100000000E-03 0. -1.
        -11    1    3    3    0    0  0.85955976466E+00 -0.83786470466E+01  0.11047812241E+01  0.84947696340E+01  0.51100000000E-03 0.  1.
        -12    1    3    3    0    0 -0.15414106862E+02 -0.94683897121E+01  0.81005360729E+01  0.19820791578E+02  0.00000000000E+00 0.  1.
</event>
<event>
 7    1  0.2642243E-009  0.4778728E+02  0.7816164E-02  0.1312668E+00
        -11   -1    0    0    0    0  0.00000000000E+00  0.00000000000E+00  0.45593999997E+02  0.45594000000E+02  0.51100000000E-03 0.  1.
         11   -1    0    0    0    0 -0.00000000000E+00 -0.00000000000E+00 -0.45593999997E+02  0.45594000000E+02  0.51100000000E-03 0. -1.
    9900012    2    1    2    0    0  0.18021950747E+02  0.54681953663E+01 -0.39101546587E+02  0.47787276334E+02  0.20000024116E+02 0.  0.
        -12    1    1    2    0    0 -0.18021950747E+02 -0.54681953663E+01  0.39101546587E+02  0.43400723666E+02  0.00000000000E+00 0.  1.
         11    1    3    3    0    0  0.36543037888E+01  0.36309977345E+01 -0.26737039312E+02  0.27228796378E+02  0.51100000000E-03 0. -1.
        -11    1    3    3    0    0  0.66281037240E+01 -0.45372306271E+00 -0.11517105517E+01  0.67427042831E+01  0.51100000000E-03 0.  1.
         12    1    3    3    0    0  0.77395432341E+01  0.22909206945E+01 -0.11212796723E+02  0.13815775673E+02  0.00000000000E+00 0. -1.
</event>
<event>
 7    1  0.2642243E-009  0.4778726E+02  0.7816164E-02  0.1312668E+00
        -11   -1    0    0    0    0  0.00000000000E+00  0.00000000000E+00  0.45593999997E+02  0.45594000000E+02  0.51100000000E-03 0.  1.
         11   -1    0    0    0    0 -0.00000000000E+00 -0.00000000000E+00 -0.45593999997E+02  0.45594000000E+02  0.51100000000E-03 0. -1.
    9900012    2    1    2    0    0 -0.15628182155E+02  0.38336390886E+02 -0.13027083218E+02  0.47787264513E+02  0.19999970220E+02 0.  0.
        -12    1    1    2    0    0  0.15628182155E+02 -0.38336390886E+02  0.13027083218E+02  0.43400735487E+02  0.00000000000E+00 0.  1.
         11    1    3    3    0    0  0.12507245614E+01  0.17114479052E+02 -0.11316132040E+02  0.20555401960E+02  0.51100000000E-03 0. -1.
        -11    1    3    3    0    0 -0.11758060838E+02  0.13416416746E+02 -0.13178936202E+01  0.17888238505E+02  0.51100000000E-03 0.  1.
         12    1    3    3    0    0 -0.51208458789E+01  0.78054950885E+01 -0.39305755767E+00  0.93436240472E+01  0.00000000000E+00 0. -1.
</event>
<event>
 7    1  0.2642243E-009  0.4778727E+02  0.7816164E-02  0.1312668E+00
        -11   -1    0    0    0    0  0.00000000000E+00  0.00000000000E+00  0.45593999997E+02  0.45594000000E+02  0.51100000000E-03 0. -1.
         11   -1    0    0    0    0 -0.00000000000E+00 -0.00000000000E+00 -0.45593999997E+02  0.45594000000E+02  0.51100000000E-03 0.  1.
    9900012    2    1    2    0    0  0.19249614884E+02 -0.47905771325E+01  0.38602150399E+02  0.47787270538E+02  0.19999997691E+02 0.  0.
        -12    1    1    2    0    0 -0.19249614884E+02  0.47905771325E+01 -0.38602150399E+02  0.43400729462E+02  0.00000000000E+00 0.  1.
         11    1    3    3    0    0  0.70516468869E+01 -0.76672178248E+01  0.24473472998E+02  0.26598173506E+02  0.51100000000E-03 0. -1.
        -11    1    3    3    0    0  0.60066057349E+01 -0.20121678878E+01  0.18583701683E+01  0.66016416146E+01  0.51100000000E-03 0.  1.
         12    1    3    3    0    0  0.61913622621E+01  0.48888085802E+01  0.12270307232E+02  0.14587455418E+02  0.00000000000E+00 0. -1.
</event>
<event>
 7    1  0.2642243E-009  0.4778727E+02  0.7816164E-02  0.1312668E+00
        -11   -1    0    0    0    0  0.00000000000E+00  0.00000000000E+00  0.45593999997E+02  0.45594000000E+02  0.51100000000E-03 0. -1.
         11   -1    0    0    0    0 -0.00000000000E+00 -0.00000000000E+00 -0.45593999997E+02  0.45594000000E+02  0.51100000000E-03 0.  1.
    9900012    2    1    2    0    0  0.39384132124E+02 -0.81821727788E+01  0.16296171637E+02  0.47787273917E+02  0.20000013097E+02 0.  0.
        -12    1    1    2    0    0 -0.39384132124E+02  0.81821727788E+01 -0.16296171637E+02  0.43400726083E+02  0.00000000000E+00 0.  1.
         11    1    3    3    0    0  0.26954987836E+02 -0.11580913053E+02  0.17613003319E+02  0.34218515493E+02  0.51100000000E-03 0. -1.
        -11    1    3    3    0    0  0.46571801198E+01  0.31258731921E+01 -0.14406599417E+01  0.57910198765E+01  0.51100000000E-03 0.  1.
         12    1    3    3    0    0  0.77719641680E+01  0.27286708199E+00  0.12382825915E+00  0.77777385473E+01  0.00000000000E+00 0. -1.
</event>
<event>
 7    1  0.2642243E-009  0.4778726E+02  0.7816164E-02  0.1312668E+00
        -11   -1    0    0    0    0  0.00000000000E+00  0.00000000000E+00  0.45593999997E+02  0.45594000000E+02  0.51100000000E-03 0. -1.
         11   -1    0    0    0    0 -0.00000000000E+00 -0.00000000000E+00 -0.45593999997E+02  0.45594000000E+02  0.51100000000E-03 0.  1.
    9900012    2    1    2    0    0  0.37499580237E+02  0.21109303148E+02  0.56394151241E+01  0.47787260372E+02  0.19999951339E+02 0.  0.
        -12    1    1    2    0    0 -0.37499580237E+02 -0.21109303148E+02 -0.56394151241E+01  0.43400739628E+02  0.00000000000E+00 0.  1.
         11    1    3    3    0    0  0.45659144142E+01 -0.18619384626E+01  0.38797750553E+01  0.62743162191E+01  0.51100000000E-03 0. -1.
        -11    1    3    3    0    0  0.31920522676E+02  0.23781098583E+02  0.65724071530E+00  0.39810706893E+02  0.51100000000E-03 0.  1.
        -12    1    3    3    0    0  0.10131431473E+01 -0.80985697302E+00  0.11023993535E+01  0.17022372597E+01  0.00000000000E+00 0.  1.
</event>
<event>
 7    1  0.2642243E-009  0.4778727E+02  0.7816164E-02  0.1312668E+00
        -11   -1    0    0    0    0  0.00000000000E+00  0.00000000000E+00  0.45593999997E+02  0.45594000000E+02  0.51100000000E-03 0.  1.
         11   -1    0    0    0    0 -0.00000000000E+00 -0.00000000000E+00 -0.45593999997E+02  0.45594000000E+02  0.51100000000E-03 0. -1.
    9900012    2    1    2    0    0  0.20240456713E+02 -0.94506574369E+01 -0.37210648188E+02  0.47787270139E+02  0.19999995870E+02 0.  0.
        -12    1    1    2    0    0 -0.20240456713E+02  0.94506574369E+01  0.37210648188E+02  0.43400729861E+02  0.00000000000E+00 0.  1.
         11    1    3    3    0    0  0.10029793603E+01 -0.13020974028E+01 -0.19217720634E+02  0.19287877329E+02  0.51100000000E-03 0. -1.
        -11    1    3    3    0    0  0.15373347615E+02 -0.73782658565E+01 -0.17653973019E+02  0.24544681452E+02  0.51100000000E-03 0.  1.
        -12    1    3    3    0    0  0.38641297374E+01 -0.77029417757E+00 -0.33895453495E+00  0.39547113578E+01  0.00000000000E+00 0.  1.
</event>
<event>
 7    1  0.2642243E-009  0.4778727E+02  0.7816164E-02  0.1312668E+00
        -11   -1    0    0    0    0  0.00000000000E+00  0.00000000000E+00  0.45593999997E+02  0.45594000000E+02  0.51100000000E-03 0.  1.
         11   -1    0    0    0    0 -0.00000000000E+00 -0.00000000000E+00 -0.45593999997E+02  0.45594000000E+02  0.51100000000E-03 0. -1.
    9900012    2    1    2    0    0  0.37914175985E+02  0.59928025865E+01 -0.20254010522E+02  0.47787269987E+02  0.19999995177E+02 0.  0.
        -12    1    1    2    0    0 -0.37914175985E+02 -0.59928025865E+01  0.20254010522E+02  0.43400730013E+02  0.00000000000E+00 0.  1.
         11    1    3    3    0    0  0.34752679081E+02  0.41317746344E+01 -0.12746927878E+02  0.37246535886E+02  0.51100000000E-03 0. -1.
        -11    1    3    3    0    0 -0.14058001341E+00  0.32816226941E+01 -0.16680650944E+01  0.36839179777E+01  0.51100000000E-03 0.  1.
         12    1    3    3    0    0  0.33020769172E+01 -0.14205947420E+01 -0.58390175500E+01  0.68568161225E+01  0.00000000000E+00 0. -1.
</event>
<event>
 7    1  0.2642243E-009  0.4778727E+02  0.7816164E-02  0.1312668E+00
        -11   -1    0    0    0    0  0.00000000000E+00  0.00000000000E+00  0.45593999997E+02  0.45594000000E+02  0.51100000000E-03 0.  1.
         11   -1    0    0    0    0 -0.00000000000E+00 -0.00000000000E+00 -0.45593999997E+02  0.45594000000E+02  0.51100000000E-03 0. -1.
    9900012    2    1    2    0    0  0.70149743000E+01 -0.19492727849E+02 -0.38137217428E+02  0.47787266635E+02  0.19999979897E+02 0.  0.
        -12    1    1    2    0    0 -0.70149743000E+01  0.19492727849E+02  0.38137217428E+02  0.43400733365E+02  0.00000000000E+00 0.  1.
         11    1    3    3    0    0 -0.22907105852E+01  0.21944585199E+01 -0.14144911965E+01  0.34732965302E+01  0.51100000000E-03 0. -1.
        -11    1    3    3    0    0  0.46474096401E+01 -0.10106580380E+02 -0.10616133301E+02  0.15376724939E+02  0.51100000000E-03 0.  1.
         12    1    3    3    0    0  0.46582752451E+01 -0.11580605989E+02 -0.26106592931E+02  0.28937245166E+02  0.00000000000E+00 0. -1.
</event>
<event>
 7    1  0.2642243E-009  0.4778729E+02  0.7816164E-02  0.1312668E+00
        -11   -1    0    0    0    0  0.00000000000E+00  0.00000000000E+00  0.45593999997E+02  0.45594000000E+02  0.51100000000E-03 0.  1.
         11   -1    0    0    0    0 -0.00000000000E+00 -0.00000000000E+00 -0.45593999997E+02  0.45594000000E+02  0.51100000000E-03 0. -1.
    9900012    2    1    2    0    0 -0.42676613403E+01  0.32030437733E+02 -0.28973437255E+02  0.47787286399E+02  0.20000070009E+02 0.  0.
        -12    1    1    2    0    0  0.42676613403E+01 -0.32030437733E+02  0.28973437255E+02  0.43400713601E+02  0.00000000000E+00 0.  1.
         11    1    3    3    0    0 -0.28061849862E+01  0.88665447484E+01 -0.15945927122E+02  0.18459763866E+02  0.51100000000E-03 0. -1.
        -11    1    3    3    0    0  0.38799985390E+01  0.19146823315E+02 -0.10526296166E+02  0.22191397949E+02  0.51100000000E-03 0.  1.
        -12    1    3    3    0    0 -0.53414748931E+01  0.40170696700E+01 -0.25012139663E+01  0.71361245836E+01  0.00000000000E+00 0.  1.
</event>
<event>
 7    1  0.2642243E-009  0.4778727E+02  0.7816164E-02  0.1312668E+00
        -11   -1    0    0    0    0  0.00000000000E+00  0.00000000000E+00  0.45593999997E+02  0.45594000000E+02  0.51100000000E-03 0. -1.
         11   -1    0    0    0    0 -0.00000000000E+00 -0.00000000000E+00 -0.45593999997E+02  0.45594000000E+02  0.51100000000E-03 0.  1.
    9900012    2    1    2    0    0 -0.26669754946E+02 -0.27739652114E+01  0.34127008150E+02  0.47787269624E+02  0.19999993524E+02 0.  0.
        -12    1    1    2    0    0  0.26669754946E+02  0.27739652114E+01 -0.34127008150E+02  0.43400730376E+02  0.00000000000E+00 0.  1.
         11    1    3    3    0    0 -0.30469224857E+01 -0.30721581996E+01  0.66541459574E+01  0.79372256690E+01  0.51100000000E-03 0. -1.
        -11    1    3    3    0    0 -0.25750616213E+02 -0.15590157473E+01  0.26142407151E+02  0.36728057632E+02  0.51100000000E-03 0.  1.
        -12    1    3    3    0    0  0.21277837530E+01  0.18572087355E+01  0.13304550416E+01  0.31219863235E+01  0.00000000000E+00 0.  1.
</event>
<event>
 7    1  0.2642243E-009  0.4778727E+02  0.7816164E-02  0.1312668E+00
        -11   -1    0    0    0    0  0.00000000000E+00  0.00000000000E+00  0.45593999997E+02  0.45594000000E+02  0.51100000000E-03 0. -1.
         11   -1    0    0    0    0 -0.00000000000E+00 -0.00000000000E+00 -0.45593999997E+02  0.45594000000E+02  0.51100000000E-03 0.  1.
    9900012    2    1    2    0    0 -0.36444681046E+02  0.20216017934E+02  0.12112856780E+02  0.47787268935E+02  0.19999990382E+02 0.  0.
        -12    1    1    2    0    0  0.36444681046E+02 -0.20216017934E+02 -0.12112856780E+02  0.43400731065E+02  0.00000000000E+00 0.  1.
         11    1    3    3    0    0 -0.22406830358E+02  0.16729689751E+02  0.16514876179E+02  0.32475986534E+02  0.51100000000E-03 0. -1.
        -11    1    3    3    0    0 -0.53983414167E+01  0.20235531293E+01 -0.27781874248E+01  0.63996236566E+01  0.51100000000E-03 0.  1.
         12    1    3    3    0    0 -0.86395092707E+01  0.14627750530E+01 -0.16238319747E+01  0.89116587444E+01  0.00000000000E+00 0. -1.
</event>
<event>
 7    1  0.2642243E-009  0.4778727E+02  0.7816164E-02  0.1312668E+00
        -11   -1    0    0    0    0  0.00000000000E+00  0.00000000000E+00  0.45593999997E+02  0.45594000000E+02  0.51100000000E-03 0. -1.
         11   -1    0    0    0    0 -0.00000000000E+00 -0.00000000000E+00 -0.45593999997E+02  0.45594000000E+02  0.51100000000E-03 0.  1.
    9900012    2    1    2    0    0 -0.18488061108E+02  0.88928408990E+00  0.39255877546E+02  0.47787272453E+02  0.20000006422E+02 0.  0.
        -12    1    1    2    0    0  0.18488061108E+02 -0.88928408990E+00 -0.39255877546E+02  0.43400727547E+02  0.00000000000E+00 0.  1.
         11    1    3    3    0    0  0.12957780061E+00  0.28188241146E+01 -0.77020576964E+00  0.29250259801E+01  0.51100000000E-03 0.  1.
        -11    1    3    3    0    0 -0.50962769508E+01 -0.19588772767E+01  0.19753285195E+02  0.20493938499E+02  0.51100000000E-03 0. -1.
        -12    1    3    3    0    0 -0.13521361958E+02  0.29337251992E-01  0.20272798120E+02  0.24368307973E+02  0.00000000000E+00 0.  1.
</event>
<event>
 7    1  0.2642243E-009  0.4778727E+02  0.7816164E-02  0.1312668E+00
        -11   -1    0    0    0    0  0.00000000000E+00  0.00000000000E+00  0.45593999997E+02  0.45594000000E+02  0.51100000000E-03 0.  1.
         11   -1    0    0    0    0 -0.00000000000E+00 -0.00000000000E+00 -0.45593999997E+02  0.45594000000E+02  0.51100000000E-03 0. -1.
    9900012    2    1    2    0    0  0.10807431795E+02  0.33649570491E+01 -0.41898684328E+02  0.47787271131E+02  0.20000000397E+02 0.  0.
        -12    1    1    2    0    0 -0.10807431795E+02 -0.33649570491E+01  0.41898684328E+02  0.43400728869E+02  0.00000000000E+00 0.  1.
         11    1    3    3    0    0 -0.18055072730E+01 -0.20074495819E+01 -0.26440326796E+02  0.26577821425E+02  0.51100000000E-03 0. -1.
        -11    1    3    3    0    0  0.77556767016E+01  0.57010768884E+01 -0.96377921163E+01  0.13621300816E+02  0.51100000000E-03 0.  1.
         12    1    3    3    0    0  0.48572623662E+01 -0.32867025751E+00 -0.58205654150E+01  0.75881488903E+01  0.00000000000E+00 0. -1.
</event>
<event>
 7    1  0.2642243E-009  0.4778727E+02  0.7816164E-02  0.1312668E+00
        -11   -1    0    0    0    0  0.00000000000E+00  0.00000000000E+00  0.45593999997E+02  0.45594000000E+02  0.51100000000E-03 0. -1.
         11   -1    0    0    0    0 -0.00000000000E+00 -0.00000000000E+00 -0.45593999997E+02  0.45594000000E+02  0.51100000000E-03 0.  1.
    9900012    2    1    2    0    0  0.35403271464E+02 -0.10932127267E+02  0.22599125802E+02  0.47787268163E+02  0.19999986864E+02 0.  0.
        -12    1    1    2    0    0 -0.35403271464E+02  0.10932127267E+02 -0.22599125802E+02  0.43400731837E+02  0.00000000000E+00 0.  1.
         11    1    3    3    0    0  0.30883995843E+02 -0.13959389854E+02  0.16121253893E+02  0.37531061692E+02  0.51100000000E-03 0. -1.
        -11    1    3    3    0    0  0.55278227698E+01  0.30219595337E+01  0.67279849611E+01  0.92170953068E+01  0.51100000000E-03 0.  1.
         12    1    3    3    0    0 -0.10085471490E+01  0.53030532929E-02 -0.25011305241E+00  0.10391111649E+01  0.00000000000E+00 0. -1.
</event>
<event>
 7    1  0.2642243E-009  0.4778729E+02  0.7816164E-02  0.1312668E+00
        -11   -1    0    0    0    0  0.00000000000E+00  0.00000000000E+00  0.45593999997E+02  0.45594000000E+02  0.51100000000E-03 0.  1.
         11   -1    0    0    0    0 -0.00000000000E+00 -0.00000000000E+00 -0.45593999997E+02  0.45594000000E+02  0.51100000000E-03 0. -1.
    9900012    2    1    2    0    0 -0.18024428564E+02 -0.13348400685E+02 -0.37155911353E+02  0.47787290623E+02  0.20000089268E+02 0.  0.
        -12    1    1    2    0    0  0.18024428564E+02  0.13348400685E+02  0.37155911353E+02  0.43400709377E+02  0.00000000000E+00 0.  1.
         11    1    3    3    0    0 -0.12031450756E+02 -0.13439883695E+02 -0.28438210138E+02  0.33676669627E+02  0.51100000000E-03 0. -1.
        -11    1    3    3    0    0  0.17745660299E+01  0.23769866572E+01 -0.28270603687E+01  0.40977336117E+01  0.51100000000E-03 0.  1.
        -12    1    3    3    0    0 -0.77675438385E+01 -0.22855036473E+01 -0.58906408464E+01  0.10012887385E+02  0.00000000000E+00 0.  1.
</event>
<event>
 7    1  0.2642243E-009  0.4778727E+02  0.7816164E-02  0.1312668E+00
        -11   -1    0    0    0    0  0.00000000000E+00  0.00000000000E+00  0.45593999997E+02  0.45594000000E+02  0.51100000000E-03 0.  1.
         11   -1    0    0    0    0 -0.00000000000E+00 -0.00000000000E+00 -0.45593999997E+02  0.45594000000E+02  0.51100000000E-03 0. -1.
    9900012    2    1    2    0    0 -0.20307123901E+02  0.36733603019E+02 -0.11040225523E+02  0.47787268999E+02  0.19999990674E+02 0.  0.
        -12    1    1    2    0    0  0.20307123901E+02 -0.36733603019E+02  0.11040225523E+02  0.43400731001E+02  0.00000000000E+00 0.  1.
         11    1    3    3    0    0 -0.12884799982E+02  0.31841211874E+02 -0.46397505694E+01  0.34661334795E+02  0.51100000000E-03 0. -1.
        -11    1    3    3    0    0  0.17752028466E+00 -0.14167976502E+01 -0.14713694168E+00  0.14354367188E+01  0.51100000000E-03 0.  1.
         12    1    3    3    0    0 -0.75998442036E+01  0.63091887950E+01 -0.62533380114E+01  0.11690497485E+02  0.00000000000E+00 0. -1.
</event>
<event>
 7    1  0.2642243E-009  0.4778727E+02  0.7816164E-02  0.1312668E+00
        -11   -1    0    0    0    0  0.00000000000E+00  0.00000000000E+00  0.45593999997E+02  0.45594000000E+02  0.51100000000E-03 0.  1.
         11   -1    0    0    0    0 -0.00000000000E+00 -0.00000000000E+00 -0.45593999997E+02  0.45594000000E+02  0.51100000000E-03 0. -1.
    9900012    2    1    2    0    0 -0.14954377120E+01  0.15520206183E+02 -0.40503214035E+02  0.47787268657E+02  0.19999989114E+02 0.  0.
        -12    1    1    2    0    0  0.14954377120E+01 -0.15520206183E+02  0.40503214035E+02  0.43400731343E+02  0.00000000000E+00 0.  1.
         11    1    3    3    0    0 -0.20725521675E+01  0.12668104021E+02 -0.30885652222E+02  0.33446970647E+02  0.51100000000E-03 0. -1.
        -11    1    3    3    0    0  0.44315440195E+01  0.21326360897E+01 -0.12119360547E+01  0.50651266864E+01  0.51100000000E-03 0.  1.
        -12    1    3    3    0    0 -0.38544295640E+01  0.71946607226E+00 -0.84056257586E+01  0.92751713238E+01  0.00000000000E+00 0.  1.
</event>
<event>
 7    1  0.2642243E-009  0.4778727E+02  0.7816164E-02  0.1312668E+00
        -11   -1    0    0    0    0  0.00000000000E+00  0.00000000000E+00  0.45593999997E+02  0.45594000000E+02  0.51100000000E-03 0.  1.
         11   -1    0    0    0    0 -0.00000000000E+00 -0.00000000000E+00 -0.45593999997E+02  0.45594000000E+02  0.51100000000E-03 0. -1.
    9900012    2    1    2    0    0 -0.91808097068E+01  0.12138520314E+01 -0.42401209559E+02  0.47787271024E+02  0.19999999906E+02 0.  0.
        -12    1    1    2    0    0  0.91808097068E+01 -0.12138520314E+01  0.42401209559E+02  0.43400728976E+02  0.00000000000E+00 0.  1.
         11    1    3    3    0    0 -0.96412864598E+01  0.50999173736E+01 -0.25541772641E+02  0.27773111308E+02  0.51100000000E-03 0. -1.
        -11    1    3    3    0    0 -0.24631266057E+00 -0.61668057303E+01 -0.50752922665E+01  0.79905415770E+01  0.51100000000E-03 0.  1.
         12    1    3    3    0    0  0.70678941353E+00  0.22807403882E+01 -0.11784144651E+02  0.12023618139E+02  0.00000000000E+00 0. -1.
</event>
<event>
 7    1  0.2642243E-009  0.4778727E+02  0.7816164E-02  0.1312668E+00
        -11   -1    0    0    0    0  0.00000000000E+00  0.00000000000E+00  0.45593999997E+02  0.45594000000E+02  0.51100000000E-03 0.  1.
         11   -1    0    0    0    0 -0.00000000000E+00 -0.00000000000E+00 -0.45593999997E+02  0.45594000000E+02  0.51100000000E-03 0. -1.
    9900012    2    1    2    0    0  0.98198747091E+00 -0.34823022770E+01 -0.43249654138E+02  0.47787270610E+02  0.19999998018E+02 0.  0.
        -12    1    1    2    0    0 -0.98198747091E+00  0.34823022770E+01  0.43249654138E+02  0.43400729390E+02  0.00000000000E+00 0.  1.
         11    1    3    3    0    0  0.32340826378E+01  0.41073719376E+01 -0.17372287880E+02  0.18141835111E+02  0.51100000000E-03 0. -1.
        -11    1    3    3    0    0  0.20708555131E+01 -0.94465884987E+01 -0.15816787449E+02  0.18539073394E+02  0.51100000000E-03 0.  1.
        -12    1    3    3    0    0 -0.43229506800E+01  0.18569142842E+01 -0.10060578809E+02  0.11106362105E+02  0.00000000000E+00 0.  1.
</event>
<event>
 7    1  0.2642243E-009  0.4778727E+02  0.7816164E-02  0.1312668E+00
        -11   -1    0    0    0    0  0.00000000000E+00  0.00000000000E+00  0.45593999997E+02  0.45594000000E+02  0.51100000000E-03 0.  1.
         11   -1    0    0    0    0 -0.00000000000E+00 -0.00000000000E+00 -0.45593999997E+02  0.45594000000E+02  0.51100000000E-03 0. -1.
    9900012    2    1    2    0    0  0.30564298972E+02  0.11464380218E+02 -0.28600953649E+02  0.47787274948E+02  0.20000017797E+02 0.  0.
        -12    1    1    2    0    0 -0.30564298972E+02 -0.11464380218E+02  0.28600953649E+02  0.43400725052E+02  0.00000000000E+00 0.  1.
         11    1    3    3    0    0  0.11316805510E+02  0.40433058440E+01 -0.73580905099E+00  0.12039926258E+02  0.51100000000E-03 0. -1.
        -11    1    3    3    0    0  0.51966194716E+01  0.20938084178E+01 -0.14835655119E+02  0.15858295958E+02  0.51100000000E-03 0.  1.
         12    1    3    3    0    0  0.14050873991E+02  0.53272659558E+01 -0.13029489479E+02  0.19889052731E+02  0.00000000000E+00 0. -1.
</event>
<event>
 7    1  0.2642243E-009  0.4778727E+02  0.7816164E-02  0.1312668E+00
        -11   -1    0    0    0    0  0.00000000000E+00  0.00000000000E+00  0.45593999997E+02  0.45594000000E+02  0.51100000000E-03 0.  1.
         11   -1    0    0    0    0 -0.00000000000E+00 -0.00000000000E+00 -0.45593999997E+02  0.45594000000E+02  0.51100000000E-03 0. -1.
    9900012    2    1    2    0    0 -0.16528874301E+02 -0.68372729288E+01 -0.39543283911E+02  0.47787270868E+02  0.19999999193E+02 0.  0.
        -12    1    1    2    0    0  0.16528874301E+02  0.68372729288E+01  0.39543283911E+02  0.43400729132E+02  0.00000000000E+00 0.  1.
         11    1    3    3    0    0 -0.10023182210E+02 -0.22024684554E+01 -0.78413555431E+01  0.12915181219E+02  0.51100000000E-03 0. -1.
        -11    1    3    3    0    0  0.23468656727E+01 -0.40954848755E+01 -0.17524790197E+02  0.18149353888E+02  0.51100000000E-03 0.  1.
         12    1    3    3    0    0 -0.88525577637E+01 -0.53931959790E+00 -0.14177138171E+02  0.16722735761E+02  0.00000000000E+00 0. -1.
</event>
<event>
 7    1  0.2642243E-009  0.4778727E+02  0.7816164E-02  0.1312668E+00
        -11   -1    0    0    0    0  0.00000000000E+00  0.00000000000E+00  0.45593999997E+02  0.45594000000E+02  0.51100000000E-03 0. -1.
         11   -1    0    0    0    0 -0.00000000000E+00 -0.00000000000E+00 -0.45593999997E+02  0.45594000000E+02  0.51100000000E-03 0.  1.
    9900012    2    1    2    0    0  0.46240190573E+01  0.37033149158E+02  0.22153727866E+02  0.47787270200E+02  0.19999996151E+02 0.  0.
        -12    1    1    2    0    0 -0.46240190573E+01 -0.37033149158E+02 -0.22153727866E+02  0.43400729800E+02  0.00000000000E+00 0.  1.
         11    1    3    3    0    0 -0.32202948469E+01  0.57813147279E+01  0.41436593654E+01  0.78079326381E+01  0.51100000000E-03 0. -1.
        -11    1    3    3    0    0  0.66298090198E+01  0.12469986341E+02  0.28504922896E+00  0.14125727602E+02  0.51100000000E-03 0.  1.
        -12    1    3    3    0    0  0.12145048844E+01  0.18781848090E+02  0.17725019271E+02  0.25853609960E+02  0.00000000000E+00 0.  1.
</event>
<event>
 7    1  0.2642243E-009  0.4778727E+02  0.7816164E-02  0.1312668E+00
        -11   -1    0    0    0    0  0.00000000000E+00  0.00000000000E+00  0.45593999997E+02  0.45594000000E+02  0.51100000000E-03 0.  1.
         11   -1    0    0    0    0 -0.00000000000E+00 -0.00000000000E+00 -0.45593999997E+02  0.45594000000E+02  0.51100000000E-03 0. -1.
    9900012    2    1    2    0    0 -0.22485544788E+01 -0.37446459848E+01 -0.43180377802E+02  0.47787269615E+02  0.19999993484E+02 0.  0.
        -12    1    1    2    0    0  0.22485544788E+01  0.37446459848E+01  0.43180377802E+02  0.43400730385E+02  0.00000000000E+00 0.  1.
         11    1    3    3    0    0 -0.65477944649E+01 -0.88191169192E+00 -0.16263465868E+02  0.17554250280E+02  0.51100000000E-03 0. -1.
        -11    1    3    3    0    0  0.53951576365E+01 -0.36384211308E+01 -0.27848592478E+02  0.28598775105E+02  0.51100000000E-03 0.  1.
        -12    1    3    3    0    0 -0.10959176504E+01  0.77568683794E+00  0.93168054433E+00  0.16342442301E+01  0.00000000000E+00 0.  1.
</event>
<event>
 7    1  0.2642243E-009  0.4778727E+02  0.7816164E-02  0.1312668E+00
        -11   -1    0    0    0    0  0.00000000000E+00  0.00000000000E+00  0.45593999997E+02  0.45594000000E+02  0.51100000000E-03 0. -1.
         11   -1    0    0    0    0 -0.00000000000E+00 -0.00000000000E+00 -0.45593999997E+02  0.45594000000E+02  0.51100000000E-03 0.  1.
    9900012    2    1    2    0    0  0.12036672556E+02 -0.41693039436E+02  0.65746178578E+00  0.47787270978E+02  0.19999999698E+02 0.  0.
        -12    1    1    2    0    0 -0.12036672556E+02  0.41693039436E+02 -0.65746178578E+00  0.43400729022E+02  0.00000000000E+00 0.  1.
         11    1    3    3    0    0  0.24404149613E+01 -0.83288305448E+01  0.20305186440E+01  0.89133635431E+01  0.51100000000E-03 0. -1.
        -11    1    3    3    0    0  0.73057669682E+01 -0.28751993183E+02  0.56159977916E+01  0.30192561575E+02  0.51100000000E-03 0.  1.
        -12    1    3    3    0    0  0.22904906270E+01 -0.46122157080E+01 -0.69890546498E+01  0.86813458604E+01  0.00000000000E+00 0.  1.
</event>
<event>
 7    1  0.2642243E-009  0.4778727E+02  0.7816164E-02  0.1312668E+00
        -11   -1    0    0    0    0  0.00000000000E+00  0.00000000000E+00  0.45593999997E+02  0.45594000000E+02  0.51100000000E-03 0. -1.
         11   -1    0    0    0    0 -0.00000000000E+00 -0.00000000000E+00 -0.45593999997E+02  0.45594000000E+02  0.51100000000E-03 0.  1.
    9900012    2    1    2    0    0  0.30636330698E+02 -0.11487700395E+02  0.28514413197E+02  0.47787265225E+02  0.19999973468E+02 0.  0.
        -12    1    1    2    0    0 -0.30636330698E+02  0.11487700395E+02 -0.28514413197E+02  0.43400734775E+02  0.00000000000E+00 0.  1.
         11    1    3    3    0    0  0.23436602347E+01 -0.47522374979E+01  0.10954429979E+02  0.12168649924E+02  0.51100000000E-03 0. -1.
        -11    1    3    3    0    0  0.23593143870E+02 -0.60964434222E+01  0.18728880692E+02  0.30733923152E+02  0.51100000000E-03 0.  1.
        -12    1    3    3    0    0  0.46995265932E+01 -0.63901947483E+00 -0.11688974742E+01  0.48846921494E+01  0.00000000000E+00 0.  1.
</event>
<event>
 7    1  0.2642243E-009  0.4778727E+02  0.7816164E-02  0.1312668E+00
        -11   -1    0    0    0    0  0.00000000000E+00  0.00000000000E+00  0.45593999997E+02  0.45594000000E+02  0.51100000000E-03 0.  1.
         11   -1    0    0    0    0 -0.00000000000E+00 -0.00000000000E+00 -0.45593999997E+02  0.45594000000E+02  0.51100000000E-03 0. -1.
    9900012    2    1    2    0    0 -0.22953448804E+02  0.24128587943E+01 -0.36755142932E+02  0.47787271532E+02  0.20000002225E+02 0.  0.
        -12    1    1    2    0    0  0.22953448804E+02 -0.24128587943E+01  0.36755142932E+02  0.43400728468E+02  0.00000000000E+00 0.  1.
         11    1    3    3    0    0 -0.16295737116E+02 -0.19044367518E+01 -0.22578804646E+02  0.27910219401E+02  0.51100000000E-03 0. -1.
        -11    1    3    3    0    0 -0.55588264515E+01  0.81689110427E+01 -0.10805396303E+02  0.14642002891E+02  0.51100000000E-03 0.  1.
        -12    1    3    3    0    0 -0.10988852365E+01 -0.38516154966E+01 -0.33709419834E+01  0.52350492406E+01  0.00000000000E+00 0.  1.
</event>
<event>
 7    1  0.2642243E-009  0.4778727E+02  0.7816164E-02  0.1312668E+00
        -11   -1    0    0    0    0  0.00000000000E+00  0.00000000000E+00  0.45593999997E+02  0.45594000000E+02  0.51100000000E-03 0.  1.
         11   -1    0    0    0    0 -0.00000000000E+00 -0.00000000000E+00 -0.45593999997E+02  0.45594000000E+02  0.51100000000E-03 0. -1.
    9900012    2    1    2    0    0  0.23586731262E+02  0.28334723116E+02 -0.22900496999E+02  0.47787272028E+02  0.20000004483E+02 0.  0.
        -12    1    1    2    0    0 -0.23586731262E+02 -0.28334723116E+02  0.22900496999E+02  0.43400727972E+02  0.00000000000E+00 0.  1.
         11    1    3    3    0    0  0.17001736054E+02  0.26678609922E+02 -0.12225836539E+02  0.33915753501E+02  0.51100000000E-03 0. -1.
        -11    1    3    3    0    0  0.73094882260E+01  0.15800697051E+01 -0.74143064332E+01  0.10530772932E+02  0.51100000000E-03 0.  1.
        -12    1    3    3    0    0 -0.72449301817E+00  0.76043489543E-01 -0.32603540269E+01  0.33407455944E+01  0.00000000000E+00 0.  1.
</event>
<event>
 7    1  0.2642243E-009  0.4778727E+02  0.7816164E-02  0.1312668E+00
        -11   -1    0    0    0    0  0.00000000000E+00  0.00000000000E+00  0.45593999997E+02  0.45594000000E+02  0.51100000000E-03 0.  1.
         11   -1    0    0    0    0 -0.00000000000E+00 -0.00000000000E+00 -0.45593999997E+02  0.45594000000E+02  0.51100000000E-03 0. -1.
    9900012    2    1    2    0    0 -0.42508326010E+02 -0.48998704740E+01 -0.72565028809E+01  0.47787270226E+02  0.19999996269E+02 0.  0.
        -12    1    1    2    0    0  0.42508326010E+02  0.48998704740E+01  0.72565028809E+01  0.43400729774E+02  0.00000000000E+00 0.  1.
         11    1    3    3    0    0 -0.70477675853E+01 -0.82497301763E+01 -0.15169512755E+01  0.10955830290E+02  0.51100000000E-03 0. -1.
        -11    1    3    3    0    0 -0.32591071771E+02  0.18996596622E+01 -0.33343673717E+01  0.32816225743E+02  0.51100000000E-03 0.  1.
        -12    1    3    3    0    0 -0.28694866542E+01  0.14502000401E+01 -0.24051842337E+01  0.40152141926E+01  0.00000000000E+00 0.  1.
</event>
<event>
 7    1  0.2642243E-009  0.4778727E+02  0.7816164E-02  0.1312668E+00
        -11   -1    0    0    0    0  0.00000000000E+00  0.00000000000E+00  0.45593999997E+02  0.45594000000E+02  0.51100000000E-03 0.  1.
         11   -1    0    0    0    0 -0.00000000000E+00 -0.00000000000E+00 -0.45593999997E+02  0.45594000000E+02  0.51100000000E-03 0. -1.
    9900012    2    1    2    0    0  0.12507601915E+02  0.34556096829E+02 -0.23088075380E+02  0.47787272374E+02  0.20000006062E+02 0.  0.
        -12    1    1    2    0    0 -0.12507601915E+02 -0.34556096829E+02  0.23088075380E+02  0.43400727626E+02  0.00000000000E+00 0.  1.
         11    1    3    3    0    0  0.56223231312E+01  0.81611403592E+01 -0.95653174611E+01  0.13773526337E+02  0.51100000000E-03 0. -1.
        -11    1    3    3    0    0  0.42046507927E+00  0.24372842786E+02 -0.96975549771E+01  0.26234611283E+02  0.51100000000E-03 0.  1.
        -12    1    3    3    0    0  0.64648137047E+01  0.20221136838E+01 -0.38252029412E+01  0.77791347545E+01  0.00000000000E+00 0.  1.
</event>
<event>
 7    1  0.2642243E-009  0.4778727E+02  0.7816164E-02  0.1312668E+00
        -11   -1    0    0    0    0  0.00000000000E+00  0.00000000000E+00  0.45593999997E+02  0.45594000000E+02  0.51100000000E-03 0. -1.
         11   -1    0    0    0    0 -0.00000000000E+00 -0.00000000000E+00 -0.45593999997E+02  0.45594000000E+02  0.51100000000E-03 0.  1.
    9900012    2    1    2    0    0 -0.30254952721E+02 -0.25664247382E+01  0.31010882101E+02  0.47787268338E+02  0.19999987661E+02 0.  0.
        -12    1    1    2    0    0  0.30254952721E+02  0.25664247382E+01 -0.31010882101E+02  0.43400731662E+02  0.00000000000E+00 0.  1.
         11    1    3    3    0    0 -0.11914010526E+02  0.36058260092E+01  0.17891431015E+02  0.21795617267E+02  0.51100000000E-03 0. -1.
        -11    1    3    3    0    0 -0.66795998023E+01 -0.80053015069E+01  0.79185191993E+01  0.13092167594E+02  0.51100000000E-03 0.  1.
        -12    1    3    3    0    0 -0.11661342393E+02  0.18330507595E+01  0.52009318870E+01  0.12899483478E+02  0.00000000000E+00 0.  1.
</event>
<event>
 7    1  0.2642243E-009  0.4778727E+02  0.7816164E-02  0.1312668E+00
        -11   -1    0    0    0    0  0.00000000000E+00  0.00000000000E+00  0.45593999997E+02  0.45594000000E+02  0.51100000000E-03 0. -1.
         11   -1    0    0    0    0 -0.00000000000E+00 -0.00000000000E+00 -0.45593999997E+02  0.45594000000E+02  0.51100000000E-03 0.  1.
    9900012    2    1    2    0    0 -0.36261350467E+02  0.18589199069E+02 -0.14939193132E+02  0.47787270154E+02  0.19999995942E+02 0.  0.
        -12    1    1    2    0    0  0.36261350467E+02 -0.18589199069E+02  0.14939193132E+02  0.43400729846E+02  0.00000000000E+00 0.  1.
         11    1    3    3    0    0 -0.80921388338E+01  0.49653167589E+01 -0.11064046014E+02  0.14579101340E+02  0.51100000000E-03 0. -1.
        -11    1    3    3    0    0 -0.59027249341E+01  0.78956323615E+01  0.19033932089E+00  0.98599899267E+01  0.51100000000E-03 0.  1.
         12    1    3    3    0    0 -0.22266486699E+02  0.57282499484E+01 -0.40654864388E+01  0.23348178888E+02  0.00000000000E+00 0. -1.
</event>
<event>
 7    1  0.2642243E-009  0.4778727E+02  0.7816164E-02  0.1312668E+00
        -11   -1    0    0    0    0  0.00000000000E+00  0.00000000000E+00  0.45593999997E+02  0.45594000000E+02  0.51100000000E-03 0.  1.
         11   -1    0    0    0    0 -0.00000000000E+00 -0.00000000000E+00 -0.45593999997E+02  0.45594000000E+02  0.51100000000E-03 0. -1.
    9900012    2    1    2    0    0  0.42666927554E+02  0.56911257623E+01  0.55468594889E+01  0.47787271095E+02  0.20000000230E+02 0.  0.
        -12    1    1    2    0    0 -0.42666927554E+02 -0.56911257623E+01 -0.55468594889E+01  0.43400728905E+02  0.00000000000E+00 0.  1.
         11    1    3    3    0    0  0.18003274068E+02 -0.41635558033E+01 -0.46676182078E+01  0.19058849233E+02  0.51100000000E-03 0. -1.
        -11    1    3    3    0    0  0.35559374187E+01  0.18274940838E+01  0.13981300812E+00  0.40004966555E+01  0.51100000000E-03 0.  1.
         12    1    3    3    0    0  0.21107716067E+02  0.80271874817E+01  0.10074664689E+02  0.24727925206E+02  0.00000000000E+00 0. -1.
</event>
<event>
 7    1  0.2642243E-009  0.4778727E+02  0.7816164E-02  0.1312668E+00
        -11   -1    0    0    0    0  0.00000000000E+00  0.00000000000E+00  0.45593999997E+02  0.45594000000E+02  0.51100000000E-03 0.  1.
         11   -1    0    0    0    0 -0.00000000000E+00 -0.00000000000E+00 -0.45593999997E+02  0.45594000000E+02  0.51100000000E-03 0. -1.
    9900012    2    1    2    0    0 -0.78811450008E+01  0.41359386330E+02 -0.10531464514E+02  0.47787273866E+02  0.20000012866E+02 0.  0.
        -12    1    1    2    0    0  0.78811450008E+01 -0.41359386330E+02  0.10531464514E+02  0.43400726134E+02  0.00000000000E+00 0.  1.
         11    1    3    3    0    0 -0.10332108705E+02  0.26978147643E+02 -0.61823163536E+01  0.29543086439E+02  0.51100000000E-03 0. -1.
        -11    1    3    3    0    0 -0.35316989794E+01  0.27757994539E+01 -0.22353646820E+01  0.50174511271E+01  0.51100000000E-03 0.  1.
         12    1    3    3    0    0  0.59826626840E+01  0.11605439233E+02 -0.21137834784E+01  0.13226736301E+02  0.00000000000E+00 0. -1.
</event>
<event>
 7    1  0.2642243E-009  0.4778727E+02  0.7816164E-02  0.1312668E+00
        -11   -1    0    0    0    0  0.00000000000E+00  0.00000000000E+00  0.45593999997E+02  0.45594000000E+02  0.51100000000E-03 0. -1.
         11   -1    0    0    0    0 -0.00000000000E+00 -0.00000000000E+00 -0.45593999997E+02  0.45594000000E+02  0.51100000000E-03 0.  1.
    9900012    2    1    2    0    0 -0.92828225337E+01  0.37484657591E+02 -0.19807906149E+02  0.47787268498E+02  0.19999988388E+02 0.  0.
        -12    1    1    2    0    0  0.92828225337E+01 -0.37484657591E+02  0.19807906149E+02  0.43400731502E+02  0.00000000000E+00 0.  1.
         11    1    3    3    0    0 -0.98290960769E+01  0.31137006993E+02 -0.15773979554E+02  0.36262139559E+02  0.51100000000E-03 0. -1.
        -11    1    3    3    0    0  0.35125290232E+01  0.67207324902E+01 -0.39123572099E+01  0.85330325525E+01  0.51100000000E-03 0.  1.
         12    1    3    3    0    0 -0.29662554800E+01 -0.37308189144E+00 -0.12156938562E+00  0.29920963865E+01  0.00000000000E+00 0. -1.
</event>
<event>
 7    1  0.2642243E-009  0.4778727E+02  0.7816164E-02  0.1312668E+00
        -11   -1    0    0    0    0  0.00000000000E+00  0.00000000000E+00  0.45593999997E+02  0.45594000000E+02  0.51100000000E-03 0.  1.
         11   -1    0    0    0    0 -0.00000000000E+00 -0.00000000000E+00 -0.45593999997E+02  0.45594000000E+02  0.51100000000E-03 0. -1.
    9900012    2    1    2    0    0  0.24965755117E+02 -0.32639347854E+02 -0.13964494119E+02  0.47787273590E+02  0.20000011606E+02 0.  0.
        -12    1    1    2    0    0 -0.24965755117E+02  0.32639347854E+02  0.13964494119E+02  0.43400726410E+02  0.00000000000E+00 0.  1.
         11    1    3    3    0    0  0.47350747648E+01  0.16395753503E+01 -0.33834217058E+00  0.50223118225E+01  0.51100000000E-03 0. -1.
        -11    1    3    3    0    0  0.10402345173E+01 -0.83607341525E+00  0.84667697303E+00  0.15804963665E+01  0.51100000000E-03 0.  1.
         12    1    3    3    0    0  0.19190445835E+02 -0.33442849789E+02 -0.14472828922E+02  0.41184465401E+02  0.00000000000E+00 0. -1.
</event>
<event>
 7    1  0.2642243E-009  0.4778728E+02  0.7816164E-02  0.1312668E+00
        -11   -1    0    0    0    0  0.00000000000E+00  0.00000000000E+00  0.45593999997E+02  0.45594000000E+02  0.51100000000E-03 0. -1.
         11   -1    0    0    0    0 -0.00000000000E+00 -0.00000000000E+00 -0.45593999997E+02  0.45594000000E+02  0.51100000000E-03 0.  1.
    9900012    2    1    2    0    0 -0.23270634150E+02  0.15350076814E+02  0.33263725316E+02  0.47787277727E+02  0.20000030467E+02 0.  0.
        -12    1    1    2    0    0  0.23270634150E+02 -0.15350076814E+02 -0.33263725316E+02  0.43400722273E+02  0.00000000000E+00 0.  1.
         11    1    3    3    0    0 -0.81668268055E+01  0.90677243183E+01  0.15750284535E+02  0.19924661793E+02  0.51100000000E-03 0. -1.
        -11    1    3    3    0    0 -0.23211915816E+01  0.53421372574E+01 -0.39736157982E+00  0.58381724299E+01  0.51100000000E-03 0.  1.
        -12    1    3    3    0    0 -0.12782615763E+02  0.94021523867E+00  0.17910802361E+02  0.22024443504E+02  0.00000000000E+00 0.  1.
</event>
<event>
 7    1  0.2642243E-009  0.4778728E+02  0.7816164E-02  0.1312668E+00
        -11   -1    0    0    0    0  0.00000000000E+00  0.00000000000E+00  0.45593999997E+02  0.45594000000E+02  0.51100000000E-03 0.  1.
         11   -1    0    0    0    0 -0.00000000000E+00 -0.00000000000E+00 -0.45593999997E+02  0.45594000000E+02  0.51100000000E-03 0. -1.
    9900012    2    1    2    0    0  0.20096960732E+01  0.25144727794E+01 -0.43281185623E+02  0.47787280183E+02  0.20000041668E+02 0.  0.
        -12    1    1    2    0    0 -0.20096960732E+01 -0.25144727794E+01  0.43281185623E+02  0.43400719817E+02  0.00000000000E+00 0.  1.
         11    1    3    3    0    0 -0.53302048912E+01  0.21724290776E+01 -0.34630682405E+02  0.35105764433E+02  0.51100000000E-03 0. -1.
        -11    1    3    3    0    0  0.68134637909E+01  0.10822346762E+01 -0.40660556869E+01  0.80079541604E+01  0.51100000000E-03 0.  1.
         12    1    3    3    0    0  0.52643717355E+00 -0.74019097441E+00 -0.45844475309E+01  0.46735615905E+01  0.00000000000E+00 0. -1.
</event>
<event>
 7    1  0.2642243E-009  0.4778727E+02  0.7816164E-02  0.1312668E+00
        -11   -1    0    0    0    0  0.00000000000E+00  0.00000000000E+00  0.45593999997E+02  0.45594000000E+02  0.51100000000E-03 0.  1.
         11   -1    0    0    0    0 -0.00000000000E+00 -0.00000000000E+00 -0.45593999997E+02  0.45594000000E+02  0.51100000000E-03 0. -1.
    9900012    2    1    2    0    0  0.18789525464E+02 -0.38938321355E+02  0.37926491748E+01  0.47787270457E+02  0.19999997323E+02 0.  0.
        -12    1    1    2    0    0 -0.18789525464E+02  0.38938321355E+02 -0.37926491748E+01  0.43400729543E+02  0.00000000000E+00 0.  1.
         11    1    3    3    0    0 -0.32644412667E+01 -0.99309038380E+01  0.66429380022E+00  0.10474765598E+02  0.51100000000E-03 0. -1.
        -11    1    3    3    0    0  0.11558631622E+02 -0.19555067310E+02  0.43750787394E+01  0.23133178266E+02  0.51100000000E-03 0.  1.
         12    1    3    3    0    0  0.10495335109E+02 -0.94523502067E+01 -0.12467233649E+01  0.14179326593E+02  0.00000000000E+00 0. -1.
</event>
<event>
 7    1  0.2642243E-009  0.4778727E+02  0.7816164E-02  0.1312668E+00
        -11   -1    0    0    0    0  0.00000000000E+00  0.00000000000E+00  0.45593999997E+02  0.45594000000E+02  0.51100000000E-03 0.  1.
         11   -1    0    0    0    0 -0.00000000000E+00 -0.00000000000E+00 -0.45593999997E+02  0.45594000000E+02  0.51100000000E-03 0. -1.
    9900012    2    1    2    0    0 -0.12259310042E+02 -0.14960721686E+02 -0.38852405328E+02  0.47787271022E+02  0.19999999896E+02 0.  0.
        -12    1    1    2    0    0  0.12259310042E+02  0.14960721686E+02  0.38852405328E+02  0.43400728978E+02  0.00000000000E+00 0.  1.
         11    1    3    3    0    0 -0.66375412899E+01 -0.26293507678E+01 -0.11760461528E+02  0.13757866675E+02  0.51100000000E-03 0. -1.
        -11    1    3    3    0    0 -0.54302234301E+01 -0.85144636640E+01 -0.43960954230E+01  0.11014039823E+02  0.51100000000E-03 0.  1.
        -12    1    3    3    0    0 -0.19154532151E+00 -0.38169072543E+01 -0.22695848377E+02  0.23015364524E+02  0.00000000000E+00 0.  1.
</event>
<event>
 7    1  0.2642243E-009  0.4778728E+02  0.7816164E-02  0.1312668E+00
        -11   -1    0    0    0    0  0.00000000000E+00  0.00000000000E+00  0.45593999997E+02  0.45594000000E+02  0.51100000000E-03 0. -1.
         11   -1    0    0    0    0 -0.00000000000E+00 -0.00000000000E+00 -0.45593999997E+02  0.45594000000E+02  0.51100000000E-03 0.  1.
    9900012    2    1    2    0    0  0.10173748959E+02 -0.36399467167E+02  0.21335329850E+02  0.47787277912E+02  0.20000031312E+02 0.  0.
        -12    1    1    2    0    0 -0.10173748959E+02  0.36399467167E+02 -0.21335329850E+02  0.43400722088E+02  0.00000000000E+00 0.  1.
         11    1    3    3    0    0 -0.45859507504E+01 -0.16935303875E+02  0.89704492790E+01  0.19705441435E+02  0.51100000000E-03 0. -1.
        -11    1    3    3    0    0  0.12911551230E+02 -0.18119821348E+02  0.12921872667E+02  0.25729571981E+02  0.51100000000E-03 0.  1.
         12    1    3    3    0    0  0.18481484792E+01 -0.13443419439E+01 -0.55699209561E+00  0.23522644958E+01  0.00000000000E+00 0. -1.
</event>
<event>
 7    1  0.2642243E-009  0.4778727E+02  0.7816164E-02  0.1312668E+00
        -11   -1    0    0    0    0  0.00000000000E+00  0.00000000000E+00  0.45593999997E+02  0.45594000000E+02  0.51100000000E-03 0.  1.
         11   -1    0    0    0    0 -0.00000000000E+00 -0.00000000000E+00 -0.45593999997E+02  0.45594000000E+02  0.51100000000E-03 0. -1.
    9900012    2    1    2    0    0  0.28775378159E+02 -0.27810569072E+02  0.16798020606E+02  0.47787266866E+02  0.19999980948E+02 0.  0.
        -12    1    1    2    0    0 -0.28775378159E+02  0.27810569072E+02 -0.16798020606E+02  0.43400733134E+02  0.00000000000E+00 0.  1.
         11    1    3    3    0    0  0.19203950570E+02 -0.29136853528E+02  0.11980020413E+02  0.36895376952E+02  0.51100000000E-03 0. -1.
        -11    1    3    3    0    0  0.50632825785E+01  0.10206591583E+01  0.18530481548E+01  0.54874733086E+01  0.51100000000E-03 0.  1.
         12    1    3    3    0    0  0.45081450104E+01  0.30562529824E+00  0.29649520383E+01  0.54044166056E+01  0.00000000000E+00 0. -1.
</event>
<event>
 7    1  0.2642243E-009  0.4778727E+02  0.7816164E-02  0.1312668E+00
        -11   -1    0    0    0    0  0.00000000000E+00  0.00000000000E+00  0.45593999997E+02  0.45594000000E+02  0.51100000000E-03 0.  1.
         11   -1    0    0    0    0 -0.00000000000E+00 -0.00000000000E+00 -0.45593999997E+02  0.45594000000E+02  0.51100000000E-03 0. -1.
    9900012    2    1    2    0    0  0.17674821971E+01  0.13131556829E+02 -0.41328701883E+02  0.47787269851E+02  0.19999994559E+02 0.  0.
        -12    1    1    2    0    0 -0.17674821971E+01 -0.13131556829E+02  0.41328701883E+02  0.43400730149E+02  0.00000000000E+00 0.  1.
         11    1    3    3    0    0 -0.15641740261E+01  0.13725115249E+02 -0.14892555085E+02  0.20312893103E+02  0.51100000000E-03 0. -1.
        -11    1    3    3    0    0  0.63080890240E+00 -0.15935728111E+01 -0.22662775872E+02  0.22727490065E+02  0.51100000000E-03 0.  1.
        -12    1    3    3    0    0  0.27008473208E+01  0.10000143911E+01 -0.37733709269E+01  0.47468866834E+01  0.00000000000E+00 0.  1.
</event>
<event>
 7    1  0.2642243E-009  0.4778728E+02  0.7816164E-02  0.1312668E+00
        -11   -1    0    0    0    0  0.00000000000E+00  0.00000000000E+00  0.45593999997E+02  0.45594000000E+02  0.51100000000E-03 0.  1.
         11   -1    0    0    0    0 -0.00000000000E+00 -0.00000000000E+00 -0.45593999997E+02  0.45594000000E+02  0.51100000000E-03 0. -1.
    9900012    2    1    2    0    0 -0.13922106718E+02  0.33337712323E+02  0.24049834128E+02  0.47787278347E+02  0.20000033297E+02 0.  0.
        -12    1    1    2    0    0  0.13922106718E+02 -0.33337712323E+02 -0.24049834128E+02  0.43400721653E+02  0.00000000000E+00 0.  1.
         11    1    3    3    0    0 -0.43858323893E+01  0.44940435671E+01  0.27802854924E+01  0.68674552063E+01  0.51100000000E-03 0. -1.
        -11    1    3    3    0    0 -0.73881136380E+01  0.22730291719E+02  0.64657358301E+01  0.24759970211E+02  0.51100000000E-03 0.  1.
        -12    1    3    3    0    0 -0.21481606912E+01  0.61133770365E+01  0.14803812805E+02  0.16159852930E+02  0.00000000000E+00 0.  1.
</event>
<event>
 7    1  0.2642243E-009  0.4778727E+02  0.7816164E-02  0.1312668E+00
        -11   -1    0    0    0    0  0.00000000000E+00  0.00000000000E+00  0.45593999997E+02  0.45594000000E+02  0.51100000000E-03 0.  1.
         11   -1    0    0    0    0 -0.00000000000E+00 -0.00000000000E+00 -0.45593999997E+02  0.45594000000E+02  0.51100000000E-03 0. -1.
    9900012    2    1    2    0    0  0.13490950752E+02  0.39248680309E+02 -0.12694824301E+02  0.47787271640E+02  0.20000002715E+02 0.  0.
        -12    1    1    2    0    0 -0.13490950752E+02 -0.39248680309E+02  0.12694824301E+02  0.43400728360E+02  0.00000000000E+00 0.  1.
         11    1    3    3    0    0  0.11387505065E+02  0.19842149509E+02 -0.37603878704E+01  0.23184621755E+02  0.51100000000E-03 0. -1.
        -11    1    3    3    0    0 -0.20600807180E+01  0.37197365851E+01 -0.70912660366E+01  0.82683993064E+01  0.51100000000E-03 0.  1.
         12    1    3    3    0    0  0.41635264056E+01  0.15686794214E+02 -0.18431703938E+01  0.16334250578E+02  0.00000000000E+00 0. -1.
</event>
<event>
 7    1  0.2642243E-009  0.4778727E+02  0.7816164E-02  0.1312668E+00
        -11   -1    0    0    0    0  0.00000000000E+00  0.00000000000E+00  0.45593999997E+02  0.45594000000E+02  0.51100000000E-03 0.  1.
         11   -1    0    0    0    0 -0.00000000000E+00 -0.00000000000E+00 -0.45593999997E+02  0.45594000000E+02  0.51100000000E-03 0. -1.
    9900012    2    1    2    0    0  0.18047107430E+02  0.38622697483E+02 -0.81371009812E+01  0.47787271206E+02  0.20000000738E+02 0.  0.
        -12    1    1    2    0    0 -0.18047107430E+02 -0.38622697483E+02  0.81371009812E+01  0.43400728794E+02  0.00000000000E+00 0.  1.
         11    1    3    3    0    0  0.13522513148E+02  0.30762935129E+02 -0.51542248406E+00  0.33607769938E+02  0.51100000000E-03 0. -1.
        -11    1    3    3    0    0  0.28744782704E+01  0.92452519128E+01 -0.69657410066E+01  0.11927231711E+02  0.51100000000E-03 0.  1.
         12    1    3    3    0    0  0.16501160114E+01 -0.13854895588E+01 -0.65593749059E+00  0.22522695576E+01  0.00000000000E+00 0. -1.
</event>
<event>
 7    1  0.2642243E-009  0.4778728E+02  0.7816164E-02  0.1312668E+00
        -11   -1    0    0    0    0  0.00000000000E+00  0.00000000000E+00  0.45593999997E+02  0.45594000000E+02  0.51100000000E-03 0.  1.
         11   -1    0    0    0    0 -0.00000000000E+00 -0.00000000000E+00 -0.45593999997E+02  0.45594000000E+02  0.51100000000E-03 0. -1.
    9900012    2    1    2    0    0 -0.10563235100E+02  0.25426637643E+02 -0.33548870937E+02  0.47787279052E+02  0.20000036510E+02 0.  0.
        -12    1    1    2    0    0  0.10563235100E+02 -0.25426637643E+02  0.33548870937E+02  0.43400720948E+02  0.00000000000E+00 0.  1.
         11    1    3    3    0    0  0.50726334278E+01  0.21784827880E+01 -0.66377340445E+01  0.86334761630E+01  0.51100000000E-03 0. -1.
        -11    1    3    3    0    0 -0.88977211372E+01  0.11240972017E+02 -0.10726956351E+02  0.17905208353E+02  0.51100000000E-03 0.  1.
         12    1    3    3    0    0 -0.67381473910E+01  0.12007182838E+02 -0.16184180542E+02  0.21248594536E+02  0.00000000000E+00 0. -1.
</event>
<event>
 7    1  0.2642243E-009  0.4778727E+02  0.7816164E-02  0.1312668E+00
        -11   -1    0    0    0    0  0.00000000000E+00  0.00000000000E+00  0.45593999997E+02  0.45594000000E+02  0.51100000000E-03 0.  1.
         11   -1    0    0    0    0 -0.00000000000E+00 -0.00000000000E+00 -0.45593999997E+02  0.45594000000E+02  0.51100000000E-03 0. -1.
    9900012    2    1    2    0    0 -0.26601336872E+02  0.23355742435E+02 -0.25109786445E+02  0.47787271857E+02  0.20000003704E+02 0.  0.
        -12    1    1    2    0    0  0.26601336872E+02 -0.23355742435E+02  0.25109786445E+02  0.43400728143E+02  0.00000000000E+00 0.  1.
         11    1    3    3    0    0 -0.44291199320E+01  0.33350063706E+01 -0.63241154434E+01  0.84103393075E+01  0.51100000000E-03 0. -1.
        -11    1    3    3    0    0 -0.14584343517E+02  0.22214375502E+02 -0.12983203808E+02  0.29576090616E+02  0.51100000000E-03 0.  1.
        -12    1    3    3    0    0 -0.75878734237E+01 -0.21936394377E+01 -0.58024671933E+01  0.98008419335E+01  0.00000000000E+00 0.  1.
</event>
<event>
 7    1  0.2642243E-009  0.4778727E+02  0.7816164E-02  0.1312668E+00
        -11   -1    0    0    0    0  0.00000000000E+00  0.00000000000E+00  0.45593999997E+02  0.45594000000E+02  0.51100000000E-03 0. -1.
         11   -1    0    0    0    0 -0.00000000000E+00 -0.00000000000E+00 -0.45593999997E+02  0.45594000000E+02  0.51100000000E-03 0.  1.
    9900012    2    1    2    0    0 -0.11267361053E+02  0.41617264683E+02 -0.49671761111E+01  0.47787274392E+02  0.20000015263E+02 0.  0.
        -12    1    1    2    0    0  0.11267361053E+02 -0.41617264683E+02  0.49671761111E+01  0.43400725608E+02  0.00000000000E+00 0.  1.
         11    1    3    3    0    0 -0.90646799594E+01  0.37253522533E+02 -0.45525073968E+01  0.38609826311E+02  0.51100000000E-03 0. -1.
        -11    1    3    3    0    0 -0.26959111396E+01  0.65675223371E+00  0.30190601995E+01  0.41004859612E+01  0.51100000000E-03 0.  1.
        -12    1    3    3    0    0  0.49323004616E+00  0.37069899160E+01 -0.34337289138E+01  0.50769621201E+01  0.00000000000E+00 0.  1.
</event>
<event>
 7    1  0.2642243E-009  0.4778724E+02  0.7816164E-02  0.1312668E+00
        -11   -1    0    0    0    0  0.00000000000E+00  0.00000000000E+00  0.45593999997E+02  0.45594000000E+02  0.51100000000E-03 0.  1.
         11   -1    0    0    0    0 -0.00000000000E+00 -0.00000000000E+00 -0.45593999997E+02  0.45594000000E+02  0.51100000000E-03 0. -1.
    9900012    2    1    2    0    0  0.32640679882E+01  0.40206569533E+02  0.16012606967E+02  0.47787240153E+02  0.19999859154E+02 0.  0.
        -12    1    1    2    0    0 -0.32640679882E+01 -0.40206569533E+02 -0.16012606967E+02  0.43400759847E+02  0.00000000000E+00 0.  1.
         11    1    3    3    0    0 -0.28937424973E+01  0.82934675525E+01  0.10295608570E+02  0.13533473529E+02  0.51100000000E-03 0. -1.
        -11    1    3    3    0    0  0.82320006817E+01  0.19173838466E+02  0.35418731634E+01  0.21164753307E+02  0.51100000000E-03 0.  1.
         12    1    3    3    0    0 -0.20741901962E+01  0.12739263514E+02  0.21751252339E+01  0.13089013317E+02  0.00000000000E+00 0. -1.
</event>
<event>
 7    1  0.2642243E-009  0.4778727E+02  0.7816164E-02  0.1312668E+00
        -11   -1    0    0    0    0  0.00000000000E+00  0.00000000000E+00  0.45593999997E+02  0.45594000000E+02  0.51100000000E-03 0. -1.
         11   -1    0    0    0    0 -0.00000000000E+00 -0.00000000000E+00 -0.45593999997E+02  0.45594000000E+02  0.51100000000E-03 0.  1.
    9900012    2    1    2    0    0 -0.28086306339E+02 -0.10665062872E+02  0.31321546912E+02  0.47787268776E+02  0.19999989656E+02 0.  0.
        -12    1    1    2    0    0  0.28086306339E+02  0.10665062872E+02 -0.31321546912E+02  0.43400731224E+02  0.00000000000E+00 0.  1.
         11    1    3    3    0    0 -0.42603712129E+01 -0.24661566145E+01  0.37411218897E+01  0.61829349482E+01  0.51100000000E-03 0. -1.
        -11    1    3    3    0    0 -0.21180496711E+02 -0.13160594894E+02  0.25339275163E+02  0.35551280778E+02  0.51100000000E-03 0.  1.
        -12    1    3    3    0    0 -0.26454384145E+01  0.49616886365E+01  0.22411498599E+01  0.60530530499E+01  0.00000000000E+00 0.  1.
</event>
<event>
 7    1  0.2642243E-009  0.4778722E+02  0.7816164E-02  0.1312668E+00
        -11   -1    0    0    0    0  0.00000000000E+00  0.00000000000E+00  0.45593999997E+02  0.45594000000E+02  0.51100000000E-03 0.  1.
         11   -1    0    0    0    0 -0.00000000000E+00 -0.00000000000E+00 -0.45593999997E+02  0.45594000000E+02  0.51100000000E-03 0. -1.
    9900012    2    1    2    0    0  0.25545547084E+02  0.22145065648E+02 -0.27214862220E+02  0.47787220813E+02  0.19999770974E+02 0.  0.
        -12    1    1    2    0    0 -0.25545547084E+02 -0.22145065648E+02  0.27214862220E+02  0.43400779187E+02  0.00000000000E+00 0.  1.
         11    1    3    3    0    0  0.71350144258E+01  0.16061736757E+02 -0.20721996960E+02  0.27171473585E+02  0.51100000000E-03 0. -1.
        -11    1    3    3    0    0  0.73383532558E+01  0.11901949614E+01 -0.29996558710E+01  0.80166032806E+01  0.51100000000E-03 0.  1.
         12    1    3    3    0    0  0.11072179402E+02  0.48931339297E+01 -0.34932093891E+01  0.12599143947E+02  0.00000000000E+00 0. -1.
</event>
<event>
 7    1  0.2642243E-009  0.4778727E+02  0.7816164E-02  0.1312668E+00
        -11   -1    0    0    0    0  0.00000000000E+00  0.00000000000E+00  0.45593999997E+02  0.45594000000E+02  0.51100000000E-03 0.  1.
         11   -1    0    0    0    0 -0.00000000000E+00 -0.00000000000E+00 -0.45593999997E+02  0.45594000000E+02  0.51100000000E-03 0. -1.
    9900012    2    1    2    0    0 -0.11136867924E+02  0.36872364502E+02 -0.20000549608E+02  0.47787273327E+02  0.20000010407E+02 0.  0.
        -12    1    1    2    0    0  0.11136867924E+02 -0.36872364502E+02  0.20000549608E+02  0.43400726673E+02  0.00000000000E+00 0.  1.
         11    1    3    3    0    0 -0.72838792478E+01  0.29138920170E+01 -0.69767994567E+00  0.78760663501E+01  0.51100000000E-03 0. -1.
        -11    1    3    3    0    0 -0.43302013027E+01  0.94432819211E+01 -0.50699589773E+01  0.11559874612E+02  0.51100000000E-03 0.  1.
         12    1    3    3    0    0  0.47721262613E+00  0.24515190564E+02 -0.14232910685E+02  0.28351332364E+02  0.00000000000E+00 0. -1.
</event>
<event>
 7    1  0.2642243E-009  0.4778726E+02  0.7816164E-02  0.1312668E+00
        -11   -1    0    0    0    0  0.00000000000E+00  0.00000000000E+00  0.45593999997E+02  0.45594000000E+02  0.51100000000E-03 0.  1.
         11   -1    0    0    0    0 -0.00000000000E+00 -0.00000000000E+00 -0.45593999997E+02  0.45594000000E+02  0.51100000000E-03 0. -1.
    9900012    2    1    2    0    0 -0.40881812718E+02  0.24090573249E+01 -0.14370028691E+02  0.47787263913E+02  0.19999967483E+02 0.  0.
        -12    1    1    2    0    0  0.40881812718E+02 -0.24090573249E+01  0.14370028691E+02  0.43400736087E+02  0.00000000000E+00 0.  1.
         11    1    3    3    0    0 -0.27482282600E+02 -0.64421317540E+01 -0.98056863081E+01  0.29881907615E+02  0.51100000000E-03 0. -1.
        -11    1    3    3    0    0 -0.10397037351E+02  0.91527834603E+01 -0.52456905098E+01  0.14811789221E+02  0.51100000000E-03 0.  1.
        -12    1    3    3    0    0 -0.30024927672E+01 -0.30159438139E+00  0.68134812642E+00  0.30935670766E+01  0.00000000000E+00 0.  1.
</event>
<event>
 7    1  0.2642243E-009  0.4778726E+02  0.7816164E-02  0.1312668E+00
        -11   -1    0    0    0    0  0.00000000000E+00  0.00000000000E+00  0.45593999997E+02  0.45594000000E+02  0.51100000000E-03 0.  1.
         11   -1    0    0    0    0 -0.00000000000E+00 -0.00000000000E+00 -0.45593999997E+02  0.45594000000E+02  0.51100000000E-03 0. -1.
    9900012    2    1    2    0    0  0.42114798429E+02  0.66480524246E+01 -0.81099583222E+01  0.47787259548E+02  0.19999947584E+02 0.  0.
        -12    1    1    2    0    0 -0.42114798429E+02 -0.66480524246E+01  0.81099583222E+01  0.43400740452E+02  0.00000000000E+00 0.  1.
         11    1    3    3    0    0  0.23319846358E+02  0.38765683836E+01 -0.44212879248E+01  0.24049756834E+02  0.51100000000E-03 0. -1.
        -11    1    3    3    0    0  0.46546381351E+01 -0.63291571162E+00  0.49475403797E+01  0.68223452373E+01  0.51100000000E-03 0.  1.
        -12    1    3    3    0    0  0.14140313936E+02  0.34043997526E+01 -0.86362107771E+01  0.16915157477E+02  0.00000000000E+00 0.  1.
</event>
<event>
 7    1  0.2642243E-009  0.4778727E+02  0.7816164E-02  0.1312668E+00
        -11   -1    0    0    0    0  0.00000000000E+00  0.00000000000E+00  0.45593999997E+02  0.45594000000E+02  0.51100000000E-03 0. -1.
         11   -1    0    0    0    0 -0.00000000000E+00 -0.00000000000E+00 -0.45593999997E+02  0.45594000000E+02  0.51100000000E-03 0.  1.
    9900012    2    1    2    0    0  0.54670959408E+01  0.38812067312E+02  0.18637534379E+02  0.47787269652E+02  0.19999993650E+02 0.  0.
        -12    1    1    2    0    0 -0.54670959408E+01 -0.38812067312E+02 -0.18637534379E+02  0.43400730348E+02  0.00000000000E+00 0.  1.
         11    1    3    3    0    0  0.19097044045E+00 -0.55664250340E+00  0.49267609522E+00  0.76749630724E+00  0.51100000000E-03 0. -1.
        -11    1    3    3    0    0  0.11512345363E+02  0.26798887406E+02  0.10226016226E+02  0.30907699204E+02  0.51100000000E-03 0.  1.
        -12    1    3    3    0    0 -0.62362198629E+01  0.12569822409E+02  0.79188420570E+01  0.16112074140E+02  0.00000000000E+00 0.  1.
</event>
<event>
 7    1  0.2642243E-009  0.4778727E+02  0.7816164E-02  0.1312668E+00
        -11   -1    0    0    0    0  0.00000000000E+00  0.00000000000E+00  0.45593999997E+02  0.45594000000E+02  0.51100000000E-03 0. -1.
         11   -1    0    0    0    0 -0.00000000000E+00 -0.00000000000E+00 -0.45593999997E+02  0.45594000000E+02  0.51100000000E-03 0.  1.
    9900012    2    1    2    0    0 -0.42232405684E+02  0.26997858821E+01 -0.96311354329E+01  0.47787266096E+02  0.19999977439E+02 0.  0.
        -12    1    1    2    0    0  0.42232405684E+02 -0.26997858821E+01  0.96311354329E+01  0.43400733904E+02  0.00000000000E+00 0.  1.
         11    1    3    3    0    0 -0.14222953006E+02 -0.74849963170E+01 -0.77866269089E+00  0.16091111767E+02  0.51100000000E-03 0.  1.
        -11    1    3    3    0    0 -0.18713901971E+02  0.78829326906E+01 -0.31464156062E+01  0.20548739285E+02  0.51100000000E-03 0. -1.
        -12    1    3    3    0    0 -0.92955507079E+01  0.23018495086E+01 -0.57060571358E+01  0.11147415044E+02  0.00000000000E+00 0.  1.
</event>
<event>
 7    1  0.2642243E-009  0.4778727E+02  0.7816164E-02  0.1312668E+00
        -11   -1    0    0    0    0  0.00000000000E+00  0.00000000000E+00  0.45593999997E+02  0.45594000000E+02  0.51100000000E-03 0. -1.
         11   -1    0    0    0    0 -0.00000000000E+00 -0.00000000000E+00 -0.45593999997E+02  0.45594000000E+02  0.51100000000E-03 0.  1.
    9900012    2    1    2    0    0  0.13508073858E+02  0.19862942623E+02  0.36147184713E+02  0.47787268305E+02  0.19999987509E+02 0.  0.
        -12    1    1    2    0    0 -0.13508073858E+02 -0.19862942623E+02 -0.36147184713E+02  0.43400731695E+02  0.00000000000E+00 0.  1.
         11    1    3    3    0    0  0.16835148852E+02  0.96386320754E+01  0.21197799795E+02  0.28734512029E+02  0.51100000000E-03 0. -1.
        -11    1    3    3    0    0 -0.18433118247E+01  0.70273662733E+01  0.59594896418E+01  0.93966585696E+01  0.51100000000E-03 0.  1.
         12    1    3    3    0    0 -0.14837631688E+01  0.31969442746E+01  0.89898952761E+01  0.96560977062E+01  0.00000000000E+00 0. -1.
</event>
<event>
 7    1  0.2642243E-009  0.4778727E+02  0.7816164E-02  0.1312668E+00
        -11   -1    0    0    0    0  0.00000000000E+00  0.00000000000E+00  0.45593999997E+02  0.45594000000E+02  0.51100000000E-03 0.  1.
         11   -1    0    0    0    0 -0.00000000000E+00 -0.00000000000E+00 -0.45593999997E+02  0.45594000000E+02  0.51100000000E-03 0. -1.
    9900012    2    1    2    0    0 -0.22735033570E+02  0.23659729923E+02 -0.28407020248E+02  0.47787269927E+02  0.19999994907E+02 0.  0.
        -12    1    1    2    0    0  0.22735033570E+02 -0.23659729923E+02  0.28407020248E+02  0.43400730073E+02  0.00000000000E+00 0.  1.
         11    1    3    3    0    0 -0.54785716280E+01  0.11182268644E+02 -0.25296614447E+01  0.12706575715E+02  0.51100000000E-03 0. -1.
        -11    1    3    3    0    0 -0.32228848844E+01  0.35658495776E+01 -0.13571669056E+02  0.14397655066E+02  0.51100000000E-03 0.  1.
        -12    1    3    3    0    0 -0.14033577058E+02  0.89116117014E+01 -0.12305689747E+02  0.20683039146E+02  0.00000000000E+00 0.  1.
</event>
<event>
 7    1  0.2642243E-009  0.4778727E+02  0.7816164E-02  0.1312668E+00
        -11   -1    0    0    0    0  0.00000000000E+00  0.00000000000E+00  0.45593999997E+02  0.45594000000E+02  0.51100000000E-03 0. -1.
         11   -1    0    0    0    0 -0.00000000000E+00 -0.00000000000E+00 -0.45593999997E+02  0.45594000000E+02  0.51100000000E-03 0.  1.
    9900012    2    1    2    0    0  0.32185176814E+02  0.21705295145E+02  0.19406642716E+02  0.47787271603E+02  0.20000002546E+02 0.  0.
        -12    1    1    2    0    0 -0.32185176814E+02 -0.21705295145E+02 -0.19406642716E+02  0.43400728397E+02  0.00000000000E+00 0.  1.
         11    1    3    3    0    0  0.33333296471E+02  0.15344113766E+02  0.18918179231E+02  0.41284960779E+02  0.51100000000E-03 0. -1.
        -11    1    3    3    0    0 -0.78062544319E+00  0.29728755362E+01  0.14891994589E+00  0.30772621675E+01  0.51100000000E-03 0.  1.
         12    1    3    3    0    0 -0.36749421337E+00  0.33883058425E+01  0.33954353943E+00  0.34250486558E+01  0.00000000000E+00 0. -1.
</event>
<event>
 7    1  0.2642243E-009  0.4778726E+02  0.7816164E-02  0.1312668E+00
        -11   -1    0    0    0    0  0.00000000000E+00  0.00000000000E+00  0.45593999997E+02  0.45594000000E+02  0.51100000000E-03 0.  1.
         11   -1    0    0    0    0 -0.00000000000E+00 -0.00000000000E+00 -0.45593999997E+02  0.45594000000E+02  0.51100000000E-03 0. -1.
    9900012    2    1    2    0    0 -0.29039085683E+02 -0.24192705793E+02 -0.21332348052E+02  0.47787255947E+02  0.19999931165E+02 0.  0.
        -12    1    1    2    0    0  0.29039085683E+02  0.24192705793E+02  0.21332348052E+02  0.43400744053E+02  0.00000000000E+00 0.  1.
         11    1    3    3    0    0 -0.20828872148E+02 -0.59052524740E+01 -0.63079564186E+01  0.22550038497E+02  0.51100000000E-03 0. -1.
        -11    1    3    3    0    0 -0.68315485361E+00 -0.46487544920E+01 -0.33702443683E+01  0.57824014253E+01  0.51100000000E-03 0.  1.
         12    1    3    3    0    0 -0.75270586813E+01 -0.13638698827E+02 -0.11654147265E+02  0.19454816025E+02  0.00000000000E+00 0. -1.
</event>
<event>
 7    1  0.2642243E-009  0.4778727E+02  0.7816164E-02  0.1312668E+00
        -11   -1    0    0    0    0  0.00000000000E+00  0.00000000000E+00  0.45593999997E+02  0.45594000000E+02  0.51100000000E-03 0.  1.
         11   -1    0    0    0    0 -0.00000000000E+00 -0.00000000000E+00 -0.45593999997E+02  0.45594000000E+02  0.51100000000E-03 0. -1.
    9900012    2    1    2    0    0 -0.20267097591E+02 -0.31874300057E+01 -0.38245368090E+02  0.47787272643E+02  0.20000007288E+02 0.  0.
        -12    1    1    2    0    0  0.20267097591E+02  0.31874300057E+01  0.38245368090E+02  0.43400727357E+02  0.00000000000E+00 0.  1.
         11    1    3    3    0    0 -0.13603523505E+02 -0.16828597779E+01 -0.25264992796E+02  0.28743829426E+02  0.51100000000E-03 0. -1.
        -11    1    3    3    0    0 -0.26841983737E+01  0.32175672936E+01  0.49614315956E+00  0.42194571326E+01  0.51100000000E-03 0.  1.
        -12    1    3    3    0    0 -0.39793757129E+01 -0.47221375214E+01 -0.13476518453E+02  0.14823986085E+02  0.00000000000E+00 0.  1.
</event>
<event>
 7    1  0.2642243E-009  0.4778727E+02  0.7816164E-02  0.1312668E+00
        -11   -1    0    0    0    0  0.00000000000E+00  0.00000000000E+00  0.45593999997E+02  0.45594000000E+02  0.51100000000E-03 0. -1.
         11   -1    0    0    0    0 -0.00000000000E+00 -0.00000000000E+00 -0.45593999997E+02  0.45594000000E+02  0.51100000000E-03 0.  1.
    9900012    2    1    2    0    0  0.34469328751E+02  0.18923101014E+02 -0.18368586699E+02  0.47787270123E+02  0.19999995800E+02 0.  0.
        -12    1    1    2    0    0 -0.34469328751E+02 -0.18923101014E+02  0.18368586699E+02  0.43400729877E+02  0.00000000000E+00 0.  1.
         11    1    3    3    0    0  0.20250822078E+02  0.10606367448E+02 -0.18818043359E+01  0.22937567724E+02  0.51100000000E-03 0. -1.
        -11    1    3    3    0    0  0.12688962055E+02  0.29767199488E+01 -0.11812674616E+02  0.17590051209E+02  0.51100000000E-03 0.  1.
        -12    1    3    3    0    0  0.15295446175E+01  0.53400136178E+01 -0.46741077472E+01  0.72596511905E+01  0.00000000000E+00 0.  1.
</event>
<event>
 7    1  0.2642243E-009  0.4778726E+02  0.7816164E-02  0.1312668E+00
        -11   -1    0    0    0    0  0.00000000000E+00  0.00000000000E+00  0.45593999997E+02  0.45594000000E+02  0.51100000000E-03 0.  1.
         11   -1    0    0    0    0 -0.00000000000E+00 -0.00000000000E+00 -0.45593999997E+02  0.45594000000E+02  0.51100000000E-03 0. -1.
    9900012    2    1    2    0    0 -0.16349890204E+02  0.30415646381E+02 -0.26290569919E+02  0.47787256676E+02  0.19999934488E+02 0.  0.
        -12    1    1    2    0    0  0.16349890204E+02 -0.30415646381E+02  0.26290569919E+02  0.43400743324E+02  0.00000000000E+00 0.  1.
         11    1    3    3    0    0 -0.92861402455E+01  0.78671471188E+01 -0.38218343942E+01  0.12756599188E+02  0.51100000000E-03 0. -1.
        -11    1    3    3    0    0 -0.21047003578E+01  0.16229374667E+02 -0.21380141912E+02  0.26924576768E+02  0.51100000000E-03 0.  1.
        -12    1    3    3    0    0 -0.49590496004E+01  0.63191245951E+01 -0.10885936125E+01  0.81060807201E+01  0.00000000000E+00 0.  1.
</event>
<event>
 7    1  0.2642243E-009  0.4778727E+02  0.7816164E-02  0.1312668E+00
        -11   -1    0    0    0    0  0.00000000000E+00  0.00000000000E+00  0.45593999997E+02  0.45594000000E+02  0.51100000000E-03 0. -1.
         11   -1    0    0    0    0 -0.00000000000E+00 -0.00000000000E+00 -0.45593999997E+02  0.45594000000E+02  0.51100000000E-03 0.  1.
    9900012    2    1    2    0    0 -0.19374432365E+02 -0.34023702807E+02 -0.18725445604E+02  0.47787270798E+02  0.19999998877E+02 0.  0.
        -12    1    1    2    0    0  0.19374432365E+02  0.34023702807E+02  0.18725445604E+02  0.43400729202E+02  0.00000000000E+00 0.  1.
         11    1    3    3    0    0 -0.60620430141E+01 -0.24095016357E+02 -0.13634454155E+02  0.28341074770E+02  0.51100000000E-03 0. -1.
        -11    1    3    3    0    0 -0.13472838095E+02 -0.88832180730E+01 -0.67386683348E+01  0.17488241216E+02  0.51100000000E-03 0.  1.
         12    1    3    3    0    0  0.16044874364E+00 -0.10454683772E+01  0.16476768855E+01  0.19579548121E+01  0.00000000000E+00 0. -1.
</event>
<event>
 7    1  0.2642243E-009  0.4778726E+02  0.7816164E-02  0.1312668E+00
        -11   -1    0    0    0    0  0.00000000000E+00  0.00000000000E+00  0.45593999997E+02  0.45594000000E+02  0.51100000000E-03 0.  1.
         11   -1    0    0    0    0 -0.00000000000E+00 -0.00000000000E+00 -0.45593999997E+02  0.45594000000E+02  0.51100000000E-03 0. -1.
    9900012    2    1    2    0    0 -0.58472645246E+01  0.37420155342E+02 -0.21193526238E+02  0.47787261727E+02  0.19999957517E+02 0.  0.
        -12    1    1    2    0    0  0.58472645246E+01 -0.37420155342E+02  0.21193526238E+02  0.43400738273E+02  0.00000000000E+00 0.  1.
         11    1    3    3    0    0 -0.54956870828E+01  0.17331414068E+02 -0.90339000178E+01  0.20302508217E+02  0.51100000000E-03 0. -1.
        -11    1    3    3    0    0  0.66282482369E+01  0.13513778173E+02 -0.77661613396E+01  0.16937211619E+02  0.51100000000E-03 0.  1.
        -12    1    3    3    0    0 -0.69798256788E+01  0.65749631007E+01 -0.43934648808E+01  0.10547541891E+02  0.00000000000E+00 0.  1.
</event>
<event>
 7    1  0.2642243E-009  0.4778727E+02  0.7816164E-02  0.1312668E+00
        -11   -1    0    0    0    0  0.00000000000E+00  0.00000000000E+00  0.45593999997E+02  0.45594000000E+02  0.51100000000E-03 0. -1.
         11   -1    0    0    0    0 -0.00000000000E+00 -0.00000000000E+00 -0.45593999997E+02  0.45594000000E+02  0.51100000000E-03 0.  1.
    9900012    2    1    2    0    0 -0.17667556637E+02  0.23623371005E+02  0.31834214823E+02  0.47787269032E+02  0.19999990824E+02 0.  0.
        -12    1    1    2    0    0  0.17667556637E+02 -0.23623371005E+02 -0.31834214823E+02  0.43400730968E+02  0.00000000000E+00 0.  1.
         11    1    3    3    0    0 -0.82980597384E+01  0.17241678118E+02  0.28098036297E+02  0.33994601098E+02  0.51100000000E-03 0. -1.
        -11    1    3    3    0    0 -0.35347263060E+01  0.39309088348E+01 -0.15907730881E+01  0.55205881575E+01  0.51100000000E-03 0.  1.
         12    1    3    3    0    0 -0.58347705926E+01  0.24507840523E+01  0.53269516134E+01  0.82720797767E+01  0.00000000000E+00 0. -1.
</event>
<event>
 7    1  0.2642243E-009  0.4778728E+02  0.7816164E-02  0.1312668E+00
        -11   -1    0    0    0    0  0.00000000000E+00  0.00000000000E+00  0.45593999997E+02  0.45594000000E+02  0.51100000000E-03 0.  1.
         11   -1    0    0    0    0 -0.00000000000E+00 -0.00000000000E+00 -0.45593999997E+02  0.45594000000E+02  0.51100000000E-03 0. -1.
    9900012    2    1    2    0    0 -0.10307361518E+02 -0.93908071079E+01 -0.41099799391E+02  0.47787280310E+02  0.20000042248E+02 0.  0.
        -12    1    1    2    0    0  0.10307361518E+02  0.93908071079E+01  0.41099799391E+02  0.43400719690E+02  0.00000000000E+00 0.  1.
         11    1    3    3    0    0  0.12468075654E+01 -0.12155799903E+01 -0.19579868235E+02  0.19657146389E+02  0.51100000000E-03 0. -1.
        -11    1    3    3    0    0 -0.10141712426E+01  0.27441892615E+01 -0.38986791213E+01  0.48743017104E+01  0.51100000000E-03 0.  1.
         12    1    3    3    0    0 -0.10539997841E+02 -0.10919416379E+02 -0.17621252035E+02  0.23255832211E+02  0.00000000000E+00 0. -1.
</event>
<event>
 7    1  0.2642243E-009  0.4778727E+02  0.7816164E-02  0.1312668E+00
        -11   -1    0    0    0    0  0.00000000000E+00  0.00000000000E+00  0.45593999997E+02  0.45594000000E+02  0.51100000000E-03 0.  1.
         11   -1    0    0    0    0 -0.00000000000E+00 -0.00000000000E+00 -0.45593999997E+02  0.45594000000E+02  0.51100000000E-03 0. -1.
    9900012    2    1    2    0    0  0.28589706771E+02 -0.18308210054E+01 -0.32602148106E+02  0.47787270744E+02  0.19999998628E+02 0.  0.
        -12    1    1    2    0    0 -0.28589706771E+02  0.18308210054E+01  0.32602148106E+02  0.43400729256E+02  0.00000000000E+00 0.  1.
         11    1    3    3    0    0  0.21617612325E+02  0.17581335583E+00 -0.30137472670E+02  0.37089342569E+02  0.51100000000E-03 0. -1.
        -11    1    3    3    0    0  0.26766882015E+01  0.15344311468E+01  0.19005374710E+01  0.36236972296E+01  0.51100000000E-03 0.  1.
        -12    1    3    3    0    0  0.42954062447E+01 -0.35410655081E+01 -0.43652129074E+01  0.70742309453E+01  0.00000000000E+00 0.  1.
</event>
<event>
 7    1  0.2642243E-009  0.4778727E+02  0.7816164E-02  0.1312668E+00
        -11   -1    0    0    0    0  0.00000000000E+00  0.00000000000E+00  0.45593999997E+02  0.45594000000E+02  0.51100000000E-03 0. -1.
         11   -1    0    0    0    0 -0.00000000000E+00 -0.00000000000E+00 -0.45593999997E+02  0.45594000000E+02  0.51100000000E-03 0.  1.
    9900012    2    1    2    0    0 -0.90452683881E+01  0.35918958533E+02  0.22619349228E+02  0.47787269340E+02  0.19999992229E+02 0.  0.
        -12    1    1    2    0    0  0.90452683881E+01 -0.35918958533E+02 -0.22619349228E+02  0.43400730660E+02  0.00000000000E+00 0.  1.
         11    1    3    3    0    0  0.37755112530E+01  0.72577219157E+01  0.17279258070E+01  0.83615034822E+01  0.51100000000E-03 0. -1.
        -11    1    3    3    0    0  0.20293540034E+01  0.21502242057E+01  0.10636443444E+01  0.31421459798E+01  0.51100000000E-03 0.  1.
         12    1    3    3    0    0 -0.14850133644E+02  0.26511012412E+02  0.19827779076E+02  0.36283619878E+02  0.00000000000E+00 0. -1.
</event>
<event>
 7    1  0.2642243E-009  0.4778727E+02  0.7816164E-02  0.1312668E+00
        -11   -1    0    0    0    0  0.00000000000E+00  0.00000000000E+00  0.45593999997E+02  0.45594000000E+02  0.51100000000E-03 0.  1.
         11   -1    0    0    0    0 -0.00000000000E+00 -0.00000000000E+00 -0.45593999997E+02  0.45594000000E+02  0.51100000000E-03 0. -1.
    9900012    2    1    2    0    0 -0.74447538063E+01 -0.39718649733E+02 -0.15831227290E+02  0.47787271281E+02  0.20000001077E+02 0.  0.
        -12    1    1    2    0    0  0.74447538063E+01  0.39718649733E+02  0.15831227290E+02  0.43400728719E+02  0.00000000000E+00 0.  1.
         11    1    3    3    0    0  0.43499020058E+01 -0.27131248160E+01 -0.23821388312E+01  0.56530769851E+01  0.51100000000E-03 0. -1.
        -11    1    3    3    0    0  0.37678896501E+00 -0.11287648867E+01 -0.23867822445E+01  0.26669851588E+01  0.51100000000E-03 0.  1.
         12    1    3    3    0    0 -0.12171444777E+02 -0.35876760031E+02 -0.11062306214E+02  0.39467209137E+02  0.00000000000E+00 0. -1.
</event>
<event>
 7    1  0.2642243E-009  0.4778727E+02  0.7816164E-02  0.1312668E+00
        -11   -1    0    0    0    0  0.00000000000E+00  0.00000000000E+00  0.45593999997E+02  0.45594000000E+02  0.51100000000E-03 0.  1.
         11   -1    0    0    0    0 -0.00000000000E+00 -0.00000000000E+00 -0.45593999997E+02  0.45594000000E+02  0.51100000000E-03 0. -1.
    9900012    2    1    2    0    0 -0.18751828799E+02  0.21825184524E+02 -0.32490822657E+02  0.47787270516E+02  0.19999997589E+02 0.  0.
        -12    1    1    2    0    0  0.18751828799E+02 -0.21825184524E+02  0.32490822657E+02  0.43400729484E+02  0.00000000000E+00 0.  1.
         11    1    3    3    0    0  0.16954545052E+01 -0.13781360087E+01 -0.14147701640E+01  0.26029597991E+01  0.51100000000E-03 0.  1.
        -11    1    3    3    0    0 -0.20008614153E+02  0.22874936512E+02 -0.31986351081E+02  0.44121808853E+02  0.51100000000E-03 0. -1.
         12    1    3    3    0    0 -0.43866915198E+00  0.32838402089E+00  0.91029858815E+00  0.10625018634E+01  0.00000000000E+00 0. -1.
</event>
<event>
 7    1  0.2642243E-009  0.4778726E+02  0.7816164E-02  0.1312668E+00
        -11   -1    0    0    0    0  0.00000000000E+00  0.00000000000E+00  0.45593999997E+02  0.45594000000E+02  0.51100000000E-03 0. -1.
         11   -1    0    0    0    0 -0.00000000000E+00 -0.00000000000E+00 -0.45593999997E+02  0.45594000000E+02  0.51100000000E-03 0.  1.
    9900012    2    1    2    0    0  0.37041176718E+02 -0.13578655980E+02  0.18088553985E+02  0.47787257424E+02  0.19999937898E+02 0.  0.
        -12    1    1    2    0    0 -0.37041176718E+02  0.13578655980E+02 -0.18088553985E+02  0.43400742576E+02  0.00000000000E+00 0.  1.
         11    1    3    3    0    0  0.22465768325E+02 -0.75887694180E+01  0.15428395728E+02  0.28290202593E+02  0.51100000000E-03 0. -1.
        -11    1    3    3    0    0  0.21768964815E+01 -0.35945341534E+01 -0.34794591743E+01  0.54558400341E+01  0.51100000000E-03 0.  1.
        -12    1    3    3    0    0  0.12398511911E+02 -0.23953524090E+01  0.61396174307E+01  0.14041214797E+02  0.00000000000E+00 0.  1.
</event>
<event>
 7    1  0.2642243E-009  0.4778727E+02  0.7816164E-02  0.1312668E+00
        -11   -1    0    0    0    0  0.00000000000E+00  0.00000000000E+00  0.45593999997E+02  0.45594000000E+02  0.51100000000E-03 0.  1.
         11   -1    0    0    0    0 -0.00000000000E+00 -0.00000000000E+00 -0.45593999997E+02  0.45594000000E+02  0.51100000000E-03 0. -1.
    9900012    2    1    2    0    0 -0.18101499940E+02  0.39362938358E+02 -0.25530789688E+01  0.47787269264E+02  0.19999991882E+02 0.  0.
        -12    1    1    2    0    0  0.18101499940E+02 -0.39362938358E+02  0.25530789688E+01  0.43400730736E+02  0.00000000000E+00 0.  1.
         11    1    3    3    0    0 -0.11174505322E+02  0.33182859354E+02 -0.54989536663E+01  0.35443055960E+02  0.51100000000E-03 0. -1.
        -11    1    3    3    0    0 -0.83609418067E+01  0.38528571580E+01  0.18003107588E+01  0.93803504872E+01  0.51100000000E-03 0.  1.
         12    1    3    3    0    0  0.14339471887E+01  0.23272218459E+01  0.11455639388E+01  0.29638628170E+01  0.00000000000E+00 0. -1.
</event>
<event>
 7    1  0.2642243E-009  0.4778727E+02  0.7816164E-02  0.1312668E+00
        -11   -1    0    0    0    0  0.00000000000E+00  0.00000000000E+00  0.45593999997E+02  0.45594000000E+02  0.51100000000E-03 0.  1.
         11   -1    0    0    0    0 -0.00000000000E+00 -0.00000000000E+00 -0.45593999997E+02  0.45594000000E+02  0.51100000000E-03 0. -1.
    9900012    2    1    2    0    0 -0.10138535001E+02 -0.16179373169E+02 -0.38975136913E+02  0.47787270680E+02  0.19999998339E+02 0.  0.
        -12    1    1    2    0    0  0.10138535001E+02  0.16179373169E+02  0.38975136913E+02  0.43400729320E+02  0.00000000000E+00 0.  1.
         11    1    3    3    0    0 -0.56723839915E+01 -0.25990750162E+01 -0.73808089348E+01  0.96647541035E+01  0.51100000000E-03 0. -1.
        -11    1    3    3    0    0 -0.64243385975E+01 -0.87909233411E+01 -0.68965523665E+01  0.12888556723E+02  0.51100000000E-03 0.  1.
        -12    1    3    3    0    0  0.19581875878E+01 -0.47893748115E+01 -0.24697775612E+02  0.25233959853E+02  0.00000000000E+00 0.  1.
</event>
<event>
 7    1  0.2642243E-009  0.4778728E+02  0.7816164E-02  0.1312668E+00
        -11   -1    0    0    0    0  0.00000000000E+00  0.00000000000E+00  0.45593999997E+02  0.45594000000E+02  0.51100000000E-03 0.  1.
         11   -1    0    0    0    0 -0.00000000000E+00 -0.00000000000E+00 -0.45593999997E+02  0.45594000000E+02  0.51100000000E-03 0. -1.
    9900012    2    1    2    0    0 -0.13706777325E+02 -0.40132977392E+02 -0.92244756409E+01  0.47787279156E+02  0.20000036982E+02 0.  0.
        -12    1    1    2    0    0  0.13706777325E+02  0.40132977392E+02  0.92244756409E+01  0.43400720844E+02  0.00000000000E+00 0.  1.
         11    1    3    3    0    0 -0.13935797802E+02 -0.18948498807E+02 -0.14813591959E-01  0.23521315591E+02  0.51100000000E-03 0. -1.
        -11    1    3    3    0    0 -0.28644383947E+01 -0.50848608503E+01 -0.39561252855E+01  0.70506556234E+01  0.51100000000E-03 0.  1.
         12    1    3    3    0    0  0.30934588717E+01 -0.16099617734E+02 -0.52535367635E+01  0.17215307941E+02  0.00000000000E+00 0. -1.
</event>
<event>
 7    1  0.2642243E-009  0.4778726E+02  0.7816164E-02  0.1312668E+00
        -11   -1    0    0    0    0  0.00000000000E+00  0.00000000000E+00  0.45593999997E+02  0.45594000000E+02  0.51100000000E-03 0.  1.
         11   -1    0    0    0    0 -0.00000000000E+00 -0.00000000000E+00 -0.45593999997E+02  0.45594000000E+02  0.51100000000E-03 0. -1.
    9900012    2    1    2    0    0  0.34734289047E+02  0.16178232932E+01 -0.25971829489E+02  0.47787261356E+02  0.19999955828E+02 0.  0.
        -12    1    1    2    0    0 -0.34734289047E+02 -0.16178232932E+01  0.25971829489E+02  0.43400738644E+02  0.00000000000E+00 0.  1.
         11    1    3    3    0    0  0.54171685364E+01 -0.30098134813E+01 -0.23107931880E+01  0.66139592955E+01  0.51100000000E-03 0. -1.
        -11    1    3    3    0    0 -0.76700739480E+00  0.34758507550E+01 -0.30531938777E+01  0.46895449599E+01  0.51100000000E-03 0.  1.
        -12    1    3    3    0    0  0.30084127905E+02  0.11517860195E+01 -0.20607842423E+02  0.36483757101E+02  0.00000000000E+00 0.  1.
</event>
<event>
 7    1  0.2642243E-009  0.4778727E+02  0.7816164E-02  0.1312668E+00
        -11   -1    0    0    0    0  0.00000000000E+00  0.00000000000E+00  0.45593999997E+02  0.45594000000E+02  0.51100000000E-03 0. -1.
         11   -1    0    0    0    0 -0.00000000000E+00 -0.00000000000E+00 -0.45593999997E+02  0.45594000000E+02  0.51100000000E-03 0.  1.
    9900012    2    1    2    0    0  0.56303529368E+01  0.23055115888E+02  0.36337086604E+02  0.47787272982E+02  0.20000008834E+02 0.  0.
        -12    1    1    2    0    0 -0.56303529368E+01 -0.23055115888E+02 -0.36337086604E+02  0.43400727018E+02  0.00000000000E+00 0.  1.
         11    1    3    3    0    0  0.40720423095E+01  0.19605613119E+02  0.12948668812E+02  0.23845956023E+02  0.51100000000E-03 0. -1.
        -11    1    3    3    0    0 -0.61759966677E+00 -0.90233940854E-01  0.10643067341E+01  0.12338235684E+01  0.51100000000E-03 0.  1.
         12    1    3    3    0    0  0.21759102940E+01  0.35397367095E+01  0.22324111058E+02  0.22707493391E+02  0.00000000000E+00 0. -1.
</event>
<event>
 7    1  0.2642243E-009  0.4778727E+02  0.7816164E-02  0.1312668E+00
        -11   -1    0    0    0    0  0.00000000000E+00  0.00000000000E+00  0.45593999997E+02  0.45594000000E+02  0.51100000000E-03 0. -1.
         11   -1    0    0    0    0 -0.00000000000E+00 -0.00000000000E+00 -0.45593999997E+02  0.45594000000E+02  0.51100000000E-03 0.  1.
    9900012    2    1    2    0    0  0.25288432985E+02  0.39483102986E+01  0.35050382954E+02  0.47787270257E+02  0.19999996408E+02 0.  0.
        -12    1    1    2    0    0 -0.25288432985E+02 -0.39483102986E+01 -0.35050382954E+02  0.43400729743E+02  0.00000000000E+00 0.  1.
         11    1    3    3    0    0  0.18786213649E+02  0.75642327862E+01  0.15147226374E+02  0.25289877580E+02  0.51100000000E-03 0. -1.
        -11    1    3    3    0    0 -0.25278298783E+00 -0.36340610307E+01  0.84287749758E+01  0.91822952832E+01  0.51100000000E-03 0.  1.
         12    1    3    3    0    0  0.67550023231E+01  0.18138543151E-01  0.11474381604E+02  0.13315097393E+02  0.00000000000E+00 0. -1.
</event>
<event>
 7    1  0.2642243E-009  0.4778729E+02  0.7816164E-02  0.1312668E+00
        -11   -1    0    0    0    0  0.00000000000E+00  0.00000000000E+00  0.45593999997E+02  0.45594000000E+02  0.51100000000E-03 0.  1.
         11   -1    0    0    0    0 -0.00000000000E+00 -0.00000000000E+00 -0.45593999997E+02  0.45594000000E+02  0.51100000000E-03 0. -1.
    9900012    2    1    2    0    0  0.10049524978E+02 -0.12588542764E+02 -0.40300836911E+02  0.47787287830E+02  0.20000076530E+02 0.  0.
        -12    1    1    2    0    0 -0.10049524978E+02  0.12588542764E+02  0.40300836911E+02  0.43400712170E+02  0.00000000000E+00 0.  1.
         11    1    3    3    0    0  0.15584924325E+01 -0.78529746427E+00  0.14646425684E+01  0.22783258950E+01  0.51100000000E-03 0.  1.
        -11    1    3    3    0    0  0.38703156137E+01 -0.23481914013E+01 -0.27000654886E+02  0.27377521990E+02  0.51100000000E-03 0. -1.
        -12    1    3    3    0    0  0.46207169313E+01 -0.94550538983E+01 -0.14764824593E+02  0.18131439944E+02  0.00000000000E+00 0.  1.
</event>
<event>
 7    1  0.2642243E-009  0.4778727E+02  0.7816164E-02  0.1312668E+00
        -11   -1    0    0    0    0  0.00000000000E+00  0.00000000000E+00  0.45593999997E+02  0.45594000000E+02  0.51100000000E-03 0. -1.
         11   -1    0    0    0    0 -0.00000000000E+00 -0.00000000000E+00 -0.45593999997E+02  0.45594000000E+02  0.51100000000E-03 0.  1.
    9900012    2    1    2    0    0  0.31240212740E+02  0.60534959818E+01  0.29513172428E+02  0.47787273596E+02  0.20000011632E+02 0.  0.
        -12    1    1    2    0    0 -0.31240212740E+02 -0.60534959818E+01 -0.29513172428E+02  0.43400726404E+02  0.00000000000E+00 0.  1.
         11    1    3    3    0    0  0.29889229319E+01  0.26994922169E+01  0.20758075665E+01  0.45309928091E+01  0.51100000000E-03 0. -1.
        -11    1    3    3    0    0  0.15636481329E+02  0.91449697311E+01  0.21621167291E+02  0.28206469028E+02  0.51100000000E-03 0.  1.
        -12    1    3    3    0    0  0.12614808479E+02 -0.57909659663E+01  0.58161975713E+01  0.15049811759E+02  0.00000000000E+00 0.  1.
</event>
<event>
 7    1  0.2642243E-009  0.4778729E+02  0.7816164E-02  0.1312668E+00
        -11   -1    0    0    0    0  0.00000000000E+00  0.00000000000E+00  0.45593999997E+02  0.45594000000E+02  0.51100000000E-03 0.  1.
         11   -1    0    0    0    0 -0.00000000000E+00 -0.00000000000E+00 -0.45593999997E+02  0.45594000000E+02  0.51100000000E-03 0. -1.
    9900012    2    1    2    0    0 -0.55033811518E+01 -0.42916886031E+02  0.33875742882E+01  0.47787286063E+02  0.20000068475E+02 0.  0.
        -12    1    1    2    0    0  0.55033811518E+01  0.42916886031E+02 -0.33875742882E+01  0.43400713937E+02  0.00000000000E+00 0.  1.
         11    1    3    3    0    0  0.31862525867E+01 -0.25217796322E+02  0.18409050745E+01  0.25484865874E+02  0.51100000000E-03 0. -1.
        -11    1    3    3    0    0 -0.88133452729E+01 -0.86784442871E+01  0.39177111852E+01  0.12974548599E+02  0.51100000000E-03 0.  1.
         12    1    3    3    0    0  0.12371153445E+00 -0.90206454218E+01 -0.23710419716E+01  0.93278715901E+01  0.00000000000E+00 0. -1.
</event>
<event>
 7    1  0.2642243E-009  0.4778726E+02  0.7816164E-02  0.1312668E+00
        -11   -1    0    0    0    0  0.00000000000E+00  0.00000000000E+00  0.45593999997E+02  0.45594000000E+02  0.51100000000E-03 0.  1.
         11   -1    0    0    0    0 -0.00000000000E+00 -0.00000000000E+00 -0.45593999997E+02  0.45594000000E+02  0.51100000000E-03 0. -1.
    9900012    2    1    2    0    0 -0.33740522919E+02 -0.15255560787E+02 -0.22637778601E+02  0.47787262198E+02  0.19999959665E+02 0.  0.
        -12    1    1    2    0    0  0.33740522919E+02  0.15255560787E+02  0.22637778601E+02  0.43400737802E+02  0.00000000000E+00 0.  1.
         11    1    3    3    0    0 -0.32259575576E+02 -0.16104543003E+02 -0.24384882920E+02  0.43527681272E+02  0.51100000000E-03 0. -1.
        -11    1    3    3    0    0 -0.13707162753E+01  0.23706094942E-03  0.26697628272E+01  0.30010826344E+01  0.51100000000E-03 0.  1.
         12    1    3    3    0    0 -0.11023106766E+00  0.84874515452E+00 -0.92265850844E+00  0.12584982911E+01  0.00000000000E+00 0. -1.
</event>
<event>
 7    1  0.2642243E-009  0.4778728E+02  0.7816164E-02  0.1312668E+00
        -11   -1    0    0    0    0  0.00000000000E+00  0.00000000000E+00  0.45593999997E+02  0.45594000000E+02  0.51100000000E-03 0.  1.
         11   -1    0    0    0    0 -0.00000000000E+00 -0.00000000000E+00 -0.45593999997E+02  0.45594000000E+02  0.51100000000E-03 0. -1.
    9900012    2    1    2    0    0  0.10072138488E+02 -0.32041133540E+02 -0.27487097549E+02  0.47787277149E+02  0.20000027835E+02 0.  0.
        -12    1    1    2    0    0 -0.10072138488E+02  0.32041133540E+02  0.27487097549E+02  0.43400722851E+02  0.00000000000E+00 0.  1.
         11    1    3    3    0    0  0.15219662280E+01 -0.26364345217E+01 -0.59499042991E+01  0.66834519237E+01  0.51100000000E-03 0.  1.
        -11    1    3    3    0    0  0.95170857655E+01 -0.30202404282E+02 -0.23029402643E+02  0.39154993707E+02  0.51100000000E-03 0. -1.
        -12    1    3    3    0    0 -0.96691350594E+00  0.79770526306E+00  0.14922093929E+01  0.19488315183E+01  0.00000000000E+00 0.  1.
</event>
<event>
 7    1  0.2642243E-009  0.4778726E+02  0.7816164E-02  0.1312668E+00
        -11   -1    0    0    0    0  0.00000000000E+00  0.00000000000E+00  0.45593999997E+02  0.45594000000E+02  0.51100000000E-03 0.  1.
         11   -1    0    0    0    0 -0.00000000000E+00 -0.00000000000E+00 -0.45593999997E+02  0.45594000000E+02  0.51100000000E-03 0. -1.
    9900012    2    1    2    0    0 -0.88372036789E+01  0.40254583938E+02 -0.13605015111E+02  0.47787261146E+02  0.19999954868E+02 0.  0.
        -12    1    1    2    0    0  0.88372036789E+01 -0.40254583938E+02  0.13605015111E+02  0.43400738854E+02  0.00000000000E+00 0.  1.
         11    1    3    3    0    0 -0.68355928890E+01  0.25268923070E+02 -0.13117209314E+02  0.29279770896E+02  0.51100000000E-03 0. -1.
        -11    1    3    3    0    0  0.40955136130E+01  0.87686410554E+01  0.77349367918E+00  0.97087893399E+01  0.51100000000E-03 0.  1.
        -12    1    3    3    0    0 -0.60971244030E+01  0.62170198131E+01 -0.12612994763E+01  0.87987009104E+01  0.00000000000E+00 0.  1.
</event>
<event>
 7    1  0.2642243E-009  0.4778727E+02  0.7816164E-02  0.1312668E+00
        -11   -1    0    0    0    0  0.00000000000E+00  0.00000000000E+00  0.45593999997E+02  0.45594000000E+02  0.51100000000E-03 0.  1.
         11   -1    0    0    0    0 -0.00000000000E+00 -0.00000000000E+00 -0.45593999997E+02  0.45594000000E+02  0.51100000000E-03 0. -1.
    9900012    2    1    2    0    0  0.26617135995E+02  0.19059610848E+02 -0.28493549472E+02  0.47787273557E+02  0.20000011455E+02 0.  0.
        -12    1    1    2    0    0 -0.26617135995E+02 -0.19059610848E+02  0.28493549472E+02  0.43400726443E+02  0.00000000000E+00 0.  1.
         11    1    3    3    0    0  0.25498850268E+02  0.13506073435E+02 -0.16143289260E+02  0.33063744087E+02  0.51100000000E-03 0. -1.
        -11    1    3    3    0    0  0.40525555922E+00  0.26202777669E+01 -0.11173194122E+02  0.11483481824E+02  0.51100000000E-03 0.  1.
         12    1    3    3    0    0  0.71303016777E+00  0.29332596461E+01 -0.11770660901E+01  0.32400476465E+01  0.00000000000E+00 0. -1.
</event>
<event>
 7    1  0.2642243E-009  0.4778727E+02  0.7816164E-02  0.1312668E+00
        -11   -1    0    0    0    0  0.00000000000E+00  0.00000000000E+00  0.45593999997E+02  0.45594000000E+02  0.51100000000E-03 0.  1.
         11   -1    0    0    0    0 -0.00000000000E+00 -0.00000000000E+00 -0.45593999997E+02  0.45594000000E+02  0.51100000000E-03 0. -1.
    9900012    2    1    2    0    0 -0.15155129112E+02 -0.25963197762E+02 -0.31302676356E+02  0.47787272777E+02  0.20000007898E+02 0.  0.
        -12    1    1    2    0    0  0.15155129112E+02  0.25963197762E+02  0.31302676356E+02  0.43400727223E+02  0.00000000000E+00 0.  1.
         11    1    3    3    0    0 -0.27743616906E+01 -0.12527865177E+02 -0.62891153227E+01  0.14289767685E+02  0.51100000000E-03 0. -1.
        -11    1    3    3    0    0 -0.12203485581E+02 -0.51788872516E+01 -0.10976435432E+02  0.17211277366E+02  0.51100000000E-03 0.  1.
        -12    1    3    3    0    0 -0.17728184017E+00 -0.82564453335E+01 -0.14037125601E+02  0.16286227726E+02  0.00000000000E+00 0.  1.
</event>
<event>
 7    1  0.2642243E-009  0.4778727E+02  0.7816164E-02  0.1312668E+00
        -11   -1    0    0    0    0  0.00000000000E+00  0.00000000000E+00  0.45593999997E+02  0.45594000000E+02  0.51100000000E-03 0. -1.
         11   -1    0    0    0    0 -0.00000000000E+00 -0.00000000000E+00 -0.45593999997E+02  0.45594000000E+02  0.51100000000E-03 0.  1.
    9900012    2    1    2    0    0  0.72002013678E+01  0.10748842683E+02  0.41427558339E+02  0.47787272948E+02  0.20000008678E+02 0.  0.
        -12    1    1    2    0    0 -0.72002013678E+01 -0.10748842683E+02 -0.41427558339E+02  0.43400727052E+02  0.00000000000E+00 0.  1.
         11    1    3    3    0    0 -0.76053189909E+00  0.47562230332E+01  0.14763972582E+02  0.15529808530E+02  0.51100000000E-03 0. -1.
        -11    1    3    3    0    0  0.74913992884E+01  0.23913135270E+01  0.31600334534E+01  0.84749781929E+01  0.51100000000E-03 0.  1.
        -12    1    3    3    0    0  0.46933397848E+00  0.36013061233E+01  0.23503552303E+02  0.23782486225E+02  0.00000000000E+00 0.  1.
</event>
<event>
 7    1  0.2642243E-009  0.4778727E+02  0.7816164E-02  0.1312668E+00
        -11   -1    0    0    0    0  0.00000000000E+00  0.00000000000E+00  0.45593999997E+02  0.45594000000E+02  0.51100000000E-03 0. -1.
         11   -1    0    0    0    0 -0.00000000000E+00 -0.00000000000E+00 -0.45593999997E+02  0.45594000000E+02  0.51100000000E-03 0.  1.
    9900012    2    1    2    0    0  0.21631692509E+02 -0.37413852534E+02 -0.39870768437E+01  0.47787271159E+02  0.20000000521E+02 0.  0.
        -12    1    1    2    0    0 -0.21631692509E+02  0.37413852534E+02  0.39870768437E+01  0.43400728841E+02  0.00000000000E+00 0.  1.
         11    1    3    3    0    0  0.18002122390E+02 -0.35396779926E+02 -0.36497052924E+01  0.39878926624E+02  0.51100000000E-03 0. -1.
        -11    1    3    3    0    0  0.24128783525E+00  0.21333193636E+01  0.10264400280E+01  0.23796744985E+01  0.51100000000E-03 0.  1.
        -12    1    3    3    0    0  0.33882822836E+01 -0.41503919713E+01 -0.13638115794E+01  0.55286700365E+01  0.00000000000E+00 0.  1.
</event>
<event>
 7    1  0.2642243E-009  0.4778727E+02  0.7816164E-02  0.1312668E+00
        -11   -1    0    0    0    0  0.00000000000E+00  0.00000000000E+00  0.45593999997E+02  0.45594000000E+02  0.51100000000E-03 0.  1.
         11   -1    0    0    0    0 -0.00000000000E+00 -0.00000000000E+00 -0.45593999997E+02  0.45594000000E+02  0.51100000000E-03 0. -1.
    9900012    2    1    2    0    0  0.86415317617E+00 -0.12042891853E+02 -0.41687472479E+02  0.47787269977E+02  0.19999995132E+02 0.  0.
        -12    1    1    2    0    0 -0.86415317617E+00  0.12042891853E+02  0.41687472479E+02  0.43400730023E+02  0.00000000000E+00 0.  1.
         11    1    3    3    0    0  0.79812606402E+01 -0.85712096434E+01 -0.16942437370E+02  0.20596415718E+02  0.51100000000E-03 0. -1.
        -11    1    3    3    0    0 -0.78651186775E+01 -0.40720129590E+01 -0.15156823805E+02  0.17554791069E+02  0.51100000000E-03 0.  1.
        -12    1    3    3    0    0  0.74801121342E+00  0.60033074927E+00 -0.95882113042E+01  0.96360631898E+01  0.00000000000E+00 0.  1.
</event>
<event>
 7    1  0.2642243E-009  0.4778726E+02  0.7816164E-02  0.1312668E+00
        -11   -1    0    0    0    0  0.00000000000E+00  0.00000000000E+00  0.45593999997E+02  0.45594000000E+02  0.51100000000E-03 0.  1.
         11   -1    0    0    0    0 -0.00000000000E+00 -0.00000000000E+00 -0.45593999997E+02  0.45594000000E+02  0.51100000000E-03 0. -1.
    9900012    2    1    2    0    0  0.42019524487E+02 -0.10721136889E+02  0.17439690498E+01  0.47787255279E+02  0.19999928118E+02 0.  0.
        -12    1    1    2    0    0 -0.42019524487E+02  0.10721136889E+02 -0.17439690498E+01  0.43400744721E+02  0.00000000000E+00 0.  1.
         11    1    3    3    0    0  0.14991348616E+02 -0.34910508052E+01 -0.44615834243E+01  0.16026031822E+02  0.51100000000E-03 0. -1.
        -11    1    3    3    0    0  0.12355120439E+02 -0.78106201432E+01  0.84844518365E+01  0.16900908594E+02  0.51100000000E-03 0.  1.
        -12    1    3    3    0    0  0.14673055432E+02  0.58053405978E+00 -0.22788993624E+01  0.14860314863E+02  0.00000000000E+00 0.  1.
</event>
<event>
 7    1  0.3606852E-009  0.4778728E+02  0.7816164E-02  0.1312668E+00
        -11   -1    0    0    0    0  0.00000000000E+00  0.00000000000E+00  0.45593999997E+02  0.45594000000E+02  0.51100000000E-03 0. -1.
         11   -1    0    0    0    0 -0.00000000000E+00 -0.00000000000E+00 -0.45593999997E+02  0.45594000000E+02  0.51100000000E-03 0.  1.
    9900012    2    1    2    0    0  0.43098582381E+02 -0.30043545037E+01 -0.41362110914E+01  0.47787283515E+02  0.20000056859E+02 0.  0.
        -12    1    1    2    0    0 -0.43098582381E+02  0.30043545037E+01  0.41362110914E+01  0.43400716485E+02  0.00000000000E+00 0.  1.
         11    1    3    3    0    0  0.21865189120E+02 -0.17895244256E+01  0.23716234500E+01  0.22066116354E+02  0.51100000000E-03 0. -1.
        -11    1    3    3    0    0 -0.15129738747E+01  0.10231503226E+01 -0.13997258233E+01  0.23011212853E+01  0.51100000000E-03 0.  1.
        -12    1    3    3    0    0  0.22746367136E+02 -0.22379804007E+01 -0.51081087181E+01  0.23420045876E+02  0.00000000000E+00 0.  1.
</event>
<event>
 7    1  0.2642243E-009  0.4778727E+02  0.7816164E-02  0.1312668E+00
        -11   -1    0    0    0    0  0.00000000000E+00  0.00000000000E+00  0.45593999997E+02  0.45594000000E+02  0.51100000000E-03 0. -1.
         11   -1    0    0    0    0 -0.00000000000E+00 -0.00000000000E+00 -0.45593999997E+02  0.45594000000E+02  0.51100000000E-03 0.  1.
    9900012    2    1    2    0    0  0.36945965929E+02  0.13664858145E+02 -0.18217864583E+02  0.47787270323E+02  0.19999996709E+02 0.  0.
        -12    1    1    2    0    0 -0.36945965929E+02 -0.13664858145E+02  0.18217864583E+02  0.43400729677E+02  0.00000000000E+00 0.  1.
         11    1    3    3    0    0  0.54637862451E+01  0.49797468827E+01  0.28517277830E+01  0.79235844640E+01  0.51100000000E-03 0. -1.
        -11    1    3    3    0    0  0.18305587353E+02  0.72875075227E+01 -0.16941781133E+02  0.25985115787E+02  0.51100000000E-03 0.  1.
        -12    1    3    3    0    0  0.13176592330E+02  0.13976037398E+01 -0.41278112333E+01  0.13878570072E+02  0.00000000000E+00 0.  1.
</event>
<event>
 7    1  0.2642243E-009  0.4778727E+02  0.7816164E-02  0.1312668E+00
        -11   -1    0    0    0    0  0.00000000000E+00  0.00000000000E+00  0.45593999997E+02  0.45594000000E+02  0.51100000000E-03 0. -1.
         11   -1    0    0    0    0 -0.00000000000E+00 -0.00000000000E+00 -0.45593999997E+02  0.45594000000E+02  0.51100000000E-03 0.  1.
    9900012    2    1    2    0    0  0.11672107598E+02  0.39477077469E+02 -0.13745739151E+02  0.47787273208E+02  0.20000009867E+02 0.  0.
        -12    1    1    2    0    0 -0.11672107598E+02 -0.39477077469E+02  0.13745739151E+02  0.43400726792E+02  0.00000000000E+00 0.  1.
         11    1    3    3    0    0  0.85786777614E+01  0.36293402963E+02 -0.13053792114E+02  0.39512103203E+02  0.51100000000E-03 0. -1.
        -11    1    3    3    0    0  0.30694171046E+01 -0.48915124143E+00  0.20223401782E+01  0.37081599692E+01  0.51100000000E-03 0.  1.
        -12    1    3    3    0    0  0.24012731518E-01  0.36728257475E+01 -0.27142872150E+01  0.45670100359E+01  0.00000000000E+00 0.  1.
</event>
<event>
 7    1  0.2642243E-009  0.4778727E+02  0.7816164E-02  0.1312668E+00
        -11   -1    0    0    0    0  0.00000000000E+00  0.00000000000E+00  0.45593999997E+02  0.45594000000E+02  0.51100000000E-03 0.  1.
         11   -1    0    0    0    0 -0.00000000000E+00 -0.00000000000E+00 -0.45593999997E+02  0.45594000000E+02  0.51100000000E-03 0. -1.
    9900012    2    1    2    0    0  0.27765160758E+02 -0.25378913939E+02  0.21647858289E+02  0.47787271974E+02  0.20000004240E+02 0.  0.
        -12    1    1    2    0    0 -0.27765160758E+02  0.25378913939E+02 -0.21647858289E+02  0.43400728026E+02  0.00000000000E+00 0.  1.
         11    1    3    3    0    0  0.17444349447E+02 -0.15098777992E+02  0.46747609447E+01  0.23540004559E+02  0.51100000000E-03 0. -1.
        -11    1    3    3    0    0  0.36103750857E+01 -0.95231380405E+01  0.76607349315E+01  0.12744089860E+02  0.51100000000E-03 0.  1.
         12    1    3    3    0    0  0.67104362258E+01 -0.75699790632E+00  0.93123624130E+01  0.11503177556E+02  0.00000000000E+00 0. -1.
</event>
<event>
 7    1  0.2642243E-009  0.4778727E+02  0.7816164E-02  0.1312668E+00
        -11   -1    0    0    0    0  0.00000000000E+00  0.00000000000E+00  0.45593999997E+02  0.45594000000E+02  0.51100000000E-03 0.  1.
         11   -1    0    0    0    0 -0.00000000000E+00 -0.00000000000E+00 -0.45593999997E+02  0.45594000000E+02  0.51100000000E-03 0. -1.
    9900012    2    1    2    0    0 -0.42420129440E+02  0.73234124013E+01  0.55248137538E+01  0.47787270537E+02  0.19999997685E+02 0.  0.
        -12    1    1    2    0    0  0.42420129440E+02 -0.73234124013E+01 -0.55248137538E+01  0.43400729463E+02  0.00000000000E+00 0.  1.
         11    1    3    3    0    0 -0.31791525508E+02  0.29624158916E+01  0.41061055106E+01  0.32192190121E+02  0.51100000000E-03 0. -1.
        -11    1    3    3    0    0 -0.34314975016E+01  0.66608269890E+01 -0.12209774429E+01  0.75916123095E+01  0.51100000000E-03 0.  1.
        -12    1    3    3    0    0 -0.71971064308E+01 -0.22998304793E+01  0.26396856860E+01  0.80034681064E+01  0.00000000000E+00 0.  1.
</event>
<event>
 7    1  0.2642243E-009  0.4778727E+02  0.7816164E-02  0.1312668E+00
        -11   -1    0    0    0    0  0.00000000000E+00  0.00000000000E+00  0.45593999997E+02  0.45594000000E+02  0.51100000000E-03 0. -1.
         11   -1    0    0    0    0 -0.00000000000E+00 -0.00000000000E+00 -0.45593999997E+02  0.45594000000E+02  0.51100000000E-03 0.  1.
    9900012    2    1    2    0    0  0.28183600368E+02 -0.27419900265E+02  0.18369999541E+02  0.47787272548E+02  0.20000006855E+02 0.  0.
        -12    1    1    2    0    0 -0.28183600368E+02  0.27419900265E+02 -0.18369999541E+02  0.43400727452E+02  0.00000000000E+00 0.  1.
         11    1    3    3    0    0  0.94851101447E+01 -0.12646403589E+02  0.15510550969E+02  0.22146693429E+02  0.51100000000E-03 0. -1.
        -11    1    3    3    0    0  0.17731838880E+02 -0.10702244382E+02  0.44145701771E+01  0.21176509982E+02  0.51100000000E-03 0.  1.
        -12    1    3    3    0    0  0.96665134341E+00 -0.40712522932E+01 -0.15551216058E+01  0.44640691374E+01  0.00000000000E+00 0.  1.
</event>
<event>
 7    1  0.2642243E-009  0.4778727E+02  0.7816164E-02  0.1312668E+00
        -11   -1    0    0    0    0  0.00000000000E+00  0.00000000000E+00  0.45593999997E+02  0.45594000000E+02  0.51100000000E-03 0.  1.
         11   -1    0    0    0    0 -0.00000000000E+00 -0.00000000000E+00 -0.45593999997E+02  0.45594000000E+02  0.51100000000E-03 0. -1.
    9900012    2    1    2    0    0 -0.14399498851E+02  0.14981006001E+02 -0.38103111066E+02  0.47787272116E+02  0.20000004886E+02 0.  0.
        -12    1    1    2    0    0  0.14399498851E+02 -0.14981006001E+02  0.38103111066E+02  0.43400727884E+02  0.00000000000E+00 0.  1.
         11    1    3    3    0    0 -0.15971791151E+02  0.90719632771E+01 -0.32856929860E+02  0.37642747912E+02  0.51100000000E-03 0. -1.
        -11    1    3    3    0    0  0.35701844022E+01  0.17334424422E+01 -0.31314197820E+01  0.50553762944E+01  0.51100000000E-03 0.  1.
         12    1    3    3    0    0 -0.19978921029E+01  0.41756002821E+01 -0.21147614238E+01  0.50891479101E+01  0.00000000000E+00 0. -1.
</event>
<event>
 7    1  0.2712228E-009  0.4778728E+02  0.7816164E-02  0.1312668E+00
        -11   -1    0    0    0    0  0.00000000000E+00  0.00000000000E+00  0.45593999997E+02  0.45594000000E+02  0.51100000000E-03 0. -1.
         11   -1    0    0    0    0 -0.00000000000E+00 -0.00000000000E+00 -0.45593999997E+02  0.45594000000E+02  0.51100000000E-03 0.  1.
    9900012    2    1    2    0    0  0.28020914442E+02  0.32710828899E+02 -0.53340583537E+01  0.47787283970E+02  0.20000058931E+02 0.  0.
        -12    1    1    2    0    0 -0.28020914442E+02 -0.32710828899E+02  0.53340583537E+01  0.43400716030E+02  0.00000000000E+00 0.  1.
         11    1    3    3    0    0  0.27452406515E+02  0.24930657788E+02 -0.71873434124E+01  0.37773406344E+02  0.51100000000E-03 0. -1.
        -11    1    3    3    0    0 -0.18652968940E+00  0.12749591351E+01  0.30912158585E+01  0.33490192394E+01  0.51100000000E-03 0.  1.
         12    1    3    3    0    0  0.75503761657E+00  0.65052119751E+01 -0.12379307997E+01  0.66648583863E+01  0.00000000000E+00 0. -1.
</event>
<event>
 7    1  0.2642243E-009  0.4778727E+02  0.7816164E-02  0.1312668E+00
        -11   -1    0    0    0    0  0.00000000000E+00  0.00000000000E+00  0.45593999997E+02  0.45594000000E+02  0.51100000000E-03 0. -1.
         11   -1    0    0    0    0 -0.00000000000E+00 -0.00000000000E+00 -0.45593999997E+02  0.45594000000E+02  0.51100000000E-03 0.  1.
    9900012    2    1    2    0    0  0.21696013563E+02 -0.36874150611E+02  0.72940521677E+01  0.47787272070E+02  0.20000004676E+02 0.  0.
        -12    1    1    2    0    0 -0.21696013563E+02  0.36874150611E+02 -0.72940521677E+01  0.43400727930E+02  0.00000000000E+00 0.  1.
         11    1    3    3    0    0  0.23169314962E+02 -0.28791037054E+02  0.82062462223E+01  0.37856088649E+02  0.51100000000E-03 0. -1.
        -11    1    3    3    0    0 -0.25459485514E+01 -0.10767553075E+01 -0.64300182678E+00  0.28380816811E+01  0.51100000000E-03 0.  1.
         12    1    3    3    0    0  0.10726471520E+01 -0.70063582496E+01 -0.26919222783E+00  0.70931017397E+01  0.00000000000E+00 0. -1.
</event>
<event>
 7    1  0.2642243E-009  0.4778728E+02  0.7816164E-02  0.1312668E+00
        -11   -1    0    0    0    0  0.00000000000E+00  0.00000000000E+00  0.45593999997E+02  0.45594000000E+02  0.51100000000E-03 0.  1.
         11   -1    0    0    0    0 -0.00000000000E+00 -0.00000000000E+00 -0.45593999997E+02  0.45594000000E+02  0.51100000000E-03 0. -1.
    9900012    2    1    2    0    0 -0.52426204433E+01  0.20989222311E+02 -0.37624332461E+02  0.47787275173E+02  0.20000018825E+02 0.  0.
        -12    1    1    2    0    0  0.52426204433E+01 -0.20989222311E+02  0.37624332461E+02  0.43400724827E+02  0.00000000000E+00 0.  1.
         11    1    3    3    0    0 -0.10581698892E+02  0.10313389517E+02 -0.19801565858E+02  0.24707091401E+02  0.51100000000E-03 0. -1.
        -11    1    3    3    0    0  0.70699576976E+01  0.75400040289E+01 -0.16033320539E+02  0.19076250427E+02  0.51100000000E-03 0.  1.
        -12    1    3    3    0    0 -0.17308792486E+01  0.31358287652E+01 -0.17894460637E+01  0.40039333451E+01  0.00000000000E+00 0.  1.
</event>
<event>
 7    1  0.2642243E-009  0.4778727E+02  0.7816164E-02  0.1312668E+00
        -11   -1    0    0    0    0  0.00000000000E+00  0.00000000000E+00  0.45593999997E+02  0.45594000000E+02  0.51100000000E-03 0.  1.
         11   -1    0    0    0    0 -0.00000000000E+00 -0.00000000000E+00 -0.45593999997E+02  0.45594000000E+02  0.51100000000E-03 0. -1.
    9900012    2    1    2    0    0 -0.24526855056E+01 -0.40918004654E+02 -0.14259192492E+02  0.47787270265E+02  0.19999996445E+02 0.  0.
        -12    1    1    2    0    0  0.24526855056E+01  0.40918004654E+02  0.14259192492E+02  0.43400729735E+02  0.00000000000E+00 0.  1.
         11    1    3    3    0    0  0.85354289312E+00 -0.29745334072E+02 -0.12457572974E+02  0.32259952870E+02  0.51100000000E-03 0. -1.
        -11    1    3    3    0    0 -0.33509530210E+00  0.17145921361E+00 -0.36381914746E+01  0.36576118698E+01  0.51100000000E-03 0.  1.
         12    1    3    3    0    0 -0.29711330966E+01 -0.11344129796E+02  0.18365719564E+01  0.11869705525E+02  0.00000000000E+00 0. -1.
</event>
<event>
 7    1  0.2642243E-009  0.4778727E+02  0.7816164E-02  0.1312668E+00
        -11   -1    0    0    0    0  0.00000000000E+00  0.00000000000E+00  0.45593999997E+02  0.45594000000E+02  0.51100000000E-03 0. -1.
         11   -1    0    0    0    0 -0.00000000000E+00 -0.00000000000E+00 -0.45593999997E+02  0.45594000000E+02  0.51100000000E-03 0.  1.
    9900012    2    1    2    0    0  0.32072970995E+02  0.24406028704E+02  0.16102597736E+02  0.47787270059E+02  0.19999995507E+02 0.  0.
        -12    1    1    2    0    0 -0.32072970995E+02 -0.24406028704E+02 -0.16102597736E+02  0.43400729941E+02  0.00000000000E+00 0.  1.
         11    1    3    3    0    0  0.13366387310E+02  0.19904047335E+02  0.85240164501E+01  0.25445830046E+02  0.51100000000E-03 0. -1.
        -11    1    3    3    0    0  0.99227321138E+01  0.21736395569E+00 -0.79311560961E-01  0.99254294756E+01  0.51100000000E-03 0.  1.
        -12    1    3    3    0    0  0.87838515716E+01  0.42846174139E+01  0.76578928469E+01  0.12416010538E+02  0.00000000000E+00 0.  1.
</event>
<event>
 7    1  0.2642243E-009  0.4778727E+02  0.7816164E-02  0.1312668E+00
        -11   -1    0    0    0    0  0.00000000000E+00  0.00000000000E+00  0.45593999997E+02  0.45594000000E+02  0.51100000000E-03 0.  1.
         11   -1    0    0    0    0 -0.00000000000E+00 -0.00000000000E+00 -0.45593999997E+02  0.45594000000E+02  0.51100000000E-03 0. -1.
    9900012    2    1    2    0    0  0.48157705863E+01  0.38089079763E+02 -0.20239896292E+02  0.47787273676E+02  0.20000012000E+02 0.  0.
        -12    1    1    2    0    0 -0.48157705863E+01 -0.38089079763E+02  0.20239896292E+02  0.43400726324E+02  0.00000000000E+00 0.  1.
         11    1    3    3    0    0  0.28785478817E+01  0.12668238847E+02 -0.10108820478E+02  0.16460819090E+02  0.51100000000E-03 0. -1.
        -11    1    3    3    0    0  0.68770589117E+01  0.15255690897E+02 -0.10944577730E+02  0.19995345107E+02  0.51100000000E-03 0.  1.
        -12    1    3    3    0    0 -0.49398362071E+01  0.10165150019E+02  0.81350191628E+00  0.11331109479E+02  0.00000000000E+00 0.  1.
</event>
<event>
 7    1  0.2642243E-009  0.4778727E+02  0.7816164E-02  0.1312668E+00
        -11   -1    0    0    0    0  0.00000000000E+00  0.00000000000E+00  0.45593999997E+02  0.45594000000E+02  0.51100000000E-03 0. -1.
         11   -1    0    0    0    0 -0.00000000000E+00 -0.00000000000E+00 -0.45593999997E+02  0.45594000000E+02  0.51100000000E-03 0.  1.
    9900012    2    1    2    0    0  0.22408327455E+02 -0.51103693973E+01  0.36815411342E+02  0.47787268129E+02  0.19999986707E+02 0.  0.
        -12    1    1    2    0    0 -0.22408327455E+02  0.51103693973E+01 -0.36815411342E+02  0.43400731871E+02  0.00000000000E+00 0.  1.
         11    1    3    3    0    0  0.19370487065E+02  0.92712046231E+00  0.32761685962E+02  0.38071030834E+02  0.51100000000E-03 0. -1.
        -11    1    3    3    0    0  0.28623222042E+01 -0.69247800677E+01  0.24649771463E+01  0.78880656678E+01  0.51100000000E-03 0.  1.
         12    1    3    3    0    0  0.17551818554E+00  0.88729020811E+00  0.15887482336E+01  0.18281716267E+01  0.00000000000E+00 0. -1.
</event>
<event>
 7    1  0.2642243E-009  0.4778727E+02  0.7816164E-02  0.1312668E+00
        -11   -1    0    0    0    0  0.00000000000E+00  0.00000000000E+00  0.45593999997E+02  0.45594000000E+02  0.51100000000E-03 0. -1.
         11   -1    0    0    0    0 -0.00000000000E+00 -0.00000000000E+00 -0.45593999997E+02  0.45594000000E+02  0.51100000000E-03 0.  1.
    9900012    2    1    2    0    0 -0.51653263234E+01  0.59423886269E+01  0.42680565440E+02  0.47787271378E+02  0.20000001523E+02 0.  0.
        -12    1    1    2    0    0  0.51653263234E+01 -0.59423886269E+01 -0.42680565440E+02  0.43400728622E+02  0.00000000000E+00 0.  1.
         11    1    3    3    0    0 -0.34739527809E+01 -0.67303144080E+01  0.14515659129E+02  0.16372838488E+02  0.51100000000E-03 0. -1.
        -11    1    3    3    0    0 -0.78953799085E-01  0.10545077536E+02  0.17599687881E+02  0.20517161297E+02  0.51100000000E-03 0.  1.
         12    1    3    3    0    0 -0.16124197434E+01  0.21276254991E+01  0.10565218430E+02  0.10897271593E+02  0.00000000000E+00 0. -1.
</event>
<event>
 7    1  0.2642243E-009  0.4778728E+02  0.7816164E-02  0.1312668E+00
        -11   -1    0    0    0    0  0.00000000000E+00  0.00000000000E+00  0.45593999997E+02  0.45594000000E+02  0.51100000000E-03 0.  1.
         11   -1    0    0    0    0 -0.00000000000E+00 -0.00000000000E+00 -0.45593999997E+02  0.45594000000E+02  0.51100000000E-03 0. -1.
    9900012    2    1    2    0    0  0.13430679480E+01  0.15951522258E+02 -0.40340648534E+02  0.47787276296E+02  0.20000023944E+02 0.  0.
        -12    1    1    2    0    0 -0.13430679480E+01 -0.15951522258E+02  0.40340648534E+02  0.43400723704E+02  0.00000000000E+00 0.  1.
         11    1    3    3    0    0  0.75616218310E+01  0.61217785844E+01 -0.14251763087E+02  0.17255927941E+02  0.51100000000E-03 0. -1.
        -11    1    3    3    0    0 -0.55863566346E+01  0.72950820190E+01 -0.77876988646E+01  0.12044660891E+02  0.51100000000E-03 0.  1.
        -12    1    3    3    0    0 -0.63219724839E+00  0.25346616548E+01 -0.18301186583E+02  0.18486687464E+02  0.00000000000E+00 0.  1.
</event>
<event>
 7    1  0.2642243E-009  0.4778727E+02  0.7816164E-02  0.1312668E+00
        -11   -1    0    0    0    0  0.00000000000E+00  0.00000000000E+00  0.45593999997E+02  0.45594000000E+02  0.51100000000E-03 0.  1.
         11   -1    0    0    0    0 -0.00000000000E+00 -0.00000000000E+00 -0.45593999997E+02  0.45594000000E+02  0.51100000000E-03 0. -1.
    9900012    2    1    2    0    0  0.95532811235E+01 -0.34547819202E+02 -0.24470516893E+02  0.47787272024E+02  0.20000004468E+02 0.  0.
        -12    1    1    2    0    0 -0.95532811235E+01  0.34547819202E+02  0.24470516893E+02  0.43400727976E+02  0.00000000000E+00 0.  1.
         11    1    3    3    0    0  0.34965738475E+01 -0.28587687724E+02 -0.18224124945E+02  0.34082262958E+02  0.51100000000E-03 0. -1.
        -11    1    3    3    0    0  0.34000435718E+01  0.44777370932E+00 -0.58198598022E+01  0.67551140600E+01  0.51100000000E-03 0.  1.
        -12    1    3    3    0    0  0.26566637041E+01 -0.64079051877E+01 -0.42653214533E+00  0.69498950065E+01  0.00000000000E+00 0.  1.
</event>
<event>
 7    1  0.2642243E-009  0.4778727E+02  0.7816164E-02  0.1312668E+00
        -11   -1    0    0    0    0  0.00000000000E+00  0.00000000000E+00  0.45593999997E+02  0.45594000000E+02  0.51100000000E-03 0.  1.
         11   -1    0    0    0    0 -0.00000000000E+00 -0.00000000000E+00 -0.45593999997E+02  0.45594000000E+02  0.51100000000E-03 0. -1.
    9900012    2    1    2    0    0  0.57853671035E+01 -0.27713304321E+02 -0.32895681830E+02  0.47787267380E+02  0.19999983294E+02 0.  0.
        -12    1    1    2    0    0 -0.57853671035E+01  0.27713304321E+02  0.32895681830E+02  0.43400732620E+02  0.00000000000E+00 0.  1.
         11    1    3    3    0    0  0.86346454328E+01 -0.22791493473E+02 -0.24651031728E+02  0.34665294489E+02  0.51100000000E-03 0. -1.
        -11    1    3    3    0    0  0.27162348694E+01 -0.88161818168E+00 -0.75522017952E+00  0.29539025482E+01  0.51100000000E-03 0.  1.
         12    1    3    3    0    0 -0.55655131987E+01 -0.40401926654E+01 -0.74894299223E+01  0.10168070343E+02  0.00000000000E+00 0. -1.
</event>
<event>
 7    1  0.2642243E-009  0.4778727E+02  0.7816164E-02  0.1312668E+00
        -11   -1    0    0    0    0  0.00000000000E+00  0.00000000000E+00  0.45593999997E+02  0.45594000000E+02  0.51100000000E-03 0.  1.
         11   -1    0    0    0    0 -0.00000000000E+00 -0.00000000000E+00 -0.45593999997E+02  0.45594000000E+02  0.51100000000E-03 0. -1.
    9900012    2    1    2    0    0 -0.25493358485E+02  0.17287611898E+02 -0.30575328676E+02  0.47787267568E+02  0.19999984149E+02 0.  0.
        -12    1    1    2    0    0  0.25493358485E+02 -0.17287611898E+02  0.30575328676E+02  0.43400732432E+02  0.00000000000E+00 0.  1.
         11    1    3    3    0    0 -0.18333718810E+02  0.16312247817E+02 -0.21924890478E+02  0.32907681428E+02  0.51100000000E-03 0. -1.
        -11    1    3    3    0    0 -0.27601403185E+00 -0.14720890383E+01 -0.72974770294E+01  0.74495906692E+01  0.51100000000E-03 0.  1.
         12    1    3    3    0    0 -0.68836256433E+01  0.24474531193E+01 -0.13529611692E+01  0.74299954706E+01  0.00000000000E+00 0. -1.
</event>
<event>
 7    1  0.2642243E-009  0.4778727E+02  0.7816164E-02  0.1312668E+00
        -11   -1    0    0    0    0  0.00000000000E+00  0.00000000000E+00  0.45593999997E+02  0.45594000000E+02  0.51100000000E-03 0. -1.
         11   -1    0    0    0    0 -0.00000000000E+00 -0.00000000000E+00 -0.45593999997E+02  0.45594000000E+02  0.51100000000E-03 0.  1.
    9900012    2    1    2    0    0  0.18708537103E+02  0.34007404396E+02  0.19419326065E+02  0.47787272598E+02  0.20000007082E+02 0.  0.
        -12    1    1    2    0    0 -0.18708537103E+02 -0.34007404396E+02 -0.19419326065E+02  0.43400727402E+02  0.00000000000E+00 0.  1.
         11    1    3    3    0    0  0.54129695506E+01  0.82928932626E+01  0.36515297869E+01  0.10554903508E+02  0.51100000000E-03 0. -1.
        -11    1    3    3    0    0  0.33805124219E+01  0.22947058929E+02  0.88298315120E+01  0.24818567696E+02  0.51100000000E-03 0.  1.
        -12    1    3    3    0    0  0.99150551300E+01  0.27674522043E+01  0.69379647658E+01  0.12413801393E+02  0.00000000000E+00 0.  1.
</event>
<event>
 7    1  0.2642243E-009  0.4778727E+02  0.7816164E-02  0.1312668E+00
        -11   -1    0    0    0    0  0.00000000000E+00  0.00000000000E+00  0.45593999997E+02  0.45594000000E+02  0.51100000000E-03 0.  1.
         11   -1    0    0    0    0 -0.00000000000E+00 -0.00000000000E+00 -0.45593999997E+02  0.45594000000E+02  0.51100000000E-03 0. -1.
    9900012    2    1    2    0    0 -0.13496214898E+02 -0.40089618120E+01 -0.41053669149E+02  0.47787270260E+02  0.19999996425E+02 0.  0.
        -12    1    1    2    0    0  0.13496214898E+02  0.40089618120E+01  0.41053669149E+02  0.43400729740E+02  0.00000000000E+00 0.  1.
         11    1    3    3    0    0 -0.39408556913E+01  0.66244616321E+01 -0.77668019027E+01  0.10942442486E+02  0.51100000000E-03 0. -1.
        -11    1    3    3    0    0 -0.24211967642E+01 -0.67682047995E+01 -0.11134430871E+02  0.13253163436E+02  0.51100000000E-03 0.  1.
         12    1    3    3    0    0 -0.71341624423E+01 -0.38652186446E+01 -0.22152436375E+02  0.23591664338E+02  0.00000000000E+00 0. -1.
</event>
<event>
 7    1  0.2642243E-009  0.4778723E+02  0.7816164E-02  0.1312668E+00
        -11   -1    0    0    0    0  0.00000000000E+00  0.00000000000E+00  0.45593999997E+02  0.45594000000E+02  0.51100000000E-03 0.  1.
         11   -1    0    0    0    0 -0.00000000000E+00 -0.00000000000E+00 -0.45593999997E+02  0.45594000000E+02  0.51100000000E-03 0. -1.
    9900012    2    1    2    0    0  0.42020063815E+02  0.10022206180E+02  0.41829261222E+01  0.47787225230E+02  0.19999791112E+02 0.  0.
        -12    1    1    2    0    0 -0.42020063815E+02 -0.10022206180E+02 -0.41829261222E+01  0.43400774770E+02  0.00000000000E+00 0.  1.
         11    1    3    3    0    0  0.10733342720E+02  0.64173712733E+01 -0.31325719455E+01  0.12891869812E+02  0.51100000000E-03 0. -1.
        -11    1    3    3    0    0  0.23513070107E+02  0.26092458061E+01  0.11169760878E+02  0.26161731362E+02  0.51100000000E-03 0.  1.
        -12    1    3    3    0    0  0.77736509876E+01  0.99558910060E+00 -0.38542628100E+01  0.87336240555E+01  0.00000000000E+00 0.  1.
</event>
<event>
 7    1  0.2642243E-009  0.4778727E+02  0.7816164E-02  0.1312668E+00
        -11   -1    0    0    0    0  0.00000000000E+00  0.00000000000E+00  0.45593999997E+02  0.45594000000E+02  0.51100000000E-03 0.  1.
         11   -1    0    0    0    0 -0.00000000000E+00 -0.00000000000E+00 -0.45593999997E+02  0.45594000000E+02  0.51100000000E-03 0. -1.
    9900012    2    1    2    0    0 -0.39919604978E+02 -0.12018173182E+02 -0.12066977143E+02  0.47787270909E+02  0.19999999382E+02 0.  0.
        -12    1    1    2    0    0  0.39919604978E+02  0.12018173182E+02  0.12066977143E+02  0.43400729091E+02  0.00000000000E+00 0.  1.
         11    1    3    3    0    0 -0.37985092716E+02 -0.13876784983E+02 -0.12610082385E+02  0.42360908962E+02  0.51100000000E-03 0. -1.
        -11    1    3    3    0    0 -0.25203454942E+01  0.30107955842E+01  0.10062227895E+01  0.40533339393E+01  0.51100000000E-03 0.  1.
         12    1    3    3    0    0  0.58583323172E+00 -0.11521837834E+01 -0.46311754793E+00  0.13730280075E+01  0.00000000000E+00 0. -1.
</event>
<event>
 7    1  0.2642243E-009  0.4778726E+02  0.7816164E-02  0.1312668E+00
        -11   -1    0    0    0    0  0.00000000000E+00  0.00000000000E+00  0.45593999997E+02  0.45594000000E+02  0.51100000000E-03 0. -1.
         11   -1    0    0    0    0 -0.00000000000E+00 -0.00000000000E+00 -0.45593999997E+02  0.45594000000E+02  0.51100000000E-03 0.  1.
    9900012    2    1    2    0    0  0.42687794620E+02  0.77186477527E+01  0.13412222477E+01  0.47787260263E+02  0.19999950841E+02 0.  0.
        -12    1    1    2    0    0 -0.42687794620E+02 -0.77186477527E+01 -0.13412222477E+01  0.43400739737E+02  0.00000000000E+00 0.  1.
         11    1    3    3    0    0  0.19867914817E+01 -0.31710898641E+01  0.35913982726E+01  0.51866456532E+01  0.51100000000E-03 0. -1.
        -11    1    3    3    0    0  0.58363832026E+00  0.45553250115E+00 -0.84674464367E+00  0.11247756670E+01  0.51100000000E-03 0.  1.
         12    1    3    3    0    0  0.40117364818E+02  0.10434205116E+02 -0.14034313813E+01  0.41475838942E+02  0.00000000000E+00 0. -1.
</event>
<event>
 7    1  0.2642243E-009  0.4778730E+02  0.7816164E-02  0.1312668E+00
        -11   -1    0    0    0    0  0.00000000000E+00  0.00000000000E+00  0.45593999997E+02  0.45594000000E+02  0.51100000000E-03 0.  1.
         11   -1    0    0    0    0 -0.00000000000E+00 -0.00000000000E+00 -0.45593999997E+02  0.45594000000E+02  0.51100000000E-03 0. -1.
    9900012    2    1    2    0    0  0.36634831021E+02 -0.21604066331E+02 -0.86472199136E+01  0.47787297953E+02  0.20000122685E+02 0.  0.
        -12    1    1    2    0    0 -0.36634831021E+02  0.21604066331E+02  0.86472199136E+01  0.43400702047E+02  0.00000000000E+00 0.  1.
         11    1    3    3    0    0  0.12554735386E+02 -0.17239748985E+00 -0.72468464870E+01  0.14497168198E+02  0.51100000000E-03 0. -1.
        -11    1    3    3    0    0 -0.15496997535E+00 -0.11350990150E+01 -0.12262152756E+01  0.16781149038E+01  0.51100000000E-03 0.  1.
         12    1    3    3    0    0  0.24235065610E+02 -0.20296569826E+02 -0.17415815103E+00  0.31612014851E+02  0.00000000000E+00 0. -1.
</event>
<event>
 7    1  0.2642243E-009  0.4778727E+02  0.7816164E-02  0.1312668E+00
        -11   -1    0    0    0    0  0.00000000000E+00  0.00000000000E+00  0.45593999997E+02  0.45594000000E+02  0.51100000000E-03 0. -1.
         11   -1    0    0    0    0 -0.00000000000E+00 -0.00000000000E+00 -0.45593999997E+02  0.45594000000E+02  0.51100000000E-03 0.  1.
    9900012    2    1    2    0    0  0.96715251020E+01  0.34428899442E+02  0.24591382585E+02  0.47787267149E+02  0.19999982240E+02 0.  0.
        -12    1    1    2    0    0 -0.96715251020E+01 -0.34428899442E+02 -0.24591382585E+02  0.43400732851E+02  0.00000000000E+00 0.  1.
         11    1    3    3    0    0 -0.11227564453E+01  0.23939669822E+02  0.17989124029E+02  0.29966263645E+02  0.51100000000E-03 0. -1.
        -11    1    3    3    0    0  0.75852191583E+01  0.25723147510E+01  0.31071592156E+01  0.85910879119E+01  0.51100000000E-03 0.  1.
         12    1    3    3    0    0  0.32090623889E+01  0.79169148686E+01  0.34950993401E+01  0.92299155928E+01  0.00000000000E+00 0. -1.
</event>
<event>
 7    1  0.2642243E-009  0.4778728E+02  0.7816164E-02  0.1312668E+00
        -11   -1    0    0    0    0  0.00000000000E+00  0.00000000000E+00  0.45593999997E+02  0.45594000000E+02  0.51100000000E-03 0.  1.
         11   -1    0    0    0    0 -0.00000000000E+00 -0.00000000000E+00 -0.45593999997E+02  0.45594000000E+02  0.51100000000E-03 0. -1.
    9900012    2    1    2    0    0 -0.82686589021E+01  0.95671414515E+01 -0.41517731261E+02  0.47787275067E+02  0.20000018342E+02 0.  0.
        -12    1    1    2    0    0  0.82686589021E+01 -0.95671414515E+01  0.41517731261E+02  0.43400724933E+02  0.00000000000E+00 0.  1.
         11    1    3    3    0    0 -0.61335644203E+01 -0.28579738505E+01 -0.26044185624E+02  0.26908887605E+02  0.51100000000E-03 0. -1.
        -11    1    3    3    0    0 -0.11307794206E+01  0.53338249683E+01 -0.23698242359E+01  0.59451171612E+01  0.51100000000E-03 0.  1.
         12    1    3    3    0    0 -0.10043150611E+01  0.70912903337E+01 -0.13103721401E+02  0.14933270301E+02  0.00000000000E+00 0. -1.
</event>
<event>
 7    1  0.2642243E-009  0.4778727E+02  0.7816164E-02  0.1312668E+00
        -11   -1    0    0    0    0  0.00000000000E+00  0.00000000000E+00  0.45593999997E+02  0.45594000000E+02  0.51100000000E-03 0.  1.
         11   -1    0    0    0    0 -0.00000000000E+00 -0.00000000000E+00 -0.45593999997E+02  0.45594000000E+02  0.51100000000E-03 0. -1.
    9900012    2    1    2    0    0 -0.13450286604E+02 -0.91891058114E+01 -0.40227768589E+02  0.47787271423E+02  0.20000001727E+02 0.  0.
        -12    1    1    2    0    0  0.13450286604E+02  0.91891058114E+01  0.40227768589E+02  0.43400728577E+02  0.00000000000E+00 0.  1.
         11    1    3    3    0    0 -0.14655407975E+02 -0.66598497225E+01 -0.28244159943E+02  0.32509493265E+02  0.51100000000E-03 0. -1.
        -11    1    3    3    0    0  0.69290141714E+00  0.31848729144E+01 -0.68215682618E+01  0.75602461379E+01  0.51100000000E-03 0.  1.
         12    1    3    3    0    0  0.51221995401E+00 -0.57141290033E+01 -0.51620403844E+01  0.77175320199E+01  0.00000000000E+00 0. -1.
</event>
<event>
 7    1  0.2642243E-009  0.4778727E+02  0.7816164E-02  0.1312668E+00
        -11   -1    0    0    0    0  0.00000000000E+00  0.00000000000E+00  0.45593999997E+02  0.45594000000E+02  0.51100000000E-03 0.  1.
         11   -1    0    0    0    0 -0.00000000000E+00 -0.00000000000E+00 -0.45593999997E+02  0.45594000000E+02  0.51100000000E-03 0. -1.
    9900012    2    1    2    0    0 -0.40661636719E+01 -0.30747136082E+02 -0.30359563398E+02  0.47787272426E+02  0.20000006299E+02 0.  0.
        -12    1    1    2    0    0  0.40661636719E+01  0.30747136082E+02  0.30359563398E+02  0.43400727574E+02  0.00000000000E+00 0.  1.
         11    1    3    3    0    0 -0.10260622510E+02 -0.24729596695E+02 -0.16909644743E+02  0.31666534585E+02  0.51100000000E-03 0. -1.
        -11    1    3    3    0    0  0.55408390920E+01 -0.45198953845E+01 -0.98950584340E+01  0.12208297744E+02  0.51100000000E-03 0.  1.
         12    1    3    3    0    0  0.65361974594E+00 -0.14976440025E+01 -0.35548602203E+01  0.39124400975E+01  0.00000000000E+00 0. -1.
</event>
<event>
 7    1  0.2642243E-009  0.4778722E+02  0.7816164E-02  0.1312668E+00
        -11   -1    0    0    0    0  0.00000000000E+00  0.00000000000E+00  0.45593999997E+02  0.45594000000E+02  0.51100000000E-03 0. -1.
         11   -1    0    0    0    0 -0.00000000000E+00 -0.00000000000E+00 -0.45593999997E+02  0.45594000000E+02  0.51100000000E-03 0.  1.
    9900012    2    1    2    0    0  0.41056914639E+02  0.45217030849E+01 -0.13323361136E+02  0.47787216708E+02  0.19999752255E+02 0.  0.
        -12    1    1    2    0    0 -0.41056914639E+02 -0.45217030849E+01  0.13323361136E+02  0.43400783292E+02  0.00000000000E+00 0.  1.
         11    1    3    3    0    0  0.11158606676E+02  0.21504879805E+01 -0.49999651927E+01  0.12415262933E+02  0.51100000000E-03 0. -1.
        -11    1    3    3    0    0  0.23808683865E+02  0.39897855769E+01  0.95119716997E+00  0.24159399675E+02  0.51100000000E-03 0.  1.
        -12    1    3    3    0    0  0.60896240973E+01 -0.16185704725E+01 -0.92745931132E+01  0.11212554100E+02  0.00000000000E+00 0.  1.
</event>
<event>
 7    1  0.2642243E-009  0.4778727E+02  0.7816164E-02  0.1312668E+00
        -11   -1    0    0    0    0  0.00000000000E+00  0.00000000000E+00  0.45593999997E+02  0.45594000000E+02  0.51100000000E-03 0.  1.
         11   -1    0    0    0    0 -0.00000000000E+00 -0.00000000000E+00 -0.45593999997E+02  0.45594000000E+02  0.51100000000E-03 0. -1.
    9900012    2    1    2    0    0 -0.39189514193E+02  0.18296953198E+02 -0.36092805464E+01  0.47787269302E+02  0.19999992057E+02 0.  0.
        -12    1    1    2    0    0  0.39189514193E+02 -0.18296953198E+02  0.36092805464E+01  0.43400730698E+02  0.00000000000E+00 0.  1.
         11    1    3    3    0    0 -0.51021473196E+01 -0.18985275610E+01  0.27347761782E+01  0.60922340055E+01  0.51100000000E-03 0. -1.
        -11    1    3    3    0    0 -0.11736759284E+02  0.10761801570E+02  0.19807167049E+01  0.16046530168E+02  0.51100000000E-03 0.  1.
         12    1    3    3    0    0 -0.22350607590E+02  0.94336791898E+01 -0.83247734296E+01  0.25648505129E+02  0.00000000000E+00 0. -1.
</event>
<event>
 7    1  0.2642243E-009  0.4778727E+02  0.7816164E-02  0.1312668E+00
        -11   -1    0    0    0    0  0.00000000000E+00  0.00000000000E+00  0.45593999997E+02  0.45594000000E+02  0.51100000000E-03 0.  1.
         11   -1    0    0    0    0 -0.00000000000E+00 -0.00000000000E+00 -0.45593999997E+02  0.45594000000E+02  0.51100000000E-03 0. -1.
    9900012    2    1    2    0    0  0.22243669053E+02 -0.36034537888E+02 -0.95054946047E+01  0.47787272340E+02  0.20000005906E+02 0.  0.
        -12    1    1    2    0    0 -0.22243669053E+02  0.36034537888E+02  0.95054946047E+01  0.43400727660E+02  0.00000000000E+00 0.  1.
         11    1    3    3    0    0  0.13494153699E+02 -0.34010575124E+02 -0.87937179187E+01  0.37631647312E+02  0.51100000000E-03 0. -1.
        -11    1    3    3    0    0  0.51109928780E+01  0.11805573792E+00  0.15807605167E+01  0.53511671090E+01  0.51100000000E-03 0.  1.
         12    1    3    3    0    0  0.36385224755E+01 -0.21420185025E+01 -0.22925372027E+01  0.48044579190E+01  0.00000000000E+00 0. -1.
</event>
<event>
 7    1  0.2642243E-009  0.4778729E+02  0.7816164E-02  0.1312668E+00
        -11   -1    0    0    0    0  0.00000000000E+00  0.00000000000E+00  0.45593999997E+02  0.45594000000E+02  0.51100000000E-03 0. -1.
         11   -1    0    0    0    0 -0.00000000000E+00 -0.00000000000E+00 -0.45593999997E+02  0.45594000000E+02  0.51100000000E-03 0.  1.
    9900012    2    1    2    0    0 -0.13898432307E+01 -0.39374512280E+02  0.18202677141E+02  0.47787293363E+02  0.20000101758E+02 0.  0.
        -12    1    1    2    0    0  0.13898432307E+01  0.39374512280E+02 -0.18202677141E+02  0.43400706637E+02  0.00000000000E+00 0.  1.
         11    1    3    3    0    0  0.34514716860E+01 -0.26327898270E+02  0.14206539262E+02  0.30114724673E+02  0.51100000000E-03 0. -1.
        -11    1    3    3    0    0  0.27941196216E+01 -0.63751813897E+01  0.26328640679E+01  0.74419094104E+01  0.51100000000E-03 0.  1.
         12    1    3    3    0    0 -0.76354345382E+01 -0.66714326209E+01  0.13632738112E+01  0.10230659279E+02  0.00000000000E+00 0. -1.
</event>
<event>
 7    1  0.2642243E-009  0.4778726E+02  0.7816164E-02  0.1312668E+00
        -11   -1    0    0    0    0  0.00000000000E+00  0.00000000000E+00  0.45593999997E+02  0.45594000000E+02  0.51100000000E-03 0.  1.
         11   -1    0    0    0    0 -0.00000000000E+00 -0.00000000000E+00 -0.45593999997E+02  0.45594000000E+02  0.51100000000E-03 0. -1.
    9900012    2    1    2    0    0 -0.35765419525E+02 -0.24554517816E+02  0.12388119858E+01  0.47787259982E+02  0.19999949563E+02 0.  0.
        -12    1    1    2    0    0  0.35765419525E+02  0.24554517816E+02 -0.12388119858E+01  0.43400740018E+02  0.00000000000E+00 0.  1.
         11    1    3    3    0    0 -0.19037175399E+02 -0.21809669041E+02  0.57277638014E+01  0.29510726682E+02  0.51100000000E-03 0. -1.
        -11    1    3    3    0    0 -0.54759898841E+01  0.14267172721E+01 -0.75819816417E+00  0.57093652977E+01  0.51100000000E-03 0.  1.
         12    1    3    3    0    0 -0.11252254242E+02 -0.41715660465E+01 -0.37307536514E+01  0.12567168003E+02  0.00000000000E+00 0. -1.
</event>
<event>
 7    1  0.2642243E-009  0.4778726E+02  0.7816164E-02  0.1312668E+00
        -11   -1    0    0    0    0  0.00000000000E+00  0.00000000000E+00  0.45593999997E+02  0.45594000000E+02  0.51100000000E-03 0.  1.
         11   -1    0    0    0    0 -0.00000000000E+00 -0.00000000000E+00 -0.45593999997E+02  0.45594000000E+02  0.51100000000E-03 0. -1.
    9900012    2    1    2    0    0 -0.31491120156E+01  0.42475698543E+02 -0.83379990767E+01  0.47787261507E+02  0.19999956513E+02 0.  0.
        -12    1    1    2    0    0  0.31491120156E+01 -0.42475698543E+02  0.83379990767E+01  0.43400738493E+02  0.00000000000E+00 0.  1.
         11    1    3    3    0    0  0.57716072521E+01  0.11273598086E+02 -0.65549964933E+01  0.14260906120E+02  0.51100000000E-03 0. -1.
        -11    1    3    3    0    0 -0.25309345886E+01  0.16393881359E+02  0.26541725907E+01  0.16799095461E+02  0.51100000000E-03 0.  1.
         12    1    3    3    0    0 -0.63897846791E+01  0.14808219098E+02 -0.44371751741E+01  0.16727259925E+02  0.00000000000E+00 0. -1.
</event>
<event>
 7    1  0.2642243E-009  0.4778727E+02  0.7816164E-02  0.1312668E+00
        -11   -1    0    0    0    0  0.00000000000E+00  0.00000000000E+00  0.45593999997E+02  0.45594000000E+02  0.51100000000E-03 0. -1.
         11   -1    0    0    0    0 -0.00000000000E+00 -0.00000000000E+00 -0.45593999997E+02  0.45594000000E+02  0.51100000000E-03 0.  1.
    9900012    2    1    2    0    0  0.21066028358E+02  0.30437820044E+02  0.22658000202E+02  0.47787269442E+02  0.19999992694E+02 0.  0.
        -12    1    1    2    0    0 -0.21066028358E+02 -0.30437820044E+02 -0.22658000202E+02  0.43400730558E+02  0.00000000000E+00 0.  1.
         11    1    3    3    0    0  0.67350787181E+01  0.52213405478E+01  0.53547640364E+00  0.85387597281E+01  0.51100000000E-03 0. -1.
        -11    1    3    3    0    0  0.14930969346E+02  0.16245666781E+02  0.20488513554E+02  0.30110375665E+02  0.51100000000E-03 0.  1.
        -12    1    3    3    0    0 -0.60001970627E+00  0.89708127151E+01  0.16340102443E+01  0.91381340489E+01  0.00000000000E+00 0.  1.
</event>
<event>
 7    1  0.2642243E-009  0.4778727E+02  0.7816164E-02  0.1312668E+00
        -11   -1    0    0    0    0  0.00000000000E+00  0.00000000000E+00  0.45593999997E+02  0.45594000000E+02  0.51100000000E-03 0.  1.
         11   -1    0    0    0    0 -0.00000000000E+00 -0.00000000000E+00 -0.45593999997E+02  0.45594000000E+02  0.51100000000E-03 0. -1.
    9900012    2    1    2    0    0 -0.11273989370E+02 -0.27839371154E+02 -0.31328740148E+02  0.47787269800E+02  0.19999994328E+02 0.  0.
        -12    1    1    2    0    0  0.11273989370E+02  0.27839371154E+02  0.31328740148E+02  0.43400730200E+02  0.00000000000E+00 0.  1.
         11    1    3    3    0    0 -0.75024536687E+01 -0.21544009665E+02 -0.23961537194E+02  0.33084534581E+02  0.51100000000E-03 0. -1.
        -11    1    3    3    0    0 -0.53250833686E+01  0.79330595748E+00 -0.39741949582E+01  0.66917914680E+01  0.51100000000E-03 0.  1.
        -12    1    3    3    0    0  0.15535476671E+01 -0.70886674467E+01 -0.33930079961E+01  0.80109437512E+01  0.00000000000E+00 0.  1.
</event>
<event>
 7    1  0.2642243E-009  0.4778727E+02  0.7816164E-02  0.1312668E+00
        -11   -1    0    0    0    0  0.00000000000E+00  0.00000000000E+00  0.45593999997E+02  0.45594000000E+02  0.51100000000E-03 0.  1.
         11   -1    0    0    0    0 -0.00000000000E+00 -0.00000000000E+00 -0.45593999997E+02  0.45594000000E+02  0.51100000000E-03 0. -1.
    9900012    2    1    2    0    0 -0.91841723354E+00 -0.23733764739E+02 -0.36324755866E+02  0.47787274573E+02  0.20000016086E+02 0.  0.
        -12    1    1    2    0    0  0.91841723354E+00  0.23733764739E+02  0.36324755866E+02  0.43400725427E+02  0.00000000000E+00 0.  1.
         11    1    3    3    0    0 -0.83241710146E+01 -0.18218949483E+02 -0.29208883510E+02  0.35417239016E+02  0.51100000000E-03 0. -1.
        -11    1    3    3    0    0  0.46011097109E+01 -0.56753288966E+01 -0.50028943253E+01  0.88548585843E+01  0.51100000000E-03 0.  1.
         12    1    3    3    0    0  0.28046440701E+01  0.16051364073E+00 -0.21129780309E+01  0.35151769725E+01  0.00000000000E+00 0. -1.
</event>
<event>
 7    1  0.2642243E-009  0.4778728E+02  0.7816164E-02  0.1312668E+00
        -11   -1    0    0    0    0  0.00000000000E+00  0.00000000000E+00  0.45593999997E+02  0.45594000000E+02  0.51100000000E-03 0. -1.
         11   -1    0    0    0    0 -0.00000000000E+00 -0.00000000000E+00 -0.45593999997E+02  0.45594000000E+02  0.51100000000E-03 0.  1.
    9900012    2    1    2    0    0  0.20746300006E+02  0.13461559393E+02  0.35665104125E+02  0.47787283445E+02  0.20000056540E+02 0.  0.
        -12    1    1    2    0    0 -0.20746300006E+02 -0.13461559393E+02 -0.35665104125E+02  0.43400716555E+02  0.00000000000E+00 0.  1.
         11    1    3    3    0    0  0.11656409285E+02  0.97272855191E+00  0.67617746351E+01  0.13510724434E+02  0.51100000000E-03 0. -1.
        -11    1    3    3    0    0  0.13370112030E+01  0.78526827604E+01  0.70792348384E+01  0.10656819021E+02  0.51100000000E-03 0.  1.
         12    1    3    3    0    0  0.77528795184E+01  0.46361480805E+01  0.21824094652E+02  0.23619739990E+02  0.00000000000E+00 0. -1.
</event>
<event>
 7    1  0.2642243E-009  0.4778727E+02  0.7816164E-02  0.1312668E+00
        -11   -1    0    0    0    0  0.00000000000E+00  0.00000000000E+00  0.45593999997E+02  0.45594000000E+02  0.51100000000E-03 0. -1.
         11   -1    0    0    0    0 -0.00000000000E+00 -0.00000000000E+00 -0.45593999997E+02  0.45594000000E+02  0.51100000000E-03 0.  1.
    9900012    2    1    2    0    0 -0.14383888595E+02 -0.40789786400E+02 -0.35944412926E+01  0.47787274961E+02  0.20000017857E+02 0.  0.
        -12    1    1    2    0    0  0.14383888595E+02  0.40789786400E+02  0.35944412926E+01  0.43400725039E+02  0.00000000000E+00 0.  1.
         11    1    3    3    0    0 -0.35065038281E+01 -0.86845741926E+01  0.55781013211E+01  0.10901037226E+02  0.51100000000E-03 0. -1.
        -11    1    3    3    0    0 -0.84246001643E+01 -0.98882410827E+01 -0.60040335127E+01  0.14310821721E+02  0.51100000000E-03 0.  1.
        -12    1    3    3    0    0 -0.24527846030E+01 -0.22216971125E+02 -0.31685091010E+01  0.22575416014E+02  0.00000000000E+00 0.  1.
</event>
<event>
 7    1  0.2642243E-009  0.4778728E+02  0.7816164E-02  0.1312668E+00
        -11   -1    0    0    0    0  0.00000000000E+00  0.00000000000E+00  0.45593999997E+02  0.45594000000E+02  0.51100000000E-03 0. -1.
         11   -1    0    0    0    0 -0.00000000000E+00 -0.00000000000E+00 -0.45593999997E+02  0.45594000000E+02  0.51100000000E-03 0.  1.
    9900012    2    1    2    0    0  0.31784567138E+02 -0.15921361934E+02  0.24897275160E+02  0.47787276684E+02  0.20000025714E+02 0.  0.
        -12    1    1    2    0    0 -0.31784567138E+02  0.15921361934E+02 -0.24897275160E+02  0.43400723316E+02  0.00000000000E+00 0.  1.
         11    1    3    3    0    0  0.23774557062E+02 -0.13911749693E+02  0.16772400754E+02  0.32250267756E+02  0.51100000000E-03 0. -1.
        -11    1    3    3    0    0  0.14461431415E+01  0.27816739661E+01 -0.10258393677E+01  0.32986946977E+01  0.51100000000E-03 0.  1.
         12    1    3    3    0    0  0.65638669340E+01 -0.47912862075E+01  0.91507137729E+01  0.12238314230E+02  0.00000000000E+00 0. -1.
</event>
<event>
 7    1  0.2642243E-009  0.4778726E+02  0.7816164E-02  0.1312668E+00
        -11   -1    0    0    0    0  0.00000000000E+00  0.00000000000E+00  0.45593999997E+02  0.45594000000E+02  0.51100000000E-03 0.  1.
         11   -1    0    0    0    0 -0.00000000000E+00 -0.00000000000E+00 -0.45593999997E+02  0.45594000000E+02  0.51100000000E-03 0. -1.
    9900012    2    1    2    0    0 -0.33822062285E+02 -0.26651770712E+02  0.54199026387E+01  0.47787261252E+02  0.19999955352E+02 0.  0.
        -12    1    1    2    0    0  0.33822062285E+02  0.26651770712E+02 -0.54199026387E+01  0.43400738748E+02  0.00000000000E+00 0.  1.
         11    1    3    3    0    0 -0.19586265666E+02 -0.21410306791E+02  0.10794310392E+02  0.30960300011E+02  0.51100000000E-03 0. -1.
        -11    1    3    3    0    0 -0.10880794441E+02 -0.26720195842E+01 -0.19168839733E+01  0.11366873833E+02  0.51100000000E-03 0.  1.
         12    1    3    3    0    0 -0.33550021784E+01 -0.25694443358E+01 -0.34575237801E+01  0.54600874079E+01  0.00000000000E+00 0. -1.
</event>
<event>
 7    1  0.2642243E-009  0.4778724E+02  0.7816164E-02  0.1312668E+00
        -11   -1    0    0    0    0  0.00000000000E+00  0.00000000000E+00  0.45593999997E+02  0.45594000000E+02  0.51100000000E-03 0.  1.
         11   -1    0    0    0    0 -0.00000000000E+00 -0.00000000000E+00 -0.45593999997E+02  0.45594000000E+02  0.51100000000E-03 0. -1.
    9900012    2    1    2    0    0 -0.28446425226E+02 -0.15988288287E+02 -0.28614706388E+02  0.47787240881E+02  0.19999862471E+02 0.  0.
        -12    1    1    2    0    0  0.28446425226E+02  0.15988288287E+02  0.28614706388E+02  0.43400759119E+02  0.00000000000E+00 0.  1.
         11    1    3    3    0    0 -0.18131887714E+02 -0.39706881476E+01 -0.12990375290E+02  0.22655718194E+02  0.51100000000E-03 0. -1.
        -11    1    3    3    0    0  0.13024288157E+01 -0.67428302222E+01 -0.64046336168E+01  0.93904958470E+01  0.51100000000E-03 0.  1.
        -12    1    3    3    0    0 -0.11616966328E+02 -0.52747699170E+01 -0.92196974808E+01  0.15741026840E+02  0.00000000000E+00 0.  1.
</event>
<event>
 7    1  0.2642243E-009  0.4778727E+02  0.7816164E-02  0.1312668E+00
        -11   -1    0    0    0    0  0.00000000000E+00  0.00000000000E+00  0.45593999997E+02  0.45594000000E+02  0.51100000000E-03 0.  1.
         11   -1    0    0    0    0 -0.00000000000E+00 -0.00000000000E+00 -0.45593999997E+02  0.45594000000E+02  0.51100000000E-03 0. -1.
    9900012    2    1    2    0    0  0.37341807068E+02 -0.48772899997E+01 -0.21573702565E+02  0.47787272411E+02  0.20000006232E+02 0.  0.
        -12    1    1    2    0    0 -0.37341807068E+02  0.48772899997E+01  0.21573702565E+02  0.43400727589E+02  0.00000000000E+00 0.  1.
         11    1    3    3    0    0  0.37933871391E+02 -0.63859267783E+01 -0.21787635319E+02  0.44209271794E+02  0.51100000000E-03 0. -1.
        -11    1    3    3    0    0 -0.17967439040E+00  0.23296020288E+01 -0.52996510887E+00  0.23958697329E+01  0.51100000000E-03 0.  1.
         12    1    3    3    0    0 -0.41238993222E+00 -0.82096525021E+00  0.74389786223E+00  0.11821308843E+01  0.00000000000E+00 0. -1.
</event>
<event>
 7    1  0.2642243E-009  0.4778727E+02  0.7816164E-02  0.1312668E+00
        -11   -1    0    0    0    0  0.00000000000E+00  0.00000000000E+00  0.45593999997E+02  0.45594000000E+02  0.51100000000E-03 0.  1.
         11   -1    0    0    0    0 -0.00000000000E+00 -0.00000000000E+00 -0.45593999997E+02  0.45594000000E+02  0.51100000000E-03 0. -1.
    9900012    2    1    2    0    0  0.35395370840E+02 -0.76718837449E+01 -0.23915126901E+02  0.47787269916E+02  0.19999994857E+02 0.  0.
        -12    1    1    2    0    0 -0.35395370840E+02  0.76718837449E+01  0.23915126901E+02  0.43400730084E+02  0.00000000000E+00 0.  1.
         11    1    3    3    0    0  0.24718958485E+02 -0.55269433465E+01 -0.79322254778E+01  0.26542309859E+02  0.51100000000E-03 0. -1.
        -11    1    3    3    0    0  0.55791371426E+01  0.30662213862E+01 -0.98006024044E+01  0.11686757146E+02  0.51100000000E-03 0.  1.
         12    1    3    3    0    0  0.50972752122E+01 -0.52111617846E+01 -0.61822990190E+01  0.95582029113E+01  0.00000000000E+00 0. -1.
</event>
<event>
 7    1  0.2707163E-009  0.4778727E+02  0.7816164E-02  0.1312668E+00
        -11   -1    0    0    0    0  0.00000000000E+00  0.00000000000E+00  0.45593999997E+02  0.45594000000E+02  0.51100000000E-03 0.  1.
         11   -1    0    0    0    0 -0.00000000000E+00 -0.00000000000E+00 -0.45593999997E+02  0.45594000000E+02  0.51100000000E-03 0. -1.
    9900012    2    1    2    0    0 -0.37203644874E+02 -0.15665459664E+02 -0.15940683262E+02  0.47787271881E+02  0.20000003813E+02 0.  0.
        -12    1    1    2    0    0  0.37203644874E+02  0.15665459664E+02  0.15940683262E+02  0.43400728119E+02  0.00000000000E+00 0.  1.
         11    1    3    3    0    0 -0.27222885856E+02 -0.12191932286E+02 -0.90437162629E+01  0.31169175980E+02  0.51100000000E-03 0. -1.
        -11    1    3    3    0    0  0.17716082890E+00 -0.23703597845E+01  0.19717521831E+01  0.30883326246E+01  0.51100000000E-03 0.  1.
        -12    1    3    3    0    0 -0.10157919847E+02 -0.11031675938E+01 -0.88687191824E+01  0.13529763276E+02  0.00000000000E+00 0.  1.
</event>
<event>
 7    1  0.2812422E-009  0.4778727E+02  0.7816164E-02  0.1312668E+00
        -11   -1    0    0    0    0  0.00000000000E+00  0.00000000000E+00  0.45593999997E+02  0.45594000000E+02  0.51100000000E-03 0. -1.
         11   -1    0    0    0    0 -0.00000000000E+00 -0.00000000000E+00 -0.45593999997E+02  0.45594000000E+02  0.51100000000E-03 0.  1.
    9900012    2    1    2    0    0  0.15216957680E+02  0.29049833943E+02  0.28428411542E+02  0.47787271481E+02  0.20000001991E+02 0.  0.
        -12    1    1    2    0    0 -0.15216957680E+02 -0.29049833943E+02 -0.28428411542E+02  0.43400728519E+02  0.00000000000E+00 0.  1.
         11    1    3    3    0    0  0.11084779138E+02  0.13869874051E+02  0.11169037591E+02  0.20976013341E+02  0.51100000000E-03 0. -1.
        -11    1    3    3    0    0 -0.11185040075E+01  0.15141636976E+02  0.11732731658E+02  0.19187944495E+02  0.51100000000E-03 0.  1.
        -12    1    3    3    0    0  0.52506825499E+01  0.38322915594E-01  0.55266422936E+01  0.76233136448E+01  0.00000000000E+00 0.  1.
</event>
<event>
 7    1  0.2642243E-009  0.4778727E+02  0.7816164E-02  0.1312668E+00
        -11   -1    0    0    0    0  0.00000000000E+00  0.00000000000E+00  0.45593999997E+02  0.45594000000E+02  0.51100000000E-03 0.  1.
         11   -1    0    0    0    0 -0.00000000000E+00 -0.00000000000E+00 -0.45593999997E+02  0.45594000000E+02  0.51100000000E-03 0. -1.
    9900012    2    1    2    0    0  0.16948980985E+02  0.39739137259E+02 -0.41420136277E+01  0.47787271165E+02  0.20000000549E+02 0.  0.
        -12    1    1    2    0    0 -0.16948980985E+02 -0.39739137259E+02  0.41420136277E+01  0.43400728835E+02  0.00000000000E+00 0.  1.
         11    1    3    3    0    0  0.11755713459E+02  0.10163102949E+02 -0.56633846794E+01  0.16539630793E+02  0.51100000000E-03 0. -1.
        -11    1    3    3    0    0  0.22655938622E+01  0.73837475892E+01 -0.32175995784E+01  0.83669344038E+01  0.51100000000E-03 0.  1.
         12    1    3    3    0    0  0.29276736645E+01  0.22192286720E+02  0.47389706302E+01  0.22880705968E+02  0.00000000000E+00 0. -1.
</event>
<event>
 7    1  0.2642243E-009  0.4778727E+02  0.7816164E-02  0.1312668E+00
        -11   -1    0    0    0    0  0.00000000000E+00  0.00000000000E+00  0.45593999997E+02  0.45594000000E+02  0.51100000000E-03 0.  1.
         11   -1    0    0    0    0 -0.00000000000E+00 -0.00000000000E+00 -0.45593999997E+02  0.45594000000E+02  0.51100000000E-03 0. -1.
    9900012    2    1    2    0    0 -0.39417518489E+02  0.15317564593E+02 -0.97598491752E+01  0.47787271840E+02  0.20000003626E+02 0.  0.
        -12    1    1    2    0    0  0.39417518489E+02 -0.15317564593E+02  0.97598491752E+01  0.43400728160E+02  0.00000000000E+00 0.  1.
         11    1    3    3    0    0 -0.32006133559E+02  0.10694884133E+02 -0.59400522434E+01  0.34264520323E+02  0.51100000000E-03 0. -1.
        -11    1    3    3    0    0  0.12511379318E+01  0.40379567666E+01 -0.63472125184E+00  0.42747295005E+01  0.51100000000E-03 0.  1.
        -12    1    3    3    0    0 -0.86625228618E+01  0.58472369267E+00 -0.31850756800E+01  0.92480220164E+01  0.00000000000E+00 0.  1.
</event>
<event>
 7    1  0.2642243E-009  0.4778727E+02  0.7816164E-02  0.1312668E+00
        -11   -1    0    0    0    0  0.00000000000E+00  0.00000000000E+00  0.45593999997E+02  0.45594000000E+02  0.51100000000E-03 0.  1.
         11   -1    0    0    0    0 -0.00000000000E+00 -0.00000000000E+00 -0.45593999997E+02  0.45594000000E+02  0.51100000000E-03 0. -1.
    9900012    2    1    2    0    0  0.22925071408E+02 -0.36851433960E+02 -0.19040055403E+00  0.47787270324E+02  0.19999996717E+02 0.  0.
        -12    1    1    2    0    0 -0.22925071408E+02  0.36851433960E+02  0.19040055403E+00  0.43400729676E+02  0.00000000000E+00 0.  1.
         11    1    3    3    0    0 -0.16267151946E+01 -0.10928397544E+02  0.30586504836E+01  0.11464354245E+02  0.51100000000E-03 0.  1.
        -11    1    3    3    0    0  0.19416904685E+02 -0.20181081171E+02 -0.11164123315E+00  0.28005440343E+02  0.51100000000E-03 0. -1.
        -12    1    3    3    0    0  0.51348819182E+01 -0.57419552456E+01 -0.31374098045E+01  0.83174757371E+01  0.00000000000E+00 0.  1.
</event>
<event>
 7    1  0.2642243E-009  0.4778727E+02  0.7816164E-02  0.1312668E+00
        -11   -1    0    0    0    0  0.00000000000E+00  0.00000000000E+00  0.45593999997E+02  0.45594000000E+02  0.51100000000E-03 0.  1.
         11   -1    0    0    0    0 -0.00000000000E+00 -0.00000000000E+00 -0.45593999997E+02  0.45594000000E+02  0.51100000000E-03 0. -1.
    9900012    2    1    2    0    0 -0.36910270330E+01  0.43222478346E+02  0.13478507565E+01  0.47787274008E+02  0.20000013513E+02 0.  0.
        -12    1    1    2    0    0  0.36910270330E+01 -0.43222478346E+02 -0.13478507565E+01  0.43400725992E+02  0.00000000000E+00 0.  1.
         11    1    3    3    0    0  0.71138803296E+01  0.15174604738E+02 -0.22665886511E+01  0.16911929123E+02  0.51100000000E-03 0.  1.
        -11    1    3    3    0    0 -0.12459419445E+01  0.11250774799E+02  0.84047769735E+00  0.11350713983E+02  0.51100000000E-03 0. -1.
         12    1    3    3    0    0 -0.95589654181E+01  0.16797098810E+02  0.27739617103E+01  0.19524630902E+02  0.00000000000E+00 0. -1.
</event>
<event>
 7    1  0.2642243E-009  0.4778727E+02  0.7816164E-02  0.1312668E+00
        -11   -1    0    0    0    0  0.00000000000E+00  0.00000000000E+00  0.45593999997E+02  0.45594000000E+02  0.51100000000E-03 0. -1.
         11   -1    0    0    0    0 -0.00000000000E+00 -0.00000000000E+00 -0.45593999997E+02  0.45594000000E+02  0.51100000000E-03 0.  1.
    9900012    2    1    2    0    0  0.57274026599E+01 -0.10980305805E+02  0.41596308338E+02  0.47787272769E+02  0.20000007863E+02 0.  0.
        -12    1    1    2    0    0 -0.57274026599E+01  0.10980305805E+02 -0.41596308338E+02  0.43400727231E+02  0.00000000000E+00 0.  1.
         11    1    3    3    0    0  0.20534463053E+01 -0.56054670316E+01  0.13325912617E+01  0.61166741047E+01  0.51100000000E-03 0.  1.
        -11    1    3    3    0    0  0.36317104043E+00 -0.70209045172E+01  0.27176775964E+02  0.28071375911E+02  0.51100000000E-03 0. -1.
         12    1    3    3    0    0  0.33107853142E+01  0.16460657437E+01  0.13086941112E+02  0.13599222754E+02  0.00000000000E+00 0. -1.
</event>
<event>
 7    1  0.2642243E-009  0.4778727E+02  0.7816164E-02  0.1312668E+00
        -11   -1    0    0    0    0  0.00000000000E+00  0.00000000000E+00  0.45593999997E+02  0.45594000000E+02  0.51100000000E-03 0.  1.
         11   -1    0    0    0    0 -0.00000000000E+00 -0.00000000000E+00 -0.45593999997E+02  0.45594000000E+02  0.51100000000E-03 0. -1.
    9900012    2    1    2    0    0 -0.80851295555E+01 -0.34568007502E+02 -0.24966113709E+02  0.47787270786E+02  0.19999998821E+02 0.  0.
        -12    1    1    2    0    0  0.80851295555E+01  0.34568007502E+02  0.24966113709E+02  0.43400729214E+02  0.00000000000E+00 0.  1.
         11    1    3    3    0    0 -0.44567901091E+01 -0.92317381895E+01 -0.14739047229E+02  0.17953481043E+02  0.51100000000E-03 0. -1.
        -11    1    3    3    0    0 -0.33578322896E+01 -0.15774778678E+01 -0.35932182251E+01  0.51647547456E+01  0.51100000000E-03 0.  1.
         12    1    3    3    0    0 -0.27050715681E+00 -0.23758791445E+02 -0.66338482551E+01  0.24669034998E+02  0.00000000000E+00 0. -1.
</event>
<event>
 7    1  0.2642243E-009  0.4778727E+02  0.7816164E-02  0.1312668E+00
        -11   -1    0    0    0    0  0.00000000000E+00  0.00000000000E+00  0.45593999997E+02  0.45594000000E+02  0.51100000000E-03 0.  1.
         11   -1    0    0    0    0 -0.00000000000E+00 -0.00000000000E+00 -0.45593999997E+02  0.45594000000E+02  0.51100000000E-03 0. -1.
    9900012    2    1    2    0    0  0.21755599155E+02  0.28954319617E+02 -0.23915783233E+02  0.47787269514E+02  0.19999993023E+02 0.  0.
        -12    1    1    2    0    0 -0.21755599155E+02 -0.28954319617E+02  0.23915783233E+02  0.43400730486E+02  0.00000000000E+00 0.  1.
         11    1    3    3    0    0  0.87702767491E+01  0.11784024168E+02 -0.16107991021E+02  0.21800191624E+02  0.51100000000E-03 0. -1.
        -11    1    3    3    0    0  0.11756561265E+02  0.12865813028E+02 -0.52216715022E+00  0.17436127336E+02  0.51100000000E-03 0.  1.
        -12    1    3    3    0    0  0.12287611402E+01  0.43044824206E+01 -0.72856250620E+01  0.85509505549E+01  0.00000000000E+00 0.  1.
</event>
<event>
 7    1  0.2642243E-009  0.4778726E+02  0.7816164E-02  0.1312668E+00
        -11   -1    0    0    0    0  0.00000000000E+00  0.00000000000E+00  0.45593999997E+02  0.45594000000E+02  0.51100000000E-03 0. -1.
         11   -1    0    0    0    0 -0.00000000000E+00 -0.00000000000E+00 -0.45593999997E+02  0.45594000000E+02  0.51100000000E-03 0.  1.
    9900012    2    1    2    0    0  0.38148567563E+02  0.15761139321E+02  0.13412588450E+02  0.47787259813E+02  0.19999948791E+02 0.  0.
        -12    1    1    2    0    0 -0.38148567563E+02 -0.15761139321E+02 -0.13412588450E+02  0.43400740187E+02  0.00000000000E+00 0.  1.
         11    1    3    3    0    0  0.45349987292E+01  0.89124309587E+01  0.81180914650E+01  0.12880258086E+02  0.51100000000E-03 0. -1.
        -11    1    3    3    0    0  0.31438438418E+02  0.57154665179E+01  0.42269872752E+01  0.32232117358E+02  0.51100000000E-03 0.  1.
        -12    1    3    3    0    0  0.21751304160E+01  0.11332418447E+01  0.10675097101E+01  0.26748843688E+01  0.00000000000E+00 0.  1.
</event>
<event>
 7    1  0.2642243E-009  0.4778727E+02  0.7816164E-02  0.1312668E+00
        -11   -1    0    0    0    0  0.00000000000E+00  0.00000000000E+00  0.45593999997E+02  0.45594000000E+02  0.51100000000E-03 0. -1.
         11   -1    0    0    0    0 -0.00000000000E+00 -0.00000000000E+00 -0.45593999997E+02  0.45594000000E+02  0.51100000000E-03 0.  1.
    9900012    2    1    2    0    0 -0.32440148896E+02  0.23661354781E+02  0.16474232753E+02  0.47787270568E+02  0.19999997827E+02 0.  0.
        -12    1    1    2    0    0  0.32440148896E+02 -0.23661354781E+02 -0.16474232753E+02  0.43400729432E+02  0.00000000000E+00 0.  1.
         11    1    3    3    0    0 -0.27539376032E+02  0.20171043651E+02  0.14987268353E+02  0.37281449102E+02  0.51100000000E-03 0. -1.
        -11    1    3    3    0    0 -0.84411218251E+00  0.40622165834E+01 -0.24546771641E+01  0.48207436344E+01  0.51100000000E-03 0.  1.
        -12    1    3    3    0    0 -0.40566606816E+01 -0.57190545349E+00  0.39416415637E+01  0.56850778315E+01  0.00000000000E+00 0.  1.
</event>
<event>
 7    1  0.2642243E-009  0.4778726E+02  0.7816164E-02  0.1312668E+00
        -11   -1    0    0    0    0  0.00000000000E+00  0.00000000000E+00  0.45593999997E+02  0.45594000000E+02  0.51100000000E-03 0. -1.
         11   -1    0    0    0    0 -0.00000000000E+00 -0.00000000000E+00 -0.45593999997E+02  0.45594000000E+02  0.51100000000E-03 0.  1.
    9900012    2    1    2    0    0  0.28639249604E+02  0.29111593884E+02  0.14694644076E+02  0.47787261747E+02  0.19999957609E+02 0.  0.
        -12    1    1    2    0    0 -0.28639249604E+02 -0.29111593884E+02 -0.14694644076E+02  0.43400738253E+02  0.00000000000E+00 0.  1.
         11    1    3    3    0    0 -0.21287216968E+01  0.68625012084E+00  0.20158941798E-01  0.22366944214E+01  0.51100000000E-03 0. -1.
        -11    1    3    3    0    0  0.18742369521E+02  0.12286655393E+02  0.39871320970E+01  0.22762590772E+02  0.51100000000E-03 0.  1.
         12    1    3    3    0    0  0.12025601780E+02  0.16138688370E+02  0.10687353037E+02  0.22787976554E+02  0.00000000000E+00 0. -1.
</event>
<event>
 7    1  0.2642243E-009  0.4778727E+02  0.7816164E-02  0.1312668E+00
        -11   -1    0    0    0    0  0.00000000000E+00  0.00000000000E+00  0.45593999997E+02  0.45594000000E+02  0.51100000000E-03 0.  1.
         11   -1    0    0    0    0 -0.00000000000E+00 -0.00000000000E+00 -0.45593999997E+02  0.45594000000E+02  0.51100000000E-03 0. -1.
    9900012    2    1    2    0    0  0.13122757180E+02 -0.99182785351E+01 -0.40162722708E+02  0.47787270738E+02  0.19999998605E+02 0.  0.
        -12    1    1    2    0    0 -0.13122757180E+02  0.99182785351E+01  0.40162722708E+02  0.43400729262E+02  0.00000000000E+00 0.  1.
         11    1    3    3    0    0  0.47793236231E+01 -0.43072971000E+01 -0.12043861937E+02  0.13654645847E+02  0.51100000000E-03 0. -1.
        -11    1    3    3    0    0  0.19161410444E+01 -0.62310055499E+01 -0.14302953926E+01  0.66740371467E+01  0.51100000000E-03 0.  1.
        -12    1    3    3    0    0  0.64272925130E+01  0.62002411477E+00 -0.26688565379E+02  0.27458587744E+02  0.00000000000E+00 0.  1.
</event>
<event>
 7    1  0.2642243E-009  0.4778727E+02  0.7816164E-02  0.1312668E+00
        -11   -1    0    0    0    0  0.00000000000E+00  0.00000000000E+00  0.45593999997E+02  0.45594000000E+02  0.51100000000E-03 0. -1.
         11   -1    0    0    0    0 -0.00000000000E+00 -0.00000000000E+00 -0.45593999997E+02  0.45594000000E+02  0.51100000000E-03 0.  1.
    9900012    2    1    2    0    0  0.39793503553E+02  0.13168608521E+02  0.11255569675E+02  0.47787273922E+02  0.20000013121E+02 0.  0.
        -12    1    1    2    0    0 -0.39793503553E+02 -0.13168608521E+02 -0.11255569675E+02  0.43400726078E+02  0.00000000000E+00 0.  1.
         11    1    3    3    0    0 -0.65082735638E+00  0.42013802655E+00 -0.16738924810E+01  0.18444534443E+01  0.51100000000E-03 0. -1.
        -11    1    3    3    0    0  0.27718820858E+02  0.39307202383E+01  0.11919589970E+02  0.30427951240E+02  0.51100000000E-03 0.  1.
         12    1    3    3    0    0  0.12725510051E+02  0.88177502559E+01  0.10098721858E+01  0.15514869238E+02  0.00000000000E+00 0. -1.
</event>
<event>
 7    1  0.2642243E-009  0.4778727E+02  0.7816164E-02  0.1312668E+00
        -11   -1    0    0    0    0  0.00000000000E+00  0.00000000000E+00  0.45593999997E+02  0.45594000000E+02  0.51100000000E-03 0. -1.
         11   -1    0    0    0    0 -0.00000000000E+00 -0.00000000000E+00 -0.45593999997E+02  0.45594000000E+02  0.51100000000E-03 0.  1.
    9900012    2    1    2    0    0 -0.15537714288E+00 -0.42224657114E+02  0.10033835595E+02  0.47787266514E+02  0.19999979343E+02 0.  0.
        -12    1    1    2    0    0  0.15537714288E+00  0.42224657114E+02 -0.10033835595E+02  0.43400733486E+02  0.00000000000E+00 0.  1.
         11    1    3    3    0    0 -0.29213136084E+01 -0.24099899960E+02 -0.21885200799E+00  0.24277296961E+02  0.51100000000E-03 0. -1.
        -11    1    3    3    0    0  0.16141032671E+01 -0.17675502637E+02  0.11959590327E+02  0.21402348560E+02  0.51100000000E-03 0.  1.
        -12    1    3    3    0    0  0.11518331984E+01 -0.44925451646E+00 -0.17069027245E+01  0.21076209926E+01  0.00000000000E+00 0.  1.
</event>
<event>
 7    1  0.2642243E-009  0.4778730E+02  0.7816164E-02  0.1312668E+00
        -11   -1    0    0    0    0  0.00000000000E+00  0.00000000000E+00  0.45593999997E+02  0.45594000000E+02  0.51100000000E-03 0.  1.
         11   -1    0    0    0    0 -0.00000000000E+00 -0.00000000000E+00 -0.45593999997E+02  0.45594000000E+02  0.51100000000E-03 0. -1.
    9900012    2    1    2    0    0  0.39631423291E+02 -0.17690899131E+02 -0.52880063912E-01  0.47787303917E+02  0.20000149881E+02 0.  0.
        -12    1    1    2    0    0 -0.39631423291E+02  0.17690899131E+02  0.52880063912E-01  0.43400696083E+02  0.00000000000E+00 0.  1.
         11    1    3    3    0    0  0.31158113811E+02 -0.16357623777E+02  0.12560525115E+01  0.35213315380E+02  0.51100000000E-03 0. -1.
        -11    1    3    3    0    0  0.80069021770E+01  0.86690278322E+00  0.22516823357E+01  0.83625400752E+01  0.51100000000E-03 0.  1.
         12    1    3    3    0    0  0.46640730376E+00 -0.22001781372E+01 -0.35606149111E+01  0.42114484627E+01  0.00000000000E+00 0. -1.
</event>
<event>
 7    1  0.2642243E-009  0.4778726E+02  0.7816164E-02  0.1312668E+00
        -11   -1    0    0    0    0  0.00000000000E+00  0.00000000000E+00  0.45593999997E+02  0.45594000000E+02  0.51100000000E-03 0.  1.
         11   -1    0    0    0    0 -0.00000000000E+00 -0.00000000000E+00 -0.45593999997E+02  0.45594000000E+02  0.51100000000E-03 0. -1.
    9900012    2    1    2    0    0  0.21278282872E+02  0.27776301816E+02 -0.25677537368E+02  0.47787260492E+02  0.19999951887E+02 0.  0.
        -12    1    1    2    0    0 -0.21278282872E+02 -0.27776301816E+02  0.25677537368E+02  0.43400739508E+02  0.00000000000E+00 0.  1.
         11    1    3    3    0    0  0.15597455417E+01 -0.14445412705E+01 -0.45945876095E+01  0.50625824635E+01  0.51100000000E-03 0. -1.
        -11    1    3    3    0    0  0.18671447128E+02  0.30311441418E+02 -0.19766840438E+02  0.40720196461E+02  0.51100000000E-03 0.  1.
        -12    1    3    3    0    0  0.10470902027E+01 -0.10905983308E+01 -0.13161093200E+01  0.20044815674E+01  0.00000000000E+00 0.  1.
</event>
<event>
 7    1  0.2642243E-009  0.4778727E+02  0.7816164E-02  0.1312668E+00
        -11   -1    0    0    0    0  0.00000000000E+00  0.00000000000E+00  0.45593999997E+02  0.45594000000E+02  0.51100000000E-03 0.  1.
         11   -1    0    0    0    0 -0.00000000000E+00 -0.00000000000E+00 -0.45593999997E+02  0.45594000000E+02  0.51100000000E-03 0. -1.
    9900012    2    1    2    0    0 -0.21029003839E+02 -0.12803138428E+02 -0.35741906771E+02  0.47787271254E+02  0.20000000956E+02 0.  0.
        -12    1    1    2    0    0  0.21029003839E+02  0.12803138428E+02  0.35741906771E+02  0.43400728746E+02  0.00000000000E+00 0.  1.
         11    1    3    3    0    0 -0.11498323749E+02 -0.14044665708E+01 -0.15139149962E+02  0.19062471960E+02  0.51100000000E-03 0. -1.
        -11    1    3    3    0    0 -0.85138940072E+01 -0.14455495676E+02 -0.16821789121E+02  0.23757532193E+02  0.51100000000E-03 0.  1.
        -12    1    3    3    0    0 -0.10167860824E+01  0.30568238192E+01 -0.37809676874E+01  0.49672671010E+01  0.00000000000E+00 0.  1.
</event>
<event>
 7    1  0.2642243E-009  0.4778727E+02  0.7816164E-02  0.1312668E+00
        -11   -1    0    0    0    0  0.00000000000E+00  0.00000000000E+00  0.45593999997E+02  0.45594000000E+02  0.51100000000E-03 0. -1.
         11   -1    0    0    0    0 -0.00000000000E+00 -0.00000000000E+00 -0.45593999997E+02  0.45594000000E+02  0.51100000000E-03 0.  1.
    9900012    2    1    2    0    0 -0.24178485187E+02  0.34439900480E+02  0.10626273041E+02  0.47787267636E+02  0.19999984460E+02 0.  0.
        -12    1    1    2    0    0  0.24178485187E+02 -0.34439900480E+02 -0.10626273041E+02  0.43400732364E+02  0.00000000000E+00 0.  1.
         11    1    3    3    0    0 -0.23641534414E+02  0.27887910870E+02  0.98582597360E+01  0.37866119519E+02  0.51100000000E-03 0. -1.
        -11    1    3    3    0    0  0.23303154986E+01  0.13820280313E+01 -0.20252888386E+01  0.33826272250E+01  0.51100000000E-03 0.  1.
        -12    1    3    3    0    0 -0.28672662711E+01  0.51699615789E+01  0.27933021434E+01  0.65385208924E+01  0.00000000000E+00 0.  1.
</event>
<event>
 7    1  0.2642243E-009  0.4778727E+02  0.7816164E-02  0.1312668E+00
        -11   -1    0    0    0    0  0.00000000000E+00  0.00000000000E+00  0.45593999997E+02  0.45594000000E+02  0.51100000000E-03 0.  1.
         11   -1    0    0    0    0 -0.00000000000E+00 -0.00000000000E+00 -0.45593999997E+02  0.45594000000E+02  0.51100000000E-03 0. -1.
    9900012    2    1    2    0    0  0.16837695064E+02 -0.21304518365E+02 -0.33856059754E+02  0.47787271205E+02  0.20000000732E+02 0.  0.
        -12    1    1    2    0    0 -0.16837695064E+02  0.21304518365E+02  0.33856059754E+02  0.43400728795E+02  0.00000000000E+00 0.  1.
         11    1    3    3    0    0  0.18502261490E+02 -0.22794038902E+02 -0.25445126686E+02  0.38850435803E+02  0.51100000000E-03 0. -1.
        -11    1    3    3    0    0  0.42975583867E+00  0.15423455726E+00 -0.22155748598E+01  0.22621340809E+01  0.51100000000E-03 0.  1.
         12    1    3    3    0    0 -0.20943222650E+01  0.13352859797E+01 -0.61953582083E+01  0.66747013211E+01  0.00000000000E+00 0. -1.
</event>
<event>
 7    1  0.2642243E-009  0.4778727E+02  0.7816164E-02  0.1312668E+00
        -11   -1    0    0    0    0  0.00000000000E+00  0.00000000000E+00  0.45593999997E+02  0.45594000000E+02  0.51100000000E-03 0.  1.
         11   -1    0    0    0    0 -0.00000000000E+00 -0.00000000000E+00 -0.45593999997E+02  0.45594000000E+02  0.51100000000E-03 0. -1.
    9900012    2    1    2    0    0 -0.21144505748E+02  0.29205796015E+02 -0.24156869934E+02  0.47787274094E+02  0.20000013903E+02 0.  0.
        -12    1    1    2    0    0  0.21144505748E+02 -0.29205796015E+02  0.24156869934E+02  0.43400725906E+02  0.00000000000E+00 0.  1.
         11    1    3    3    0    0 -0.16230221982E+02  0.25021547227E+02 -0.20083639374E+02  0.35956230364E+02  0.51100000000E-03 0. -1.
        -11    1    3    3    0    0 -0.20755068050E+01 -0.13639024106E+01  0.19547705477E+01  0.31605516035E+01  0.51100000000E-03 0.  1.
        -12    1    3    3    0    0 -0.28387769603E+01  0.55481511987E+01 -0.60280011076E+01  0.86704921260E+01  0.00000000000E+00 0.  1.
</event>
<event>
 7    1  0.2642243E-009  0.4778727E+02  0.7816164E-02  0.1312668E+00
        -11   -1    0    0    0    0  0.00000000000E+00  0.00000000000E+00  0.45593999997E+02  0.45594000000E+02  0.51100000000E-03 0. -1.
         11   -1    0    0    0    0 -0.00000000000E+00 -0.00000000000E+00 -0.45593999997E+02  0.45594000000E+02  0.51100000000E-03 0.  1.
    9900012    2    1    2    0    0 -0.10658551541E+02  0.35089376296E+02  0.23211077587E+02  0.47787272212E+02  0.20000005324E+02 0.  0.
        -12    1    1    2    0    0  0.10658551541E+02 -0.35089376296E+02 -0.23211077587E+02  0.43400727788E+02  0.00000000000E+00 0.  1.
         11    1    3    3    0    0  0.24527521504E+01  0.44199521866E+01 -0.13394899514E+01  0.52293598111E+01  0.51100000000E-03 0. -1.
        -11    1    3    3    0    0  0.46731659227E+00  0.79650221989E+01  0.33389688488E+01  0.86492009262E+01  0.51100000000E-03 0.  1.
         12    1    3    3    0    0 -0.13578620284E+02  0.22704401910E+02  0.21211598690E+02  0.33908711475E+02  0.00000000000E+00 0. -1.
</event>
<event>
 7    1  0.2642243E-009  0.4778727E+02  0.7816164E-02  0.1312668E+00
        -11   -1    0    0    0    0  0.00000000000E+00  0.00000000000E+00  0.45593999997E+02  0.45594000000E+02  0.51100000000E-03 0.  1.
         11   -1    0    0    0    0 -0.00000000000E+00 -0.00000000000E+00 -0.45593999997E+02  0.45594000000E+02  0.51100000000E-03 0. -1.
    9900012    2    1    2    0    0  0.90535793199E+01 -0.38277303293E+02 -0.18344052715E+02  0.47787268256E+02  0.19999987288E+02 0.  0.
        -12    1    1    2    0    0 -0.90535793199E+01  0.38277303293E+02  0.18344052715E+02  0.43400731744E+02  0.00000000000E+00 0.  1.
         11    1    3    3    0    0  0.38549539827E+00 -0.16818891003E+02 -0.58924071871E+01  0.17825379771E+02  0.51100000000E-03 0. -1.
        -11    1    3    3    0    0  0.12105231097E+02 -0.20279617795E+02 -0.10726519617E+02  0.25939501560E+02  0.51100000000E-03 0.  1.
        -12    1    3    3    0    0 -0.34371471753E+01 -0.11787944947E+01 -0.17251259116E+01  0.40223869252E+01  0.00000000000E+00 0.  1.
</event>
<event>
 7    1  0.2642243E-009  0.4778727E+02  0.7816164E-02  0.1312668E+00
        -11   -1    0    0    0    0  0.00000000000E+00  0.00000000000E+00  0.45593999997E+02  0.45594000000E+02  0.51100000000E-03 0.  1.
         11   -1    0    0    0    0 -0.00000000000E+00 -0.00000000000E+00 -0.45593999997E+02  0.45594000000E+02  0.51100000000E-03 0. -1.
    9900012    2    1    2    0    0  0.39427064250E+01  0.22134068059E+02 -0.37123595223E+02  0.47787271606E+02  0.20000002562E+02 0.  0.
        -12    1    1    2    0    0 -0.39427064250E+01 -0.22134068059E+02  0.37123595223E+02  0.43400728394E+02  0.00000000000E+00 0.  1.
         11    1    3    3    0    0  0.35600005352E+01  0.22606326686E+02 -0.19306593334E+02  0.29941011280E+02  0.51100000000E-03 0. -1.
        -11    1    3    3    0    0  0.39117550858E+00 -0.61262683387E+00 -0.93918893811E+01  0.94199743271E+01  0.51100000000E-03 0.  1.
         12    1    3    3    0    0 -0.84696187804E-02  0.14036820717E+00 -0.84251125086E+01  0.84262859998E+01  0.00000000000E+00 0. -1.
</event>
<event>
 7    1  0.2642243E-009  0.4778727E+02  0.7816164E-02  0.1312668E+00
        -11   -1    0    0    0    0  0.00000000000E+00  0.00000000000E+00  0.45593999997E+02  0.45594000000E+02  0.51100000000E-03 0.  1.
         11   -1    0    0    0    0 -0.00000000000E+00 -0.00000000000E+00 -0.45593999997E+02  0.45594000000E+02  0.51100000000E-03 0. -1.
    9900012    2    1    2    0    0 -0.29946459608E+01  0.59079913956E+00 -0.43293258169E+02  0.47787272461E+02  0.20000006458E+02 0.  0.
        -12    1    1    2    0    0  0.29946459608E+01 -0.59079913956E+00  0.43293258169E+02  0.43400727539E+02  0.00000000000E+00 0.  1.
         11    1    3    3    0    0 -0.46199866613E+01 -0.78309671556E+00 -0.41505671853E+02  0.41769346577E+02  0.51100000000E-03 0. -1.
        -11    1    3    3    0    0  0.26714622073E+01 -0.11216102162E+01 -0.15896270185E+01  0.33047895729E+01  0.51100000000E-03 0.  1.
         12    1    3    3    0    0 -0.10461215069E+01  0.24955060713E+01 -0.19795929702E+00  0.27131363111E+01  0.00000000000E+00 0. -1.
</event>
<event>
 7    1  0.2642243E-009  0.4778727E+02  0.7816164E-02  0.1312668E+00
        -11   -1    0    0    0    0  0.00000000000E+00  0.00000000000E+00  0.45593999997E+02  0.45594000000E+02  0.51100000000E-03 0.  1.
         11   -1    0    0    0    0 -0.00000000000E+00 -0.00000000000E+00 -0.45593999997E+02  0.45594000000E+02  0.51100000000E-03 0. -1.
    9900012    2    1    2    0    0  0.10905558431E+02 -0.40615480147E+02  0.10727278459E+02  0.47787274944E+02  0.20000017780E+02 0.  0.
        -12    1    1    2    0    0 -0.10905558431E+02  0.40615480147E+02 -0.10727278459E+02  0.43400725056E+02  0.00000000000E+00 0.  1.
         11    1    3    3    0    0 -0.25822346361E+01 -0.13175447364E+02  0.46267778151E+01  0.14200965536E+02  0.51100000000E-03 0. -1.
        -11    1    3    3    0    0  0.83842120014E+01 -0.51222204958E+01 -0.24891173075E+00  0.98282303088E+01  0.51100000000E-03 0.  1.
        -12    1    3    3    0    0  0.51035810654E+01 -0.22317812287E+02  0.63494123751E+01  0.23758079099E+02  0.00000000000E+00 0.  1.
</event>
<event>
 7    1  0.2642243E-009  0.4778727E+02  0.7816164E-02  0.1312668E+00
        -11   -1    0    0    0    0  0.00000000000E+00  0.00000000000E+00  0.45593999997E+02  0.45594000000E+02  0.51100000000E-03 0. -1.
         11   -1    0    0    0    0 -0.00000000000E+00 -0.00000000000E+00 -0.45593999997E+02  0.45594000000E+02  0.51100000000E-03 0.  1.
    9900012    2    1    2    0    0 -0.20094673949E+02  0.21831099345E+02  0.31673816847E+02  0.47787268516E+02  0.19999988471E+02 0.  0.
        -12    1    1    2    0    0  0.20094673949E+02 -0.21831099345E+02 -0.31673816847E+02  0.43400731484E+02  0.00000000000E+00 0.  1.
         11    1    3    3    0    0 -0.69718618876E+01  0.12238254661E+02  0.10738348772E+02  0.17711405081E+02  0.51100000000E-03 0. -1.
        -11    1    3    3    0    0 -0.11264342654E+02  0.66899945398E+01  0.22695667339E+02  0.26205624560E+02  0.51100000000E-03 0.  1.
        -12    1    3    3    0    0 -0.18584694078E+01  0.29028501445E+01 -0.17601992643E+01  0.38702388752E+01  0.00000000000E+00 0.  1.
</event>
<event>
 7    1  0.2642243E-009  0.4778727E+02  0.7816164E-02  0.1312668E+00
        -11   -1    0    0    0    0  0.00000000000E+00  0.00000000000E+00  0.45593999997E+02  0.45594000000E+02  0.51100000000E-03 0.  1.
         11   -1    0    0    0    0 -0.00000000000E+00 -0.00000000000E+00 -0.45593999997E+02  0.45594000000E+02  0.51100000000E-03 0. -1.
    9900012    2    1    2    0    0  0.55230506942E+01  0.37326918650E+02 -0.21443427732E+02  0.47787268004E+02  0.19999986140E+02 0.  0.
        -12    1    1    2    0    0 -0.55230506942E+01 -0.37326918650E+02  0.21443427732E+02  0.43400731996E+02  0.00000000000E+00 0.  1.
         11    1    3    3    0    0 -0.38716230429E+01  0.30346791516E+02 -0.17311108972E+02  0.35150984544E+02  0.51100000000E-03 0. -1.
        -11    1    3    3    0    0  0.57732749689E+01  0.28318080655E+01 -0.20533263866E+01  0.67502585356E+01  0.51100000000E-03 0.  1.
         12    1    3    3    0    0  0.36213987683E+01  0.41483190681E+01 -0.20789923736E+01  0.58860249251E+01  0.00000000000E+00 0. -1.
</event>
<event>
 7    1  0.2642243E-009  0.4778727E+02  0.7816164E-02  0.1312668E+00
        -11   -1    0    0    0    0  0.00000000000E+00  0.00000000000E+00  0.45593999997E+02  0.45594000000E+02  0.51100000000E-03 0. -1.
         11   -1    0    0    0    0 -0.00000000000E+00 -0.00000000000E+00 -0.45593999997E+02  0.45594000000E+02  0.51100000000E-03 0.  1.
    9900012    2    1    2    0    0  0.21672808742E+02 -0.31112975826E+02  0.21116239496E+02  0.47787268739E+02  0.19999989490E+02 0.  0.
        -12    1    1    2    0    0 -0.21672808742E+02  0.31112975826E+02 -0.21116239496E+02  0.43400731261E+02  0.00000000000E+00 0.  1.
         11    1    3    3    0    0  0.14921040841E+02 -0.26294391775E+02  0.91894838095E+01  0.31598720093E+02  0.51100000000E-03 0. -1.
        -11    1    3    3    0    0  0.49043639528E+01  0.50690646290E+00  0.34848421490E+01  0.60377036205E+01  0.51100000000E-03 0.  1.
         12    1    3    3    0    0  0.18474039490E+01 -0.53254905141E+01  0.84419135372E+01  0.10150845026E+02  0.00000000000E+00 0. -1.
</event>
<event>
 7    1  0.2642243E-009  0.4778727E+02  0.7816164E-02  0.1312668E+00
        -11   -1    0    0    0    0  0.00000000000E+00  0.00000000000E+00  0.45593999997E+02  0.45594000000E+02  0.51100000000E-03 0. -1.
         11   -1    0    0    0    0 -0.00000000000E+00 -0.00000000000E+00 -0.45593999997E+02  0.45594000000E+02  0.51100000000E-03 0.  1.
    9900012    2    1    2    0    0 -0.22568913183E+02 -0.33117318648E+02  0.16658646795E+02  0.47787272475E+02  0.20000006521E+02 0.  0.
        -12    1    1    2    0    0  0.22568913183E+02  0.33117318648E+02 -0.16658646795E+02  0.43400727525E+02  0.00000000000E+00 0.  1.
         11    1    3    3    0    0 -0.20267486804E+02 -0.19724017580E+02  0.14487640259E+02  0.31775770823E+02  0.51100000000E-03 0. -1.
        -11    1    3    3    0    0 -0.23484868415E+01 -0.14323652595E+02  0.10483802982E+01  0.14552715060E+02  0.51100000000E-03 0.  1.
         12    1    3    3    0    0  0.47060462397E-01  0.93035152715E+00  0.11226262378E+01  0.14587865920E+01  0.00000000000E+00 0. -1.
</event>
<event>
 7    1  0.2642243E-009  0.4778728E+02  0.7816164E-02  0.1312668E+00
        -11   -1    0    0    0    0  0.00000000000E+00  0.00000000000E+00  0.45593999997E+02  0.45594000000E+02  0.51100000000E-03 0.  1.
         11   -1    0    0    0    0 -0.00000000000E+00 -0.00000000000E+00 -0.45593999997E+02  0.45594000000E+02  0.51100000000E-03 0. -1.
    9900012    2    1    2    0    0  0.38480820731E+02  0.13072869910E+02 -0.15229885706E+02  0.47787275231E+02  0.20000019088E+02 0.  0.
        -12    1    1    2    0    0 -0.38480820731E+02 -0.13072869910E+02  0.15229885706E+02  0.43400724769E+02  0.00000000000E+00 0.  1.
         11    1    3    3    0    0  0.38035137912E+01  0.49286391237E+01 -0.36043911856E+01  0.71937359453E+01  0.51100000000E-03 0. -1.
        -11    1    3    3    0    0  0.32608781938E+02  0.10352678460E+02 -0.13775169013E+02  0.36881782662E+02  0.51100000000E-03 0.  1.
        -12    1    3    3    0    0  0.20685250023E+01 -0.22084476729E+01  0.21496744922E+01  0.37117566234E+01  0.00000000000E+00 0.  1.
</event>
<event>
 7    1  0.2642243E-009  0.4778727E+02  0.7816164E-02  0.1312668E+00
        -11   -1    0    0    0    0  0.00000000000E+00  0.00000000000E+00  0.45593999997E+02  0.45594000000E+02  0.51100000000E-03 0. -1.
         11   -1    0    0    0    0 -0.00000000000E+00 -0.00000000000E+00 -0.45593999997E+02  0.45594000000E+02  0.51100000000E-03 0.  1.
    9900012    2    1    2    0    0  0.11873224406E+02 -0.70850168008E+01  0.41139422042E+02  0.47787274582E+02  0.20000016129E+02 0.  0.
        -12    1    1    2    0    0 -0.11873224406E+02  0.70850168008E+01 -0.41139422042E+02  0.43400725418E+02  0.00000000000E+00 0.  1.
         11    1    3    3    0    0  0.13157609400E+02 -0.84719673360E+00  0.22529553244E+02  0.26104045607E+02  0.51100000000E-03 0. -1.
        -11    1    3    3    0    0  0.31061338592E+00 -0.84187151937E+01  0.14255081845E+02  0.16558339436E+02  0.51100000000E-03 0.  1.
         12    1    3    3    0    0 -0.15949983802E+01  0.21808951265E+01  0.43547869531E+01  0.51248895395E+01  0.00000000000E+00 0. -1.
</event>
<event>
 7    1  0.2642243E-009  0.4778732E+02  0.7816164E-02  0.1312668E+00
        -11   -1    0    0    0    0  0.00000000000E+00  0.00000000000E+00  0.45593999997E+02  0.45594000000E+02  0.51100000000E-03 0. -1.
         11   -1    0    0    0    0 -0.00000000000E+00 -0.00000000000E+00 -0.45593999997E+02  0.45594000000E+02  0.51100000000E-03 0.  1.
    9900012    2    1    2    0    0  0.10890814400E+02 -0.86522207580E+01  0.41111416695E+02  0.47787316307E+02  0.20000206371E+02 0.  0.
        -12    1    1    2    0    0 -0.10890814400E+02  0.86522207580E+01 -0.41111416695E+02  0.43400683693E+02  0.00000000000E+00 0.  1.
         11    1    3    3    0    0  0.96834694811E+01 -0.12284391724E+02  0.39861685860E+02  0.42820904487E+02  0.51100000000E-03 0. -1.
        -11    1    3    3    0    0  0.20851375413E+01  0.31620162503E+01  0.78770707654E+00  0.38686726448E+01  0.51100000000E-03 0.  1.
         12    1    3    3    0    0 -0.87779262223E+00  0.47015471581E+00  0.46202375796E+00  0.10977391755E+01  0.00000000000E+00 0. -1.
</event>
<event>
 7    1  0.2642243E-009  0.4778727E+02  0.7816164E-02  0.1312668E+00
        -11   -1    0    0    0    0  0.00000000000E+00  0.00000000000E+00  0.45593999997E+02  0.45594000000E+02  0.51100000000E-03 0.  1.
         11   -1    0    0    0    0 -0.00000000000E+00 -0.00000000000E+00 -0.45593999997E+02  0.45594000000E+02  0.51100000000E-03 0. -1.
    9900012    2    1    2    0    0  0.10645517361E+02 -0.32445217937E+02 -0.26788133812E+02  0.47787270513E+02  0.19999997577E+02 0.  0.
        -12    1    1    2    0    0 -0.10645517361E+02  0.32445217937E+02  0.26788133812E+02  0.43400729487E+02  0.00000000000E+00 0.  1.
         11    1    3    3    0    0  0.13920584262E+02 -0.26169065696E+02 -0.20172785858E+02  0.35854483055E+02  0.51100000000E-03 0. -1.
        -11    1    3    3    0    0 -0.22624627257E+01  0.99000444118E+00 -0.88385029476E+00  0.26229826502E+01  0.51100000000E-03 0.  1.
        -12    1    3    3    0    0 -0.10126041752E+01 -0.72661566822E+01 -0.57314976590E+01  0.93098048079E+01  0.00000000000E+00 0.  1.
</event>
<event>
 7    1  0.2642243E-009  0.4778727E+02  0.7816164E-02  0.1312668E+00
        -11   -1    0    0    0    0  0.00000000000E+00  0.00000000000E+00  0.45593999997E+02  0.45594000000E+02  0.51100000000E-03 0.  1.
         11   -1    0    0    0    0 -0.00000000000E+00 -0.00000000000E+00 -0.45593999997E+02  0.45594000000E+02  0.51100000000E-03 0. -1.
    9900012    2    1    2    0    0  0.43394740271E+02  0.24911329989E+00  0.67637872487E+00  0.47787273868E+02  0.20000012873E+02 0.  0.
        -12    1    1    2    0    0 -0.43394740271E+02 -0.24911329989E+00 -0.67637872487E+00  0.43400726132E+02  0.00000000000E+00 0.  1.
         11    1    3    3    0    0  0.34362132259E+02  0.57603634021E+00 -0.49553631561E+01  0.34722378599E+02  0.51100000000E-03 0. -1.
        -11    1    3    3    0    0  0.23982876297E+01 -0.35631923240E+01  0.29528743725E+01  0.52122538707E+01  0.51100000000E-03 0.  1.
         12    1    3    3    0    0  0.66343203818E+01  0.32362692836E+01  0.26788675085E+01  0.78526413985E+01  0.00000000000E+00 0. -1.
</event>
<event>
 7    1  0.2642243E-009  0.4778727E+02  0.7816164E-02  0.1312668E+00
        -11   -1    0    0    0    0  0.00000000000E+00  0.00000000000E+00  0.45593999997E+02  0.45594000000E+02  0.51100000000E-03 0.  1.
         11   -1    0    0    0    0 -0.00000000000E+00 -0.00000000000E+00 -0.45593999997E+02  0.45594000000E+02  0.51100000000E-03 0. -1.
    9900012    2    1    2    0    0 -0.98055587638E+01 -0.10797110034E+02 -0.40876605671E+02  0.47787268912E+02  0.19999990278E+02 0.  0.
        -12    1    1    2    0    0  0.98055587638E+01  0.10797110034E+02  0.40876605671E+02  0.43400731088E+02  0.00000000000E+00 0.  1.
         11    1    3    3    0    0 -0.94681473331E+01 -0.10533169518E+02 -0.37613528727E+02  0.40191678461E+02  0.51100000000E-03 0. -1.
        -11    1    3    3    0    0 -0.15951321619E+01  0.29527256963E+01 -0.11548670838E+01  0.35491905970E+01  0.51100000000E-03 0.  1.
         12    1    3    3    0    0  0.12577207313E+01 -0.32166662123E+01 -0.21082098610E+01  0.40463998538E+01  0.00000000000E+00 0. -1.
</event>
<event>
 7    1  0.2642243E-009  0.4778727E+02  0.7816164E-02  0.1312668E+00
        -11   -1    0    0    0    0  0.00000000000E+00  0.00000000000E+00  0.45593999997E+02  0.45594000000E+02  0.51100000000E-03 0.  1.
         11   -1    0    0    0    0 -0.00000000000E+00 -0.00000000000E+00 -0.45593999997E+02  0.45594000000E+02  0.51100000000E-03 0. -1.
    9900012    2    1    2    0    0 -0.41204978756E+02 -0.13041739679E+02 -0.39605266086E+01  0.47787273979E+02  0.20000013382E+02 0.  0.
        -12    1    1    2    0    0  0.41204978756E+02  0.13041739679E+02  0.39605266086E+01  0.43400726021E+02  0.00000000000E+00 0.  1.
         11    1    3    3    0    0 -0.19828976373E+02 -0.15022318319E+01 -0.79850499664E+01  0.21429093021E+02  0.51100000000E-03 0. -1.
        -11    1    3    3    0    0 -0.62897995456E+01  0.83726745363E+00  0.23744691922E+01  0.67750054848E+01  0.51100000000E-03 0.  1.
         12    1    3    3    0    0 -0.15086202837E+02 -0.12376775301E+02  0.16500541656E+01  0.19583175473E+02  0.00000000000E+00 0. -1.
</event>
<event>
 7    1  0.2642243E-009  0.4778727E+02  0.7816164E-02  0.1312668E+00
        -11   -1    0    0    0    0  0.00000000000E+00  0.00000000000E+00  0.45593999997E+02  0.45594000000E+02  0.51100000000E-03 0. -1.
         11   -1    0    0    0    0 -0.00000000000E+00 -0.00000000000E+00 -0.45593999997E+02  0.45594000000E+02  0.51100000000E-03 0.  1.
    9900012    2    1    2    0    0  0.53009649088E+01  0.36198932841E+02  0.23348663255E+02  0.47787273697E+02  0.20000012095E+02 0.  0.
        -12    1    1    2    0    0 -0.53009649088E+01 -0.36198932841E+02 -0.23348663255E+02  0.43400726303E+02  0.00000000000E+00 0.  1.
         11    1    3    3    0    0  0.67393744377E+01  0.38724229281E+01  0.35449816565E+01  0.85429340599E+01  0.51100000000E-03 0.  1.
        -11    1    3    3    0    0 -0.51940266539E+01  0.21371373800E+02  0.15423950954E+02  0.26862832953E+02  0.51100000000E-03 0. -1.
         12    1    3    3    0    0  0.37556171250E+01  0.10955136113E+02  0.43797306445E+01  0.12381506684E+02  0.00000000000E+00 0. -1.
</event>
<event>
 7    1  0.2642243E-009  0.4778727E+02  0.7816164E-02  0.1312668E+00
        -11   -1    0    0    0    0  0.00000000000E+00  0.00000000000E+00  0.45593999997E+02  0.45594000000E+02  0.51100000000E-03 0.  1.
         11   -1    0    0    0    0 -0.00000000000E+00 -0.00000000000E+00 -0.45593999997E+02  0.45594000000E+02  0.51100000000E-03 0. -1.
    9900012    2    1    2    0    0 -0.19691121242E+02  0.10993619367E+02 -0.37081308348E+02  0.47787270152E+02  0.19999995929E+02 0.  0.
        -12    1    1    2    0    0  0.19691121242E+02 -0.10993619367E+02  0.37081308348E+02  0.43400729848E+02  0.00000000000E+00 0.  1.
         11    1    3    3    0    0 -0.13431350708E+02  0.11438876426E+02 -0.21716321499E+02  0.27979415567E+02  0.51100000000E-03 0. -1.
        -11    1    3    3    0    0 -0.28424454176E+01 -0.56189566161E+01 -0.79696751841E+01  0.10157159652E+02  0.51100000000E-03 0.  1.
         12    1    3    3    0    0 -0.34173251168E+01  0.51736995574E+01 -0.73953116647E+01  0.96506949326E+01  0.00000000000E+00 0. -1.
</event>
<event>
 7    1  0.2642243E-009  0.4778727E+02  0.7816164E-02  0.1312668E+00
        -11   -1    0    0    0    0  0.00000000000E+00  0.00000000000E+00  0.45593999997E+02  0.45594000000E+02  0.51100000000E-03 0.  1.
         11   -1    0    0    0    0 -0.00000000000E+00 -0.00000000000E+00 -0.45593999997E+02  0.45594000000E+02  0.51100000000E-03 0. -1.
    9900012    2    1    2    0    0  0.27154361158E+02 -0.30383589274E+02  0.14936586642E+02  0.47787269043E+02  0.19999990876E+02 0.  0.
        -12    1    1    2    0    0 -0.27154361158E+02  0.30383589274E+02 -0.14936586642E+02  0.43400730957E+02  0.00000000000E+00 0.  1.
         11    1    3    3    0    0  0.10977628946E+02 -0.15659250478E+02 -0.13710540195E+01  0.19172904115E+02  0.51100000000E-03 0. -1.
        -11    1    3    3    0    0 -0.77521526770E-01  0.90909482297E+00  0.30760418600E+00  0.96285179577E+00  0.51100000000E-03 0.  1.
         12    1    3    3    0    0  0.16254253739E+02 -0.15633433619E+02  0.16000036475E+02  0.27651513133E+02  0.00000000000E+00 0. -1.
</event>
<event>
 7    1  0.2642243E-009  0.4778727E+02  0.7816164E-02  0.1312668E+00
        -11   -1    0    0    0    0  0.00000000000E+00  0.00000000000E+00  0.45593999997E+02  0.45594000000E+02  0.51100000000E-03 0. -1.
         11   -1    0    0    0    0 -0.00000000000E+00 -0.00000000000E+00 -0.45593999997E+02  0.45594000000E+02  0.51100000000E-03 0.  1.
    9900012    2    1    2    0    0  0.34126036007E+02  0.15876185744E+01 -0.26767821404E+02  0.47787272713E+02  0.20000007608E+02 0.  0.
        -12    1    1    2    0    0 -0.34126036007E+02 -0.15876185744E+01  0.26767821404E+02  0.43400727287E+02  0.00000000000E+00 0.  1.
         11    1    3    3    0    0  0.27908714965E+02  0.39132704156E+01 -0.22322436501E+02  0.35951373103E+02  0.51100000000E-03 0. -1.
        -11    1    3    3    0    0 -0.12651868005E+01 -0.73593189218E+00  0.15388297107E+01  0.21237444596E+01  0.51100000000E-03 0.  1.
         12    1    3    3    0    0  0.74825078422E+01 -0.15897199490E+01 -0.59842146138E+01  0.97121551505E+01  0.00000000000E+00 0. -1.
</event>
<event>
 7    1  0.2642243E-009  0.4778727E+02  0.7816164E-02  0.1312668E+00
        -11   -1    0    0    0    0  0.00000000000E+00  0.00000000000E+00  0.45593999997E+02  0.45594000000E+02  0.51100000000E-03 0.  1.
         11   -1    0    0    0    0 -0.00000000000E+00 -0.00000000000E+00 -0.45593999997E+02  0.45594000000E+02  0.51100000000E-03 0. -1.
    9900012    2    1    2    0    0 -0.22292002190E+02 -0.14357147372E+02 -0.34359310559E+02  0.47787271154E+02  0.20000000498E+02 0.  0.
        -12    1    1    2    0    0  0.22292002190E+02  0.14357147372E+02  0.34359310559E+02  0.43400728846E+02  0.00000000000E+00 0.  1.
         11    1    3    3    0    0 -0.76860385252E+01 -0.71896241758E+01 -0.22226897779E+02  0.24592699509E+02  0.51100000000E-03 0. -1.
        -11    1    3    3    0    0 -0.81665533483E+01 -0.77298949901E+01 -0.23789504351E+01  0.11493618907E+02  0.51100000000E-03 0.  1.
         12    1    3    3    0    0 -0.64394103163E+01  0.56237179365E+00 -0.97534623453E+01  0.11700952738E+02  0.00000000000E+00 0. -1.
</event>
<event>
 7    1  0.2642243E-009  0.4778727E+02  0.7816164E-02  0.1312668E+00
        -11   -1    0    0    0    0  0.00000000000E+00  0.00000000000E+00  0.45593999997E+02  0.45594000000E+02  0.51100000000E-03 0.  1.
         11   -1    0    0    0    0 -0.00000000000E+00 -0.00000000000E+00 -0.45593999997E+02  0.45594000000E+02  0.51100000000E-03 0. -1.
    9900012    2    1    2    0    0 -0.21486612034E+02  0.18317020643E+02 -0.32961120174E+02  0.47787272068E+02  0.20000004666E+02 0.  0.
        -12    1    1    2    0    0  0.21486612034E+02 -0.18317020643E+02  0.32961120174E+02  0.43400727932E+02  0.00000000000E+00 0.  1.
         11    1    3    3    0    0 -0.22133575686E+02  0.20571091611E+02 -0.33578364268E+02  0.45172685662E+02  0.51100000000E-03 0. -1.
        -11    1    3    3    0    0 -0.25878356170E-01 -0.13695636306E+01  0.59390057088E-01  0.13710950615E+01  0.51100000000E-03 0.  1.
         12    1    3    3    0    0  0.67284200807E+00 -0.88450733702E+00  0.55785403735E+00  0.12434913446E+01  0.00000000000E+00 0. -1.
</event>
<event>
 7    1  0.2642243E-009  0.4778727E+02  0.7816164E-02  0.1312668E+00
        -11   -1    0    0    0    0  0.00000000000E+00  0.00000000000E+00  0.45593999997E+02  0.45594000000E+02  0.51100000000E-03 0. -1.
         11   -1    0    0    0    0 -0.00000000000E+00 -0.00000000000E+00 -0.45593999997E+02  0.45594000000E+02  0.51100000000E-03 0.  1.
    9900012    2    1    2    0    0  0.15438138928E+02 -0.72092407253E+01  0.39916333988E+02  0.47787274149E+02  0.20000014155E+02 0.  0.
        -12    1    1    2    0    0 -0.15438138928E+02  0.72092407253E+01 -0.39916333988E+02  0.43400725851E+02  0.00000000000E+00 0.  1.
         11    1    3    3    0    0 -0.82474808573E+00  0.41776688298E+01  0.13067387814E+02  0.13743716775E+02  0.51100000000E-03 0.  1.
        -11    1    3    3    0    0  0.46744238082E+01 -0.26073515593E+00  0.42973446959E+01  0.63549502324E+01  0.51100000000E-03 0. -1.
         12    1    3    3    0    0  0.11588463205E+02 -0.11126174399E+02  0.22551601478E+02  0.27688607142E+02  0.00000000000E+00 0. -1.
</event>
<event>
 7    1  0.2642243E-009  0.4778727E+02  0.7816164E-02  0.1312668E+00
        -11   -1    0    0    0    0  0.00000000000E+00  0.00000000000E+00  0.45593999997E+02  0.45594000000E+02  0.51100000000E-03 0.  1.
         11   -1    0    0    0    0 -0.00000000000E+00 -0.00000000000E+00 -0.45593999997E+02  0.45594000000E+02  0.51100000000E-03 0. -1.
    9900012    2    1    2    0    0  0.23327225457E+02 -0.25681486634E+02 -0.26075367387E+02  0.47787274342E+02  0.20000015035E+02 0.  0.
        -12    1    1    2    0    0 -0.23327225457E+02  0.25681486634E+02  0.26075367387E+02  0.43400725658E+02  0.00000000000E+00 0.  1.
         11    1    3    3    0    0  0.15165725254E+02 -0.26588935892E+02 -0.20333118823E+02  0.36747876887E+02  0.51100000000E-03 0. -1.
        -11    1    3    3    0    0  0.74053681473E+01  0.67496679803E+00 -0.65495156556E+01  0.99091479532E+01  0.51100000000E-03 0.  1.
         12    1    3    3    0    0  0.75613205581E+00  0.23248245975E+00  0.80726709164E+00  0.11302495022E+01  0.00000000000E+00 0. -1.
</event>
<event>
 7    1  0.2642243E-009  0.4778727E+02  0.7816164E-02  0.1312668E+00
        -11   -1    0    0    0    0  0.00000000000E+00  0.00000000000E+00  0.45593999997E+02  0.45594000000E+02  0.51100000000E-03 0.  1.
         11   -1    0    0    0    0 -0.00000000000E+00 -0.00000000000E+00 -0.45593999997E+02  0.45594000000E+02  0.51100000000E-03 0. -1.
    9900012    2    1    2    0    0 -0.12334468306E+02 -0.16656398424E+02 -0.38131987431E+02  0.47787272100E+02  0.20000004812E+02 0.  0.
        -12    1    1    2    0    0  0.12334468306E+02  0.16656398424E+02  0.38131987431E+02  0.43400727900E+02  0.00000000000E+00 0.  1.
         11    1    3    3    0    0  0.52196369741E+01 -0.53032729985E+01 -0.13410978793E+02  0.15337003197E+02  0.51100000000E-03 0. -1.
        -11    1    3    3    0    0 -0.88690806389E+01 -0.46801100411E+01 -0.10812431496E+02  0.14746955499E+02  0.51100000000E-03 0.  1.
         12    1    3    3    0    0 -0.86850246415E+01 -0.66730153840E+01 -0.13908577142E+02  0.17703313404E+02  0.00000000000E+00 0. -1.
</event>
<event>
 7    1  0.2642243E-009  0.4778728E+02  0.7816164E-02  0.1312668E+00
        -11   -1    0    0    0    0  0.00000000000E+00  0.00000000000E+00  0.45593999997E+02  0.45594000000E+02  0.51100000000E-03 0.  1.
         11   -1    0    0    0    0 -0.00000000000E+00 -0.00000000000E+00 -0.45593999997E+02  0.45594000000E+02  0.51100000000E-03 0. -1.
    9900012    2    1    2    0    0  0.18480117183E+02  0.67739881955E+01 -0.38681018949E+02  0.47787275650E+02  0.20000020999E+02 0.  0.
        -12    1    1    2    0    0 -0.18480117183E+02 -0.67739881955E+01  0.38681018949E+02  0.43400724350E+02  0.00000000000E+00 0.  1.
         11    1    3    3    0    0  0.10162372627E+02  0.69006704112E+01 -0.19044045092E+02  0.22662054701E+02  0.51100000000E-03 0. -1.
        -11    1    3    3    0    0  0.91284107577E+01 -0.33558363878E+01 -0.68092074095E+01  0.11872439793E+02  0.51100000000E-03 0.  1.
        -12    1    3    3    0    0 -0.81066620156E+00  0.32291541721E+01 -0.12827766448E+02  0.13252781157E+02  0.00000000000E+00 0.  1.
</event>
<event>
 7    1  0.2642243E-009  0.4778727E+02  0.7816164E-02  0.1312668E+00
        -11   -1    0    0    0    0  0.00000000000E+00  0.00000000000E+00  0.45593999997E+02  0.45594000000E+02  0.51100000000E-03 0.  1.
         11   -1    0    0    0    0 -0.00000000000E+00 -0.00000000000E+00 -0.45593999997E+02  0.45594000000E+02  0.51100000000E-03 0. -1.
    9900012    2    1    2    0    0  0.15476770146E+01 -0.30252863580E+02 -0.31080414242E+02  0.47787271799E+02  0.20000003440E+02 0.  0.
        -12    1    1    2    0    0 -0.15476770146E+01  0.30252863580E+02  0.31080414242E+02  0.43400728201E+02  0.00000000000E+00 0.  1.
         11    1    3    3    0    0 -0.39216443711E+01 -0.18044301326E+02 -0.17963096668E+02  0.25761384805E+02  0.51100000000E-03 0. -1.
        -11    1    3    3    0    0  0.22864430860E+01 -0.64823241172E+00 -0.90615816178E+01  0.93680461636E+01  0.51100000000E-03 0.  1.
        -12    1    3    3    0    0  0.31828782997E+01 -0.11560329842E+02 -0.40557359562E+01  0.12657840830E+02  0.00000000000E+00 0.  1.
</event>
<event>
 7    1  0.2642243E-009  0.4778728E+02  0.7816164E-02  0.1312668E+00
        -11   -1    0    0    0    0  0.00000000000E+00  0.00000000000E+00  0.45593999997E+02  0.45594000000E+02  0.51100000000E-03 0.  1.
         11   -1    0    0    0    0 -0.00000000000E+00 -0.00000000000E+00 -0.45593999997E+02  0.45594000000E+02  0.51100000000E-03 0. -1.
    9900012    2    1    2    0    0  0.23248881992E+02  0.32058347515E+02 -0.17758789681E+02  0.47787276848E+02  0.20000026459E+02 0.  0.
        -12    1    1    2    0    0 -0.23248881992E+02 -0.32058347515E+02  0.17758789681E+02  0.43400723152E+02  0.00000000000E+00 0.  1.
         11    1    3    3    0    0  0.90637923683E+01  0.37829843643E+01 -0.10392684137E+02  0.14299342174E+02  0.51100000000E-03 0.  1.
        -11    1    3    3    0    0  0.10665841446E+02  0.25230356272E+02 -0.85323903762E+01  0.28690289946E+02  0.51100000000E-03 0. -1.
         12    1    3    3    0    0  0.35192481772E+01  0.30450068783E+01  0.11662848324E+01  0.47976447276E+01  0.00000000000E+00 0. -1.
</event>
<event>
 7    1  0.2642243E-009  0.4778728E+02  0.7816164E-02  0.1312668E+00
        -11   -1    0    0    0    0  0.00000000000E+00  0.00000000000E+00  0.45593999997E+02  0.45594000000E+02  0.51100000000E-03 0.  1.
         11   -1    0    0    0    0 -0.00000000000E+00 -0.00000000000E+00 -0.45593999997E+02  0.45594000000E+02  0.51100000000E-03 0. -1.
    9900012    2    1    2    0    0  0.35203083906E+02 -0.17526871196E+02 -0.18362311893E+02  0.47787276175E+02  0.20000023394E+02 0.  0.
        -12    1    1    2    0    0 -0.35203083906E+02  0.17526871196E+02  0.18362311893E+02  0.43400723825E+02  0.00000000000E+00 0.  1.
         11    1    3    3    0    0  0.88599725955E+01 -0.28844444824E+01  0.31375044897E+01  0.98317378448E+01  0.51100000000E-03 0. -1.
        -11    1    3    3    0    0  0.28169765705E+00  0.59698680337E+00  0.29240943226E+00  0.72197669671E+00  0.51100000000E-03 0.  1.
         12    1    3    3    0    0  0.26061413654E+02 -0.15239413517E+02 -0.21792225815E+02  0.37233561634E+02  0.00000000000E+00 0. -1.
</event>
<event>
 7    1  0.2642243E-009  0.4778727E+02  0.7816164E-02  0.1312668E+00
        -11   -1    0    0    0    0  0.00000000000E+00  0.00000000000E+00  0.45593999997E+02  0.45594000000E+02  0.51100000000E-03 0.  1.
         11   -1    0    0    0    0 -0.00000000000E+00 -0.00000000000E+00 -0.45593999997E+02  0.45594000000E+02  0.51100000000E-03 0. -1.
    9900012    2    1    2    0    0  0.56857794271E+01 -0.32767229461E+02 -0.27885551380E+02  0.47787269707E+02  0.19999993901E+02 0.  0.
        -12    1    1    2    0    0 -0.56857794271E+01  0.32767229461E+02  0.27885551380E+02  0.43400730293E+02  0.00000000000E+00 0.  1.
         11    1    3    3    0    0 -0.57905093847E+00 -0.18624821721E+02 -0.25911151108E+02  0.31915623699E+02  0.51100000000E-03 0. -1.
        -11    1    3    3    0    0  0.37763366437E+01 -0.49556713031E+01 -0.76622125612E+00  0.62774590230E+01  0.51100000000E-03 0.  1.
         12    1    3    3    0    0  0.24884937219E+01 -0.91867364365E+01 -0.12081790162E+01  0.95941869844E+01  0.00000000000E+00 0. -1.
</event>
<event>
 7    1  0.2642243E-009  0.4778727E+02  0.7816164E-02  0.1312668E+00
        -11   -1    0    0    0    0  0.00000000000E+00  0.00000000000E+00  0.45593999997E+02  0.45594000000E+02  0.51100000000E-03 0.  1.
         11   -1    0    0    0    0 -0.00000000000E+00 -0.00000000000E+00 -0.45593999997E+02  0.45594000000E+02  0.51100000000E-03 0. -1.
    9900012    2    1    2    0    0 -0.20725867723E+02 -0.24324304849E+02 -0.29366473620E+02  0.47787272217E+02  0.20000005346E+02 0.  0.
        -12    1    1    2    0    0  0.20725867723E+02  0.24324304849E+02  0.29366473620E+02  0.43400727783E+02  0.00000000000E+00 0.  1.
         11    1    3    3    0    0 -0.87532483046E+01 -0.10839636556E+02 -0.23587798236E+02  0.27395278835E+02  0.51100000000E-03 0. -1.
        -11    1    3    3    0    0 -0.46436677181E+00 -0.14122000174E+01  0.15734036551E+01  0.21646119077E+01  0.51100000000E-03 0.  1.
         12    1    3    3    0    0 -0.11508252646E+02 -0.12072468275E+02 -0.73520790389E+01  0.18227381474E+02  0.00000000000E+00 0. -1.
</event>
<event>
 7    1  0.2642243E-009  0.4778727E+02  0.7816164E-02  0.1312668E+00
        -11   -1    0    0    0    0  0.00000000000E+00  0.00000000000E+00  0.45593999997E+02  0.45594000000E+02  0.51100000000E-03 0. -1.
         11   -1    0    0    0    0 -0.00000000000E+00 -0.00000000000E+00 -0.45593999997E+02  0.45594000000E+02  0.51100000000E-03 0.  1.
    9900012    2    1    2    0    0  0.26811521877E+02  0.68753216434E+00  0.34121737689E+02  0.47787269721E+02  0.19999993966E+02 0.  0.
        -12    1    1    2    0    0 -0.26811521877E+02 -0.68753216434E+00 -0.34121737689E+02  0.43400730279E+02  0.00000000000E+00 0.  1.
         11    1    3    3    0    0  0.31374538555E+00 -0.11139731777E+01 -0.16155764907E+01  0.19873248516E+01  0.51100000000E-03 0. -1.
        -11    1    3    3    0    0  0.51452625639E+01 -0.80988163833E+00  0.15975805831E+01  0.54481096814E+01  0.51100000000E-03 0.  1.
         12    1    3    3    0    0  0.21352513927E+02  0.26113869803E+01  0.34139733597E+02  0.40351835188E+02  0.00000000000E+00 0. -1.
</event>
<event>
 7    1  0.2642243E-009  0.4778727E+02  0.7816164E-02  0.1312668E+00
        -11   -1    0    0    0    0  0.00000000000E+00  0.00000000000E+00  0.45593999997E+02  0.45594000000E+02  0.51100000000E-03 0.  1.
         11   -1    0    0    0    0 -0.00000000000E+00 -0.00000000000E+00 -0.45593999997E+02  0.45594000000E+02  0.51100000000E-03 0. -1.
    9900012    2    1    2    0    0 -0.29609750691E+02  0.27706280010E+02 -0.15467642714E+02  0.47787271215E+02  0.20000000777E+02 0.  0.
        -12    1    1    2    0    0  0.29609750691E+02 -0.27706280010E+02  0.15467642714E+02  0.43400728785E+02  0.00000000000E+00 0.  1.
         11    1    3    3    0    0 -0.89997328220E+01  0.15384050535E+02 -0.11071975531E+02  0.20982203034E+02  0.51100000000E-03 0. -1.
        -11    1    3    3    0    0 -0.59660501010E+01 -0.16613624838E+01 -0.11293324134E+01  0.62951783987E+01  0.51100000000E-03 0.  1.
        -12    1    3    3    0    0 -0.14643967768E+02  0.13983591959E+02 -0.32663347690E+01  0.20509889782E+02  0.00000000000E+00 0.  1.
</event>
<event>
 7    1  0.2642243E-009  0.4778727E+02  0.7816164E-02  0.1312668E+00
        -11   -1    0    0    0    0  0.00000000000E+00  0.00000000000E+00  0.45593999997E+02  0.45594000000E+02  0.51100000000E-03 0.  1.
         11   -1    0    0    0    0 -0.00000000000E+00 -0.00000000000E+00 -0.45593999997E+02  0.45594000000E+02  0.51100000000E-03 0. -1.
    9900012    2    1    2    0    0 -0.62244085363E+01  0.46061578569E+01 -0.42704372064E+02  0.47787270223E+02  0.19999996255E+02 0.  0.
        -12    1    1    2    0    0  0.62244085363E+01 -0.46061578569E+01  0.42704372064E+02  0.43400729777E+02  0.00000000000E+00 0.  1.
         11    1    3    3    0    0  0.27420482750E+01  0.22393628381E+01 -0.14047227861E+02  0.14486482855E+02  0.51100000000E-03 0. -1.
        -11    1    3    3    0    0 -0.33801726495E+01 -0.57602787992E+01 -0.80837211820E+01  0.10485844143E+02  0.51100000000E-03 0.  1.
        -12    1    3    3    0    0 -0.55862841618E+01  0.81270738180E+01 -0.20573423021E+02  0.22814943225E+02  0.00000000000E+00 0.  1.
</event>
<event>
 7    1  0.2642243E-009  0.4778727E+02  0.7816164E-02  0.1312668E+00
        -11   -1    0    0    0    0  0.00000000000E+00  0.00000000000E+00  0.45593999997E+02  0.45594000000E+02  0.51100000000E-03 0. -1.
         11   -1    0    0    0    0 -0.00000000000E+00 -0.00000000000E+00 -0.45593999997E+02  0.45594000000E+02  0.51100000000E-03 0.  1.
    9900012    2    1    2    0    0 -0.22498637331E+02 -0.23974688793E+02  0.28331058074E+02  0.47787271480E+02  0.20000001986E+02 0.  0.
        -12    1    1    2    0    0  0.22498637331E+02  0.23974688793E+02 -0.28331058074E+02  0.43400728520E+02  0.00000000000E+00 0.  1.
         11    1    3    3    0    0 -0.15586158323E+02 -0.19794646982E+02  0.27159149314E+02  0.37045590455E+02  0.51100000000E-03 0. -1.
        -11    1    3    3    0    0 -0.63530228896E+01 -0.56573964111E+01 -0.39580067129E+00  0.85160843361E+01  0.51100000000E-03 0.  1.
         12    1    3    3    0    0 -0.55945611847E+00  0.14773546000E+01  0.15677094312E+01  0.22255966893E+01  0.00000000000E+00 0. -1.
</event>
<event>
 7    1  0.2642243E-009  0.4778727E+02  0.7816164E-02  0.1312668E+00
        -11   -1    0    0    0    0  0.00000000000E+00  0.00000000000E+00  0.45593999997E+02  0.45594000000E+02  0.51100000000E-03 0.  1.
         11   -1    0    0    0    0 -0.00000000000E+00 -0.00000000000E+00 -0.45593999997E+02  0.45594000000E+02  0.51100000000E-03 0. -1.
    9900012    2    1    2    0    0  0.35571899237E+02  0.72396155706E+01 -0.23787628982E+02  0.47787270265E+02  0.19999996445E+02 0.  0.
        -12    1    1    2    0    0 -0.35571899237E+02 -0.72396155706E+01  0.23787628982E+02  0.43400729735E+02  0.00000000000E+00 0.  1.
         11    1    3    3    0    0  0.11986462208E+01 -0.37349671466E+01 -0.29496485676E+01  0.49078670808E+01  0.51100000000E-03 0. -1.
        -11    1    3    3    0    0  0.27049870906E+02  0.59283238360E+01 -0.19539501144E+02  0.33891483366E+02  0.51100000000E-03 0.  1.
        -12    1    3    3    0    0  0.73233821107E+01  0.50462588813E+01 -0.12984792705E+01  0.89879198178E+01  0.00000000000E+00 0.  1.
</event>
<event>
 7    1  0.2642243E-009  0.4778727E+02  0.7816164E-02  0.1312668E+00
        -11   -1    0    0    0    0  0.00000000000E+00  0.00000000000E+00  0.45593999997E+02  0.45594000000E+02  0.51100000000E-03 0.  1.
         11   -1    0    0    0    0 -0.00000000000E+00 -0.00000000000E+00 -0.45593999997E+02  0.45594000000E+02  0.51100000000E-03 0. -1.
    9900012    2    1    2    0    0  0.29321091582E+02  0.28304668138E+02  0.14924565411E+02  0.47787270712E+02  0.19999998486E+02 0.  0.
        -12    1    1    2    0    0 -0.29321091582E+02 -0.28304668138E+02 -0.14924565411E+02  0.43400729288E+02  0.00000000000E+00 0.  1.
         11    1    3    3    0    0  0.68978814251E+01  0.13580216651E+01 -0.31300860230E+01  0.76956110719E+01  0.51100000000E-03 0. -1.
        -11    1    3    3    0    0  0.15547068928E+02  0.23273396207E+02  0.13692049641E+02  0.31158217967E+02  0.51100000000E-03 0.  1.
        -12    1    3    3    0    0  0.68761412294E+01  0.36732502656E+01  0.43626017929E+01  0.89334416729E+01  0.00000000000E+00 0.  1.
</event>
<event>
 7    1  0.2642243E-009  0.4778727E+02  0.7816164E-02  0.1312668E+00
        -11   -1    0    0    0    0  0.00000000000E+00  0.00000000000E+00  0.45593999997E+02  0.45594000000E+02  0.51100000000E-03 0.  1.
         11   -1    0    0    0    0 -0.00000000000E+00 -0.00000000000E+00 -0.45593999997E+02  0.45594000000E+02  0.51100000000E-03 0. -1.
    9900012    2    1    2    0    0 -0.28450964259E+02  0.29964792157E+01 -0.32637203366E+02  0.47787270760E+02  0.19999998705E+02 0.  0.
        -12    1    1    2    0    0  0.28450964259E+02 -0.29964792157E+01  0.32637203366E+02  0.43400729240E+02  0.00000000000E+00 0.  1.
         11    1    3    3    0    0 -0.21267473784E+02 -0.28022236427E+01 -0.13152783981E+02  0.25162544093E+02  0.51100000000E-03 0. -1.
        -11    1    3    3    0    0 -0.31542566234E+00  0.44905494430E+01 -0.79972798398E+01  0.91772007031E+01  0.51100000000E-03 0.  1.
         12    1    3    3    0    0 -0.68680648124E+01  0.13081534154E+01 -0.11487139545E+02  0.13447525964E+02  0.00000000000E+00 0. -1.
</event>
<event>
 7    1  0.2642243E-009  0.4778727E+02  0.7816164E-02  0.1312668E+00
        -11   -1    0    0    0    0  0.00000000000E+00  0.00000000000E+00  0.45593999997E+02  0.45594000000E+02  0.51100000000E-03 0. -1.
         11   -1    0    0    0    0 -0.00000000000E+00 -0.00000000000E+00 -0.45593999997E+02  0.45594000000E+02  0.51100000000E-03 0.  1.
    9900012    2    1    2    0    0  0.18712564193E+02 -0.29156394844E+02  0.26141306703E+02  0.47787270339E+02  0.19999996785E+02 0.  0.
        -12    1    1    2    0    0 -0.18712564193E+02  0.29156394844E+02 -0.26141306703E+02  0.43400729661E+02  0.00000000000E+00 0.  1.
         11    1    3    3    0    0  0.52624342831E+01 -0.34422257283E+01  0.12861823673E+02  0.14316725918E+02  0.51100000000E-03 0. -1.
        -11    1    3    3    0    0  0.45087217283E+01 -0.17442615794E+02  0.48491485340E+01  0.18657107469E+02  0.51100000000E-03 0.  1.
        -12    1    3    3    0    0  0.89414081814E+01 -0.82715533213E+01  0.84303344958E+01  0.14813436952E+02  0.00000000000E+00 0.  1.
</event>
<event>
 7    1  0.2642243E-009  0.4778727E+02  0.7816164E-02  0.1312668E+00
        -11   -1    0    0    0    0  0.00000000000E+00  0.00000000000E+00  0.45593999997E+02  0.45594000000E+02  0.51100000000E-03 0.  1.
         11   -1    0    0    0    0 -0.00000000000E+00 -0.00000000000E+00 -0.45593999997E+02  0.45594000000E+02  0.51100000000E-03 0. -1.
    9900012    2    1    2    0    0  0.57884753964E+01 -0.40438136401E+02  0.14658580011E+02  0.47787270848E+02  0.19999999106E+02 0.  0.
        -12    1    1    2    0    0 -0.57884753964E+01  0.40438136401E+02 -0.14658580011E+02  0.43400729152E+02  0.00000000000E+00 0.  1.
         11    1    3    3    0    0 -0.23789842500E+01 -0.19252911206E+02 -0.11799327579E+00  0.19399692746E+02  0.51100000000E-03 0. -1.
        -11    1    3    3    0    0 -0.32626970089E+00  0.58914499006E-02 -0.72305339070E+00  0.79327995929E+00  0.51100000000E-03 0.  1.
         12    1    3    3    0    0  0.84937293473E+01 -0.21191116644E+02  0.15499626677E+02  0.27594298143E+02  0.00000000000E+00 0. -1.
</event>
<event>
 7    1  0.2642243E-009  0.4778727E+02  0.7816164E-02  0.1312668E+00
        -11   -1    0    0    0    0  0.00000000000E+00  0.00000000000E+00  0.45593999997E+02  0.45594000000E+02  0.51100000000E-03 0.  1.
         11   -1    0    0    0    0 -0.00000000000E+00 -0.00000000000E+00 -0.45593999997E+02  0.45594000000E+02  0.51100000000E-03 0. -1.
    9900012    2    1    2    0    0 -0.34049853069E+02 -0.26911136609E+02 -0.14733717471E+00  0.47787268717E+02  0.19999989389E+02 0.  0.
        -12    1    1    2    0    0  0.34049853069E+02  0.26911136609E+02  0.14733717471E+00  0.43400731283E+02  0.00000000000E+00 0.  1.
         11    1    3    3    0    0 -0.27112212637E+02 -0.17397109388E+02  0.71870062158E+01  0.33005825966E+02  0.51100000000E-03 0. -1.
        -11    1    3    3    0    0 -0.76325885508E+01 -0.86332886411E+01 -0.58573161101E+01  0.12926648174E+02  0.51100000000E-03 0.  1.
        -12    1    3    3    0    0  0.69494811830E+00 -0.88073858044E+00 -0.14770272804E+01  0.18547945765E+01  0.00000000000E+00 0.  1.
</event>
<event>
 7    1  0.2642243E-009  0.4778727E+02  0.7816164E-02  0.1312668E+00
        -11   -1    0    0    0    0  0.00000000000E+00  0.00000000000E+00  0.45593999997E+02  0.45594000000E+02  0.51100000000E-03 0.  1.
         11   -1    0    0    0    0 -0.00000000000E+00 -0.00000000000E+00 -0.45593999997E+02  0.45594000000E+02  0.51100000000E-03 0. -1.
    9900012    2    1    2    0    0 -0.36197294674E+02 -0.18163111995E+02 -0.15603873552E+02  0.47787266724E+02  0.19999980302E+02 0.  0.
        -12    1    1    2    0    0  0.36197294674E+02  0.18163111995E+02  0.15603873552E+02  0.43400733276E+02  0.00000000000E+00 0.  1.
         11    1    3    3    0    0 -0.23474158098E+02 -0.18720912390E+02 -0.78489972444E+01  0.31034100875E+02  0.51100000000E-03 0. -1.
        -11    1    3    3    0    0 -0.27510053401E+01 -0.29636149992E+01 -0.87673710476E+00  0.41375974256E+01  0.51100000000E-03 0.  1.
         12    1    3    3    0    0 -0.99721312360E+01  0.35214153933E+01 -0.68781392030E+01  0.12615568424E+02  0.00000000000E+00 0. -1.
</event>
<event>
 7    1  0.2642243E-009  0.4778727E+02  0.7816164E-02  0.1312668E+00
        -11   -1    0    0    0    0  0.00000000000E+00  0.00000000000E+00  0.45593999997E+02  0.45594000000E+02  0.51100000000E-03 0. -1.
         11   -1    0    0    0    0 -0.00000000000E+00 -0.00000000000E+00 -0.45593999997E+02  0.45594000000E+02  0.51100000000E-03 0.  1.
    9900012    2    1    2    0    0 -0.40696920397E+02  0.11522071302E+02  0.97275844304E+01  0.47787270101E+02  0.19999995698E+02 0.  0.
        -12    1    1    2    0    0  0.40696920397E+02 -0.11522071302E+02 -0.97275844304E+01  0.43400729899E+02  0.00000000000E+00 0.  1.
         11    1    3    3    0    0 -0.27887171207E+02  0.99348051460E+01  0.10324163051E+02  0.31352559930E+02  0.51100000000E-03 0. -1.
        -11    1    3    3    0    0 -0.70619538742E+01 -0.20766641146E+01 -0.44530603428E+01  0.86031083361E+01  0.51100000000E-03 0.  1.
        -12    1    3    3    0    0 -0.57477953167E+01  0.36639302704E+01  0.38564817219E+01  0.78316018349E+01  0.00000000000E+00 0.  1.
</event>
<event>
 7    1  0.2642243E-009  0.4778728E+02  0.7816164E-02  0.1312668E+00
        -11   -1    0    0    0    0  0.00000000000E+00  0.00000000000E+00  0.45593999997E+02  0.45594000000E+02  0.51100000000E-03 0.  1.
         11   -1    0    0    0    0 -0.00000000000E+00 -0.00000000000E+00 -0.45593999997E+02  0.45594000000E+02  0.51100000000E-03 0. -1.
    9900012    2    1    2    0    0 -0.15138718997E+02  0.87115041270E+01 -0.39730986950E+02  0.47787280639E+02  0.20000043747E+02 0.  0.
        -12    1    1    2    0    0  0.15138718997E+02 -0.87115041270E+01  0.39730986950E+02  0.43400719361E+02  0.00000000000E+00 0.  1.
         11    1    3    3    0    0 -0.99040480033E+01  0.37648430154E+01 -0.17797910348E+02  0.20713035094E+02  0.51100000000E-03 0. -1.
        -11    1    3    3    0    0 -0.27886080715E+01 -0.39160484639E+01 -0.21645614009E+01  0.52722952181E+01  0.51100000000E-03 0.  1.
        -12    1    3    3    0    0 -0.24460629228E+01  0.88627095755E+01 -0.19768515200E+02  0.21801950327E+02  0.00000000000E+00 0.  1.
</event>
<event>
 7    1  0.2642243E-009  0.4778727E+02  0.7816164E-02  0.1312668E+00
        -11   -1    0    0    0    0  0.00000000000E+00  0.00000000000E+00  0.45593999997E+02  0.45594000000E+02  0.51100000000E-03 0.  1.
         11   -1    0    0    0    0 -0.00000000000E+00 -0.00000000000E+00 -0.45593999997E+02  0.45594000000E+02  0.51100000000E-03 0. -1.
    9900012    2    1    2    0    0 -0.42094165226E+02  0.34205957437E+01 -0.10000205035E+02  0.47787270490E+02  0.19999997471E+02 0.  0.
        -12    1    1    2    0    0  0.42094165226E+02 -0.34205957437E+01  0.10000205035E+02  0.43400729510E+02  0.00000000000E+00 0.  1.
         11    1    3    3    0    0 -0.37111079220E+01  0.23897038524E+01  0.33315338154E+01  0.55301106983E+01  0.51100000000E-03 0.  1.
        -11    1    3    3    0    0 -0.26619736950E+02 -0.16256955156E+01 -0.14111082153E+02  0.30172436444E+02  0.51100000000E-03 0. -1.
         12    1    3    3    0    0 -0.11763320354E+02  0.26565874069E+01  0.77934330266E+00  0.12084723347E+02  0.00000000000E+00 0. -1.
</event>
<event>
 7    1  0.2642243E-009  0.4778727E+02  0.7816164E-02  0.1312668E+00
        -11   -1    0    0    0    0  0.00000000000E+00  0.00000000000E+00  0.45593999997E+02  0.45594000000E+02  0.51100000000E-03 0.  1.
         11   -1    0    0    0    0 -0.00000000000E+00 -0.00000000000E+00 -0.45593999997E+02  0.45594000000E+02  0.51100000000E-03 0. -1.
    9900012    2    1    2    0    0  0.13469943719E+02 -0.33981041321E+02 -0.23398133979E+02  0.47787271587E+02  0.20000002474E+02 0.  0.
        -12    1    1    2    0    0 -0.13469943719E+02  0.33981041321E+02  0.23398133979E+02  0.43400728413E+02  0.00000000000E+00 0.  1.
         11    1    3    3    0    0  0.65308009584E+01 -0.14129615435E+02 -0.11949558716E+02  0.19623693518E+02  0.51100000000E-03 0. -1.
        -11    1    3    3    0    0  0.26775145975E+01 -0.18490744092E+01  0.32019744281E+01  0.45651726244E+01  0.51100000000E-03 0.  1.
        -12    1    3    3    0    0  0.42616281630E+01 -0.18002351476E+02 -0.14650549691E+02  0.23598405445E+02  0.00000000000E+00 0.  1.
</event>
<event>
 7    1  0.2642243E-009  0.4778727E+02  0.7816164E-02  0.1312668E+00
        -11   -1    0    0    0    0  0.00000000000E+00  0.00000000000E+00  0.45593999997E+02  0.45594000000E+02  0.51100000000E-03 0.  1.
         11   -1    0    0    0    0 -0.00000000000E+00 -0.00000000000E+00 -0.45593999997E+02  0.45594000000E+02  0.51100000000E-03 0. -1.
    9900012    2    1    2    0    0  0.10882311187E+02 -0.40133030067E+02  0.12431353795E+02  0.47787270094E+02  0.19999995668E+02 0.  0.
        -12    1    1    2    0    0 -0.10882311187E+02  0.40133030067E+02 -0.12431353795E+02  0.43400729906E+02  0.00000000000E+00 0.  1.
         11    1    3    3    0    0  0.22513443762E+01 -0.87659546822E+01  0.68092484824E+00  0.90760218103E+01  0.51100000000E-03 0. -1.
        -11    1    3    3    0    0  0.12247509064E+02 -0.17658664499E+02  0.11834919057E+02  0.24533552933E+02  0.51100000000E-03 0.  1.
        -12    1    3    3    0    0 -0.36165422537E+01 -0.13708410886E+02 -0.84490109879E-01  0.14177695351E+02  0.00000000000E+00 0.  1.
</event>
<event>
 7    1  0.2642243E-009  0.4778725E+02  0.7816164E-02  0.1312668E+00
        -11   -1    0    0    0    0  0.00000000000E+00  0.00000000000E+00  0.45593999997E+02  0.45594000000E+02  0.51100000000E-03 0.  1.
         11   -1    0    0    0    0 -0.00000000000E+00 -0.00000000000E+00 -0.45593999997E+02  0.45594000000E+02  0.51100000000E-03 0. -1.
    9900012    2    1    2    0    0 -0.25963367684E+02 -0.22398898078E+02 -0.26604844114E+02  0.47787253152E+02  0.19999918422E+02 0.  0.
        -12    1    1    2    0    0  0.25963367684E+02  0.22398898078E+02  0.26604844114E+02  0.43400746848E+02  0.00000000000E+00 0.  1.
         11    1    3    3    0    0 -0.43363820075E+01  0.26053744568E+01 -0.73803625275E+01  0.89477335831E+01  0.51100000000E-03 0. -1.
        -11    1    3    3    0    0 -0.13076959650E+02 -0.18512659864E+02 -0.10375833887E+02  0.24927562617E+02  0.51100000000E-03 0.  1.
        -12    1    3    3    0    0 -0.85500260264E+01 -0.64916126713E+01 -0.88486476997E+01  0.13911956952E+02  0.00000000000E+00 0.  1.
</event>
<event>
 7    1  0.2642243E-009  0.4778727E+02  0.7816164E-02  0.1312668E+00
        -11   -1    0    0    0    0  0.00000000000E+00  0.00000000000E+00  0.45593999997E+02  0.45594000000E+02  0.51100000000E-03 0.  1.
         11   -1    0    0    0    0 -0.00000000000E+00 -0.00000000000E+00 -0.45593999997E+02  0.45594000000E+02  0.51100000000E-03 0. -1.
    9900012    2    1    2    0    0  0.12247902326E+01 -0.86682827725E+01 -0.42508635620E+02  0.47787270287E+02  0.19999996547E+02 0.  0.
        -12    1    1    2    0    0 -0.12247902326E+01  0.86682827725E+01  0.42508635620E+02  0.43400729713E+02  0.00000000000E+00 0.  1.
         11    1    3    3    0    0 -0.31510830952E+01 -0.89927793932E+01 -0.15099202355E+02  0.17854560143E+02  0.51100000000E-03 0. -1.
        -11    1    3    3    0    0  0.30007982106E+01  0.52784862857E+01 -0.92921421798E+01  0.11100050176E+02  0.51100000000E-03 0.  1.
         12    1    3    3    0    0  0.13750751172E+01 -0.49539896651E+01 -0.18117291085E+02  0.18832659967E+02  0.00000000000E+00 0. -1.
</event>
<event>
 7    1  0.2642243E-009  0.4778727E+02  0.7816164E-02  0.1312668E+00
        -11   -1    0    0    0    0  0.00000000000E+00  0.00000000000E+00  0.45593999997E+02  0.45594000000E+02  0.51100000000E-03 0.  1.
         11   -1    0    0    0    0 -0.00000000000E+00 -0.00000000000E+00 -0.45593999997E+02  0.45594000000E+02  0.51100000000E-03 0. -1.
    9900012    2    1    2    0    0  0.22273789942E+02 -0.84671485899E+01 -0.36274081248E+02  0.47787270813E+02  0.19999998943E+02 0.  0.
        -12    1    1    2    0    0 -0.22273789942E+02  0.84671485899E+01  0.36274081248E+02  0.43400729187E+02  0.00000000000E+00 0.  1.
         11    1    3    3    0    0  0.17613413535E+02 -0.27412773536E+01 -0.13260586120E+02  0.22216887325E+02  0.51100000000E-03 0. -1.
        -11    1    3    3    0    0  0.22650304472E+01 -0.14329007630E+01 -0.76787454587E+00  0.27880457497E+01  0.51100000000E-03 0.  1.
         12    1    3    3    0    0  0.23953459600E+01 -0.42929704733E+01 -0.22245620582E+02  0.22782337738E+02  0.00000000000E+00 0. -1.
</event>
<event>
 7    1  0.2642243E-009  0.4778727E+02  0.7816164E-02  0.1312668E+00
        -11   -1    0    0    0    0  0.00000000000E+00  0.00000000000E+00  0.45593999997E+02  0.45594000000E+02  0.51100000000E-03 0.  1.
         11   -1    0    0    0    0 -0.00000000000E+00 -0.00000000000E+00 -0.45593999997E+02  0.45594000000E+02  0.51100000000E-03 0. -1.
    9900012    2    1    2    0    0 -0.23511655729E+01 -0.32981094467E+02 -0.28113037791E+02  0.47787268835E+02  0.19999989928E+02 0.  0.
        -12    1    1    2    0    0  0.23511655729E+01  0.32981094467E+02  0.28113037791E+02  0.43400731165E+02  0.00000000000E+00 0.  1.
         11    1    3    3    0    0  0.41548506936E+00 -0.97217733454E+01 -0.17986418673E+02  0.20449859701E+02  0.51100000000E-03 0.  1.
        -11    1    3    3    0    0 -0.53977071724E+01 -0.98022094285E+01 -0.19094641479E+01  0.11351854738E+02  0.51100000000E-03 0. -1.
        -12    1    3    3    0    0  0.26310565301E+01 -0.13457111693E+02 -0.82171549699E+01  0.15985554397E+02  0.00000000000E+00 0.  1.
</event>
<event>
 7    1  0.2642243E-009  0.4778727E+02  0.7816164E-02  0.1312668E+00
        -11   -1    0    0    0    0  0.00000000000E+00  0.00000000000E+00  0.45593999997E+02  0.45594000000E+02  0.51100000000E-03 0. -1.
         11   -1    0    0    0    0 -0.00000000000E+00 -0.00000000000E+00 -0.45593999997E+02  0.45594000000E+02  0.51100000000E-03 0.  1.
    9900012    2    1    2    0    0 -0.21838090838E+02 -0.34047503613E+02  0.15731772866E+02  0.47787269692E+02  0.19999993835E+02 0.  0.
        -12    1    1    2    0    0  0.21838090838E+02  0.34047503613E+02 -0.15731772866E+02  0.43400730308E+02  0.00000000000E+00 0.  1.
         11    1    3    3    0    0 -0.55302166281E+01 -0.18635638439E+02  0.22842739214E+00  0.19440228788E+02  0.51100000000E-03 0. -1.
        -11    1    3    3    0    0 -0.50970447152E+01 -0.10041211098E+01  0.17195858963E+01  0.54722116139E+01  0.51100000000E-03 0.  1.
         12    1    3    3    0    0 -0.11210829495E+02 -0.14407744064E+02  0.13783759578E+02  0.22874829290E+02  0.00000000000E+00 0. -1.
</event>
<event>
 7    1  0.2642243E-009  0.4778728E+02  0.7816164E-02  0.1312668E+00
        -11   -1    0    0    0    0  0.00000000000E+00  0.00000000000E+00  0.45593999997E+02  0.45594000000E+02  0.51100000000E-03 0.  1.
         11   -1    0    0    0    0 -0.00000000000E+00 -0.00000000000E+00 -0.45593999997E+02  0.45594000000E+02  0.51100000000E-03 0. -1.
    9900012    2    1    2    0    0 -0.14959574376E+02 -0.23398324118E+01 -0.40673814183E+02  0.47787276026E+02  0.20000022715E+02 0.  0.
        -12    1    1    2    0    0  0.14959574376E+02  0.23398324118E+01  0.40673814183E+02  0.43400723974E+02  0.00000000000E+00 0.  1.
         11    1    3    3    0    0 -0.30924027997E+01 -0.94852679877E+00 -0.10268240261E+02  0.10765659129E+02  0.51100000000E-03 0. -1.
        -11    1    3    3    0    0 -0.59862364642E+01 -0.65081220988E+01 -0.44077198688E+01  0.98802163418E+01  0.51100000000E-03 0.  1.
        -12    1    3    3    0    0 -0.58809351118E+01  0.51168164858E+01 -0.25997854053E+02  0.27141400556E+02  0.00000000000E+00 0.  1.
</event>
<event>
 7    1  0.2642243E-009  0.4778727E+02  0.7816164E-02  0.1312668E+00
        -11   -1    0    0    0    0  0.00000000000E+00  0.00000000000E+00  0.45593999997E+02  0.45594000000E+02  0.51100000000E-03 0.  1.
         11   -1    0    0    0    0 -0.00000000000E+00 -0.00000000000E+00 -0.45593999997E+02  0.45594000000E+02  0.51100000000E-03 0. -1.
    9900012    2    1    2    0    0  0.31675628205E+02  0.13437547788E+02 -0.26452038977E+02  0.47787268684E+02  0.19999989238E+02 0.  0.
        -12    1    1    2    0    0 -0.31675628205E+02 -0.13437547788E+02  0.26452038977E+02  0.43400731316E+02  0.00000000000E+00 0.  1.
         11    1    3    3    0    0  0.68957485201E+01 -0.11265525909E+00 -0.85724936858E+01  0.11002349163E+02  0.51100000000E-03 0. -1.
        -11    1    3    3    0    0  0.16267395833E+00  0.19662364996E+01 -0.73527821763E+01  0.76128808464E+01  0.51100000000E-03 0.  1.
        -12    1    3    3    0    0  0.24617205726E+02  0.11583966547E+02 -0.10526763115E+02  0.29172038674E+02  0.00000000000E+00 0.  1.
</event>
<event>
 7    1  0.2642243E-009  0.4778727E+02  0.7816164E-02  0.1312668E+00
        -11   -1    0    0    0    0  0.00000000000E+00  0.00000000000E+00  0.45593999997E+02  0.45594000000E+02  0.51100000000E-03 0. -1.
         11   -1    0    0    0    0 -0.00000000000E+00 -0.00000000000E+00 -0.45593999997E+02  0.45594000000E+02  0.51100000000E-03 0.  1.
    9900012    2    1    2    0    0 -0.12121927011E+02  0.40962452395E+02 -0.76654720090E+01  0.47787273257E+02  0.20000010090E+02 0.  0.
        -12    1    1    2    0    0  0.12121927011E+02 -0.40962452395E+02  0.76654720090E+01  0.43400726743E+02  0.00000000000E+00 0.  1.
         11    1    3    3    0    0 -0.73711879132E+01  0.23885884997E+02 -0.10519584350E+02  0.27120685251E+02  0.51100000000E-03 0. -1.
        -11    1    3    3    0    0  0.31799410311E+01  0.61738576770E+01  0.34624307327E+00  0.69533033951E+01  0.51100000000E-03 0.  1.
         12    1    3    3    0    0 -0.79306801294E+01  0.10902709721E+02  0.25078692672E+01  0.13713284611E+02  0.00000000000E+00 0. -1.
</event>
<event>
 7    1  0.2642243E-009  0.4778727E+02  0.7816164E-02  0.1312668E+00
        -11   -1    0    0    0    0  0.00000000000E+00  0.00000000000E+00  0.45593999997E+02  0.45594000000E+02  0.51100000000E-03 0.  1.
         11   -1    0    0    0    0 -0.00000000000E+00 -0.00000000000E+00 -0.45593999997E+02  0.45594000000E+02  0.51100000000E-03 0. -1.
    9900012    2    1    2    0    0  0.30036432342E+01  0.19670683143E+02 -0.38570274682E+02  0.47787265709E+02  0.19999975671E+02 0.  0.
        -12    1    1    2    0    0 -0.30036432342E+01 -0.19670683143E+02  0.38570274682E+02  0.43400734291E+02  0.00000000000E+00 0.  1.
         11    1    3    3    0    0  0.20412315848E+01  0.14318062205E+01 -0.57948836767E+01  0.63085158733E+01  0.51100000000E-03 0. -1.
        -11    1    3    3    0    0  0.29872853523E+01 -0.25224947904E+01 -0.92192660759E+01  0.10014076142E+02  0.51100000000E-03 0.  1.
        -12    1    3    3    0    0 -0.20248737029E+01  0.20761371713E+02 -0.23556124929E+02  0.31464673693E+02  0.00000000000E+00 0.  1.
</event>
<event>
 7    1  0.2642243E-009  0.4778727E+02  0.7816164E-02  0.1312668E+00
        -11   -1    0    0    0    0  0.00000000000E+00  0.00000000000E+00  0.45593999997E+02  0.45594000000E+02  0.51100000000E-03 0. -1.
         11   -1    0    0    0    0 -0.00000000000E+00 -0.00000000000E+00 -0.45593999997E+02  0.45594000000E+02  0.51100000000E-03 0.  1.
    9900012    2    1    2    0    0 -0.33569248860E+02 -0.26716119889E+02  0.65557395855E+01  0.47787271291E+02  0.20000001123E+02 0.  0.
        -12    1    1    2    0    0  0.33569248860E+02  0.26716119889E+02 -0.65557395855E+01  0.43400728709E+02  0.00000000000E+00 0.  1.
         11    1    3    3    0    0 -0.32643726868E+02 -0.18412160034E+02  0.46282467529E+01  0.37762960811E+02  0.51100000000E-03 0. -1.
        -11    1    3    3    0    0  0.10140087906E+01 -0.67992628916E+00  0.17770263789E+01  0.21560001388E+01  0.51100000000E-03 0.  1.
         12    1    3    3    0    0 -0.19395307832E+01 -0.76240335654E+01  0.15046645370E+00  0.78683103408E+01  0.00000000000E+00 0. -1.
</event>
<event>
 7    1  0.2642243E-009  0.4778726E+02  0.7816164E-02  0.1312668E+00
        -11   -1    0    0    0    0  0.00000000000E+00  0.00000000000E+00  0.45593999997E+02  0.45594000000E+02  0.51100000000E-03 0.  1.
         11   -1    0    0    0    0 -0.00000000000E+00 -0.00000000000E+00 -0.45593999997E+02  0.45594000000E+02  0.51100000000E-03 0. -1.
    9900012    2    1    2    0    0 -0.20940962384E+02 -0.37884515073E+02 -0.31406646982E+01  0.47787260806E+02  0.19999953317E+02 0.  0.
        -12    1    1    2    0    0  0.20940962384E+02  0.37884515073E+02  0.31406646982E+01  0.43400739194E+02  0.00000000000E+00 0.  1.
         11    1    3    3    0    0 -0.32849957832E+01 -0.87771945118E+01  0.45470548558E+01  0.10416623681E+02  0.51100000000E-03 0. -1.
        -11    1    3    3    0    0 -0.41060963885E+01 -0.78447590550E+01 -0.83195781526E+01  0.12149718231E+02  0.51100000000E-03 0.  1.
        -12    1    3    3    0    0 -0.13549870212E+02 -0.21262561506E+02  0.63185859862E+00  0.25220918894E+02  0.00000000000E+00 0.  1.
</event>
<event>
 7    1  0.2642243E-009  0.4778727E+02  0.7816164E-02  0.1312668E+00
        -11   -1    0    0    0    0  0.00000000000E+00  0.00000000000E+00  0.45593999997E+02  0.45594000000E+02  0.51100000000E-03 0. -1.
         11   -1    0    0    0    0 -0.00000000000E+00 -0.00000000000E+00 -0.45593999997E+02  0.45594000000E+02  0.51100000000E-03 0.  1.
    9900012    2    1    2    0    0 -0.29249405141E+02  0.29784288502E+02  0.11873986416E+02  0.47787273093E+02  0.20000009339E+02 0.  0.
        -12    1    1    2    0    0  0.29249405141E+02 -0.29784288502E+02 -0.11873986416E+02  0.43400726907E+02  0.00000000000E+00 0.  1.
         11    1    3    3    0    0 -0.79215776903E+01  0.80998452601E+01 -0.46052421587E+01  0.12229764591E+02  0.51100000000E-03 0.  1.
        -11    1    3    3    0    0 -0.17322628472E+02  0.17124142275E+02  0.90986379720E+01  0.26001825302E+02  0.51100000000E-03 0. -1.
         12    1    3    3    0    0 -0.40051989785E+01  0.45603009668E+01  0.73805906032E+01  0.95556831999E+01  0.00000000000E+00 0. -1.
</event>
<event>
 7    1  0.2642243E-009  0.4778727E+02  0.7816164E-02  0.1312668E+00
        -11   -1    0    0    0    0  0.00000000000E+00  0.00000000000E+00  0.45593999997E+02  0.45594000000E+02  0.51100000000E-03 0.  1.
         11   -1    0    0    0    0 -0.00000000000E+00 -0.00000000000E+00 -0.45593999997E+02  0.45594000000E+02  0.51100000000E-03 0. -1.
    9900012    2    1    2    0    0 -0.12532136373E+01 -0.15877271887E+02 -0.40372829555E+02  0.47787266443E+02  0.19999979022E+02 0.  0.
        -12    1    1    2    0    0  0.12532136373E+01  0.15877271887E+02  0.40372829555E+02  0.43400733557E+02  0.00000000000E+00 0.  1.
         11    1    3    3    0    0  0.40338030949E+01 -0.49827106518E+01 -0.26984352611E+01  0.69556111139E+01  0.51100000000E-03 0. -1.
        -11    1    3    3    0    0  0.20571728971E+01 -0.44170772222E+00 -0.18645298706E+01  0.28113231653E+01  0.51100000000E-03 0.  1.
         12    1    3    3    0    0 -0.73441896293E+01 -0.10452853513E+02 -0.35809864423E+02  0.38020332164E+02  0.00000000000E+00 0. -1.
</event>
<event>
 7    1  0.2642243E-009  0.4778727E+02  0.7816164E-02  0.1312668E+00
        -11   -1    0    0    0    0  0.00000000000E+00  0.00000000000E+00  0.45593999997E+02  0.45594000000E+02  0.51100000000E-03 0.  1.
         11   -1    0    0    0    0 -0.00000000000E+00 -0.00000000000E+00 -0.45593999997E+02  0.45594000000E+02  0.51100000000E-03 0. -1.
    9900012    2    1    2    0    0 -0.25204563096E+02  0.35317086252E+02 -0.10279744952E+01  0.47787270584E+02  0.19999997903E+02 0.  0.
        -12    1    1    2    0    0  0.25204563096E+02 -0.35317086252E+02  0.10279744952E+01  0.43400729416E+02  0.00000000000E+00 0.  1.
         11    1    3    3    0    0 -0.20202148423E+02  0.15561970638E+02  0.68946998835E+00  0.25510333203E+02  0.51100000000E-03 0. -1.
        -11    1    3    3    0    0  0.69856972904E+00  0.28152254401E+00 -0.18372655805E+01  0.19856484290E+01  0.51100000000E-03 0.  1.
         12    1    3    3    0    0 -0.57009844027E+01  0.19473593071E+02  0.11982109697E+00  0.20291288952E+02  0.00000000000E+00 0. -1.
</event>
<event>
 7    1  0.2642243E-009  0.4778727E+02  0.7816164E-02  0.1312668E+00
        -11   -1    0    0    0    0  0.00000000000E+00  0.00000000000E+00  0.45593999997E+02  0.45594000000E+02  0.51100000000E-03 0.  1.
         11   -1    0    0    0    0 -0.00000000000E+00 -0.00000000000E+00 -0.45593999997E+02  0.45594000000E+02  0.51100000000E-03 0. -1.
    9900012    2    1    2    0    0 -0.27929222319E+01  0.33035664454E+02 -0.28008348187E+02  0.47787272948E+02  0.20000008677E+02 0.  0.
        -12    1    1    2    0    0  0.27929222319E+01 -0.33035664454E+02  0.28008348187E+02  0.43400727052E+02  0.00000000000E+00 0.  1.
         11    1    3    3    0    0  0.69497472923E-01  0.31326941600E+02 -0.18568688678E+02  0.36416731036E+02  0.51100000000E-03 0. -1.
        -11    1    3    3    0    0 -0.37499456746E+00 -0.12990680239E+01 -0.23477202892E+00  0.13723399080E+01  0.51100000000E-03 0.  1.
         12    1    3    3    0    0 -0.24874251374E+01  0.30077908784E+01 -0.92048874802E+01  0.99982020036E+01  0.00000000000E+00 0. -1.
</event>
<event>
 7    1  0.2642243E-009  0.4778726E+02  0.7816164E-02  0.1312668E+00
        -11   -1    0    0    0    0  0.00000000000E+00  0.00000000000E+00  0.45593999997E+02  0.45594000000E+02  0.51100000000E-03 0.  1.
         11   -1    0    0    0    0 -0.00000000000E+00 -0.00000000000E+00 -0.45593999997E+02  0.45594000000E+02  0.51100000000E-03 0. -1.
    9900012    2    1    2    0    0 -0.49044673302E+01  0.79193058393E+01 -0.42389324488E+02  0.47787262272E+02  0.19999960002E+02 0.  0.
        -12    1    1    2    0    0  0.49044673302E+01 -0.79193058393E+01  0.42389324488E+02  0.43400737728E+02  0.00000000000E+00 0.  1.
         11    1    3    3    0    0 -0.26768143838E+01  0.53476980973E+01 -0.45886342778E+01  0.75378229604E+01  0.51100000000E-03 0. -1.
        -11    1    3    3    0    0  0.22170439990E+01 -0.42671328710E+00 -0.32925669432E+02  0.33002985867E+02  0.51100000000E-03 0.  1.
        -12    1    3    3    0    0 -0.44446969454E+01  0.29983210291E+01 -0.48750207782E+01  0.72464534441E+01  0.00000000000E+00 0.  1.
</event>
<event>
 7    1  0.2642243E-009  0.4778727E+02  0.7816164E-02  0.1312668E+00
        -11   -1    0    0    0    0  0.00000000000E+00  0.00000000000E+00  0.45593999997E+02  0.45594000000E+02  0.51100000000E-03 0. -1.
         11   -1    0    0    0    0 -0.00000000000E+00 -0.00000000000E+00 -0.45593999997E+02  0.45594000000E+02  0.51100000000E-03 0.  1.
    9900012    2    1    2    0    0  0.38646950801E+02 -0.16846456535E+02  0.10306979185E+02  0.47787265860E+02  0.19999976362E+02 0.  0.
        -12    1    1    2    0    0 -0.38646950801E+02  0.16846456535E+02 -0.10306979185E+02  0.43400734140E+02  0.00000000000E+00 0.  1.
         11    1    3    3    0    0  0.15535970023E+02 -0.82969809486E+01 -0.43731866466E+01  0.18147479691E+02  0.51100000000E-03 0. -1.
        -11    1    3    3    0    0  0.23011561749E+02 -0.93555645525E+01  0.13704363421E+02  0.28370198083E+02  0.51100000000E-03 0.  1.
        -12    1    3    3    0    0  0.99419028340E-01  0.80608896585E+00  0.97580241096E+00  0.12695880865E+01  0.00000000000E+00 0.  1.
</event>
<event>
 7    1  0.2642243E-009  0.4778726E+02  0.7816164E-02  0.1312668E+00
        -11   -1    0    0    0    0  0.00000000000E+00  0.00000000000E+00  0.45593999997E+02  0.45594000000E+02  0.51100000000E-03 0.  1.
         11   -1    0    0    0    0 -0.00000000000E+00 -0.00000000000E+00 -0.45593999997E+02  0.45594000000E+02  0.51100000000E-03 0. -1.
    9900012    2    1    2    0    0 -0.11158021953E+02 -0.13503080914E+02 -0.39708812146E+02  0.47787257954E+02  0.19999940316E+02 0.  0.
        -12    1    1    2    0    0  0.11158021953E+02  0.13503080914E+02  0.39708812146E+02  0.43400742046E+02  0.00000000000E+00 0.  1.
         11    1    3    3    0    0 -0.52413387021E+01 -0.20187200595E+01 -0.22565349206E+02  0.23253856608E+02  0.51100000000E-03 0. -1.
        -11    1    3    3    0    0 -0.56637007443E+01 -0.48415611220E+01 -0.15899051373E+01  0.76187937908E+01  0.51100000000E-03 0.  1.
         12    1    3    3    0    0 -0.25298250629E+00 -0.66427997329E+01 -0.15553557803E+02  0.16914607556E+02  0.00000000000E+00 0. -1.
</event>
<event>
 7    1  0.2642243E-009  0.4778727E+02  0.7816164E-02  0.1312668E+00
        -11   -1    0    0    0    0  0.00000000000E+00  0.00000000000E+00  0.45593999997E+02  0.45594000000E+02  0.51100000000E-03 0.  1.
         11   -1    0    0    0    0 -0.00000000000E+00 -0.00000000000E+00 -0.45593999997E+02  0.45594000000E+02  0.51100000000E-03 0. -1.
    9900012    2    1    2    0    0 -0.39067058330E+02  0.18230825799E+02  0.50025073180E+01  0.47787272640E+02  0.20000007276E+02 0.  0.
        -12    1    1    2    0    0  0.39067058330E+02 -0.18230825799E+02 -0.50025073180E+01  0.43400727360E+02  0.00000000000E+00 0.  1.
         11    1    3    3    0    0 -0.32710222527E+02  0.14604469416E+02  0.10871160078E+02  0.37435695618E+02  0.51100000000E-03 0.  1.
        -11    1    3    3    0    0 -0.35643799336E+01  0.43310755508E+01 -0.43320324653E+01  0.70872791168E+01  0.51100000000E-03 0. -1.
        -12    1    3    3    0    0 -0.27924558695E+01 -0.70471916718E+00 -0.15366202948E+01  0.32642979058E+01  0.00000000000E+00 0.  1.
</event>
<event>
 7    1  0.2642243E-009  0.4778727E+02  0.7816164E-02  0.1312668E+00
        -11   -1    0    0    0    0  0.00000000000E+00  0.00000000000E+00  0.45593999997E+02  0.45594000000E+02  0.51100000000E-03 0. -1.
         11   -1    0    0    0    0 -0.00000000000E+00 -0.00000000000E+00 -0.45593999997E+02  0.45594000000E+02  0.51100000000E-03 0.  1.
    9900012    2    1    2    0    0  0.38877489766E+01  0.28664147301E+02  0.32355453636E+02  0.47787270598E+02  0.19999997965E+02 0.  0.
        -12    1    1    2    0    0 -0.38877489766E+01 -0.28664147301E+02 -0.32355453636E+02  0.43400729402E+02  0.00000000000E+00 0.  1.
         11    1    3    3    0    0  0.29026289879E+01  0.19146968971E+02  0.27508016492E+02  0.33641085705E+02  0.51100000000E-03 0. -1.
        -11    1    3    3    0    0 -0.39058497582E+01  0.50919956306E+01  0.95670353297E+00  0.64884022491E+01  0.51100000000E-03 0.  1.
        -12    1    3    3    0    0  0.48909697469E+01  0.44251826992E+01  0.38907336116E+01  0.76577826440E+01  0.00000000000E+00 0.  1.
</event>
<event>
 7    1  0.2642243E-009  0.4778727E+02  0.7816164E-02  0.1312668E+00
        -11   -1    0    0    0    0  0.00000000000E+00  0.00000000000E+00  0.45593999997E+02  0.45594000000E+02  0.51100000000E-03 0.  1.
         11   -1    0    0    0    0 -0.00000000000E+00 -0.00000000000E+00 -0.45593999997E+02  0.45594000000E+02  0.51100000000E-03 0. -1.
    9900012    2    1    2    0    0 -0.15398103068E+02 -0.37914454474E+02  0.14457378252E+02  0.47787271642E+02  0.20000002723E+02 0.  0.
        -12    1    1    2    0    0  0.15398103068E+02  0.37914454474E+02 -0.14457378252E+02  0.43400728358E+02  0.00000000000E+00 0.  1.
         11    1    3    3    0    0 -0.11235397637E+02 -0.15205482587E+02  0.84830987754E+01  0.20722061332E+02  0.51100000000E-03 0. -1.
        -11    1    3    3    0    0  0.48054588226E+00 -0.16006647325E+02 -0.13955038632E+01  0.16074548648E+02  0.51100000000E-03 0.  1.
         12    1    3    3    0    0 -0.46432513132E+01 -0.67023245610E+01  0.73697833395E+01  0.10990661661E+02  0.00000000000E+00 0. -1.
</event>
<event>
 7    1  0.2642243E-009  0.4778727E+02  0.7816164E-02  0.1312668E+00
        -11   -1    0    0    0    0  0.00000000000E+00  0.00000000000E+00  0.45593999997E+02  0.45594000000E+02  0.51100000000E-03 0. -1.
         11   -1    0    0    0    0 -0.00000000000E+00 -0.00000000000E+00 -0.45593999997E+02  0.45594000000E+02  0.51100000000E-03 0.  1.
    9900012    2    1    2    0    0 -0.38718778562E+02  0.11716261524E+02  0.15722871910E+02  0.47787270760E+02  0.19999998704E+02 0.  0.
        -12    1    1    2    0    0  0.38718778562E+02 -0.11716261524E+02 -0.15722871910E+02  0.43400729240E+02  0.00000000000E+00 0.  1.
         11    1    3    3    0    0 -0.19240524841E+02 -0.23564816767E+00  0.71241721997E+00  0.19255151642E+02  0.51100000000E-03 0. -1.
        -11    1    3    3    0    0  0.77997643088E+00  0.77018292755E+00  0.40331961214E+00  0.11679948396E+01  0.51100000000E-03 0.  1.
         12    1    3    3    0    0 -0.20258230152E+02  0.11181726764E+02  0.14607135078E+02  0.27364124278E+02  0.00000000000E+00 0. -1.
</event>
<event>
 7    1  0.2642243E-009  0.4778727E+02  0.7816164E-02  0.1312668E+00
        -11   -1    0    0    0    0  0.00000000000E+00  0.00000000000E+00  0.45593999997E+02  0.45594000000E+02  0.51100000000E-03 0.  1.
         11   -1    0    0    0    0 -0.00000000000E+00 -0.00000000000E+00 -0.45593999997E+02  0.45594000000E+02  0.51100000000E-03 0. -1.
    9900012    2    1    2    0    0  0.42151430695E+02 -0.70699706482E+01  0.75429353382E+01  0.47787268807E+02  0.19999989798E+02 0.  0.
        -12    1    1    2    0    0 -0.42151430695E+02  0.70699706482E+01 -0.75429353382E+01  0.43400731193E+02  0.00000000000E+00 0.  1.
         11    1    3    3    0    0  0.19180087824E+02 -0.24021574810E+01  0.70935786399E+01  0.20590410091E+02  0.51100000000E-03 0. -1.
        -11    1    3    3    0    0 -0.12376223807E+00 -0.40453254137E+01  0.60921561012E+00  0.40928130564E+01  0.51100000000E-03 0.  1.
        -12    1    3    3    0    0  0.23095105109E+02 -0.62248775349E+00 -0.15985891184E+00  0.23104045660E+02  0.00000000000E+00 0.  1.
</event>
<event>
 7    1  0.2642243E-009  0.4778726E+02  0.7816164E-02  0.1312668E+00
        -11   -1    0    0    0    0  0.00000000000E+00  0.00000000000E+00  0.45593999997E+02  0.45594000000E+02  0.51100000000E-03 0.  1.
         11   -1    0    0    0    0 -0.00000000000E+00 -0.00000000000E+00 -0.45593999997E+02  0.45594000000E+02  0.51100000000E-03 0. -1.
    9900012    2    1    2    0    0 -0.32299609341E+02  0.27313958794E+02 -0.97111672501E+01  0.47787264085E+02  0.19999968270E+02 0.  0.
        -12    1    1    2    0    0  0.32299609341E+02 -0.27313958794E+02  0.97111672501E+01  0.43400735915E+02  0.00000000000E+00 0.  1.
         11    1    3    3    0    0 -0.18693627898E+02  0.11643029302E+02 -0.11037449927E+02  0.24634064960E+02  0.51100000000E-03 0. -1.
        -11    1    3    3    0    0 -0.45070544214E+00  0.38902226618E+01 -0.30453516133E+01  0.49609610424E+01  0.51100000000E-03 0.  1.
         12    1    3    3    0    0 -0.13155276001E+02  0.11780706830E+02  0.43716342904E+01  0.18192238082E+02  0.00000000000E+00 0. -1.
</event>
<event>
 7    1  0.2642243E-009  0.4778727E+02  0.7816164E-02  0.1312668E+00
        -11   -1    0    0    0    0  0.00000000000E+00  0.00000000000E+00  0.45593999997E+02  0.45594000000E+02  0.51100000000E-03 0.  1.
         11   -1    0    0    0    0 -0.00000000000E+00 -0.00000000000E+00 -0.45593999997E+02  0.45594000000E+02  0.51100000000E-03 0. -1.
    9900012    2    1    2    0    0 -0.39175404520E+02  0.14654360388E+02 -0.11582773882E+02  0.47787271337E+02  0.20000001334E+02 0.  0.
        -12    1    1    2    0    0  0.39175404520E+02 -0.14654360388E+02  0.11582773882E+02  0.43400728663E+02  0.00000000000E+00 0.  1.
         11    1    3    3    0    0 -0.11987756526E+02  0.33990286547E+01 -0.93664193385E+01  0.15588120920E+02  0.51100000000E-03 0. -1.
        -11    1    3    3    0    0 -0.18288657907E+02  0.50266586917E+01  0.44132973884E+01  0.19473558990E+02  0.51100000000E-03 0.  1.
        -12    1    3    3    0    0 -0.88989900868E+01  0.62286730421E+01 -0.66296519319E+01  0.12725591427E+02  0.00000000000E+00 0.  1.
</event>
<event>
 7    1  0.2642243E-009  0.4778727E+02  0.7816164E-02  0.1312668E+00
        -11   -1    0    0    0    0  0.00000000000E+00  0.00000000000E+00  0.45593999997E+02  0.45594000000E+02  0.51100000000E-03 0.  1.
         11   -1    0    0    0    0 -0.00000000000E+00 -0.00000000000E+00 -0.45593999997E+02  0.45594000000E+02  0.51100000000E-03 0. -1.
    9900012    2    1    2    0    0 -0.29260050029E+01 -0.42188593817E+02 -0.97562705685E+01  0.47787265341E+02  0.19999973997E+02 0.  0.
        -12    1    1    2    0    0  0.29260050029E+01  0.42188593817E+02  0.97562705685E+01  0.43400734659E+02  0.00000000000E+00 0.  1.
         11    1    3    3    0    0  0.25894068669E+00 -0.24767156148E+01 -0.73954881710E+01  0.78034874297E+01  0.51100000000E-03 0. -1.
        -11    1    3    3    0    0 -0.16744906905E+01 -0.21091584049E+02 -0.33992826184E-01  0.21157977043E+02  0.51100000000E-03 0.  1.
         12    1    3    3    0    0 -0.15104549990E+01 -0.18620294153E+02 -0.23267895713E+01  0.18825800869E+02  0.00000000000E+00 0. -1.
</event>
<event>
 7    1  0.2642243E-009  0.4778727E+02  0.7816164E-02  0.1312668E+00
        -11   -1    0    0    0    0  0.00000000000E+00  0.00000000000E+00  0.45593999997E+02  0.45594000000E+02  0.51100000000E-03 0. -1.
         11   -1    0    0    0    0 -0.00000000000E+00 -0.00000000000E+00 -0.45593999997E+02  0.45594000000E+02  0.51100000000E-03 0.  1.
    9900012    2    1    2    0    0  0.32710746499E+02 -0.28343972114E+02  0.32015262948E+01  0.47787268874E+02  0.19999990102E+02 0.  0.
        -12    1    1    2    0    0 -0.32710746499E+02  0.28343972114E+02 -0.32015262948E+01  0.43400731126E+02  0.00000000000E+00 0.  1.
         11    1    3    3    0    0  0.63718345033E+01 -0.57024218801E+01 -0.55808561542E+01  0.10210966943E+02  0.51100000000E-03 0.  1.
        -11    1    3    3    0    0  0.60501947001E+01 -0.50775229610E+01  0.72111222375E+01  0.10695156825E+02  0.51100000000E-03 0. -1.
        -12    1    3    3    0    0  0.20288717295E+02 -0.17564027273E+02  0.15712602115E+01  0.26881145105E+02  0.00000000000E+00 0.  1.
</event>
<event>
 7    1  0.2642243E-009  0.4778727E+02  0.7816164E-02  0.1312668E+00
        -11   -1    0    0    0    0  0.00000000000E+00  0.00000000000E+00  0.45593999997E+02  0.45594000000E+02  0.51100000000E-03 0.  1.
         11   -1    0    0    0    0 -0.00000000000E+00 -0.00000000000E+00 -0.45593999997E+02  0.45594000000E+02  0.51100000000E-03 0. -1.
    9900012    2    1    2    0    0 -0.23421594030E+02  0.33256504797E+01 -0.36386706563E+02  0.47787269217E+02  0.19999991667E+02 0.  0.
        -12    1    1    2    0    0  0.23421594030E+02 -0.33256504797E+01  0.36386706563E+02  0.43400730783E+02  0.00000000000E+00 0.  1.
         11    1    3    3    0    0 -0.59727783462E+01  0.79042955115E+01 -0.74368835383E+01  0.12387865261E+02  0.51100000000E-03 0. -1.
        -11    1    3    3    0    0 -0.59472704307E+01 -0.46517634079E+01 -0.57008252507E+01  0.94608845875E+01  0.51100000000E-03 0.  1.
         12    1    3    3    0    0 -0.11501545254E+02  0.73118376128E-01 -0.23248997774E+02  0.25938519368E+02  0.00000000000E+00 0. -1.
</event>
<event>
 7    1  0.2642243E-009  0.4778726E+02  0.7816164E-02  0.1312668E+00
        -11   -1    0    0    0    0  0.00000000000E+00  0.00000000000E+00  0.45593999997E+02  0.45594000000E+02  0.51100000000E-03 0. -1.
         11   -1    0    0    0    0 -0.00000000000E+00 -0.00000000000E+00 -0.45593999997E+02  0.45594000000E+02  0.51100000000E-03 0.  1.
    9900012    2    1    2    0    0  0.35462104096E+02  0.24044870928E+01  0.24905458108E+02  0.47787260045E+02  0.19999949848E+02 0.  0.
        -12    1    1    2    0    0 -0.35462104096E+02 -0.24044870928E+01 -0.24905458108E+02  0.43400739955E+02  0.00000000000E+00 0.  1.
         11    1    3    3    0    0  0.33459845553E+02  0.42013150837E+01  0.21818614829E+02  0.40165461110E+02  0.51100000000E-03 0. -1.
        -11    1    3    3    0    0 -0.89566134065E+00  0.19068763105E+01  0.22978890387E+00  0.21192427190E+01  0.51100000000E-03 0.  1.
         12    1    3    3    0    0  0.28979198836E+01 -0.37037043014E+01  0.28570543751E+01  0.55025562156E+01  0.00000000000E+00 0. -1.
</event>
<event>
 7    1  0.2642243E-009  0.4778727E+02  0.7816164E-02  0.1312668E+00
        -11   -1    0    0    0    0  0.00000000000E+00  0.00000000000E+00  0.45593999997E+02  0.45594000000E+02  0.51100000000E-03 0.  1.
         11   -1    0    0    0    0 -0.00000000000E+00 -0.00000000000E+00 -0.45593999997E+02  0.45594000000E+02  0.51100000000E-03 0. -1.
    9900012    2    1    2    0    0 -0.34979604592E+02 -0.54578786987E+01 -0.25105023172E+02  0.47787269986E+02  0.19999995175E+02 0.  0.
        -12    1    1    2    0    0  0.34979604592E+02  0.54578786987E+01  0.25105023172E+02  0.43400730014E+02  0.00000000000E+00 0.  1.
         11    1    3    3    0    0 -0.12371185994E+02 -0.31905107440E+01 -0.86472028192E+01  0.15427239499E+02  0.51100000000E-03 0. -1.
        -11    1    3    3    0    0 -0.13608762801E+02 -0.60345859081E+01 -0.21481807629E+01  0.15040921943E+02  0.51100000000E-03 0.  1.
        -12    1    3    3    0    0 -0.89996557971E+01  0.37672179533E+01 -0.14309639590E+02  0.17319108544E+02  0.00000000000E+00 0.  1.
</event>
<event>
 7    1  0.2642243E-009  0.4778728E+02  0.7816164E-02  0.1312668E+00
        -11   -1    0    0    0    0  0.00000000000E+00  0.00000000000E+00  0.45593999997E+02  0.45594000000E+02  0.51100000000E-03 0.  1.
         11   -1    0    0    0    0 -0.00000000000E+00 -0.00000000000E+00 -0.45593999997E+02  0.45594000000E+02  0.51100000000E-03 0. -1.
    9900012    2    1    2    0    0 -0.43347733771E+02  0.21163672964E+01  0.34260554852E+00  0.47787280972E+02  0.20000045263E+02 0.  0.
        -12    1    1    2    0    0  0.43347733771E+02 -0.21163672964E+01 -0.34260554852E+00  0.43400719028E+02  0.00000000000E+00 0.  1.
         11    1    3    3    0    0 -0.11724810821E+02  0.29595449760E+01 -0.33290465978E+00  0.12097145160E+02  0.51100000000E-03 0. -1.
        -11    1    3    3    0    0 -0.31861008711E+02 -0.33470984077E+01 -0.18968577210E+01  0.32092444801E+02  0.51100000000E-03 0.  1.
        -12    1    3    3    0    0  0.23808576150E+00  0.25039207281E+01  0.25723679293E+01  0.35976910103E+01  0.00000000000E+00 0.  1.
</event>
<event>
 7    1  0.2642243E-009  0.4778727E+02  0.7816164E-02  0.1312668E+00
        -11   -1    0    0    0    0  0.00000000000E+00  0.00000000000E+00  0.45593999997E+02  0.45594000000E+02  0.51100000000E-03 0. -1.
         11   -1    0    0    0    0 -0.00000000000E+00 -0.00000000000E+00 -0.45593999997E+02  0.45594000000E+02  0.51100000000E-03 0.  1.
    9900012    2    1    2    0    0  0.20268559790E+02 -0.36767603211E+02  0.10997830567E+02  0.47787269142E+02  0.19999991325E+02 0.  0.
        -12    1    1    2    0    0 -0.20268559790E+02  0.36767603211E+02 -0.10997830567E+02  0.43400730858E+02  0.00000000000E+00 0.  1.
         11    1    3    3    0    0  0.13026974007E+02 -0.27403813053E+02  0.12366090061E+02  0.32765701660E+02  0.51100000000E-03 0. -1.
        -11    1    3    3    0    0 -0.10780243807E+01 -0.28385029724E+01  0.23223587320E+01  0.38226412375E+01  0.51100000000E-03 0.  1.
         12    1    3    3    0    0  0.83196101633E+01 -0.65252871859E+01 -0.36906182265E+01  0.11198926244E+02  0.00000000000E+00 0. -1.
</event>
<event>
 7    1  0.2642243E-009  0.4778727E+02  0.7816164E-02  0.1312668E+00
        -11   -1    0    0    0    0  0.00000000000E+00  0.00000000000E+00  0.45593999997E+02  0.45594000000E+02  0.51100000000E-03 0. -1.
         11   -1    0    0    0    0 -0.00000000000E+00 -0.00000000000E+00 -0.45593999997E+02  0.45594000000E+02  0.51100000000E-03 0.  1.
    9900012    2    1    2    0    0  0.26159668955E+02  0.34546031042E+02 -0.24221572582E+01  0.47787269749E+02  0.19999994092E+02 0.  0.
        -12    1    1    2    0    0 -0.26159668955E+02 -0.34546031042E+02  0.24221572582E+01  0.43400730251E+02  0.00000000000E+00 0.  1.
         11    1    3    3    0    0  0.11512390719E+02  0.20051097866E+02 -0.95674211543E+00  0.23140808574E+02  0.51100000000E-03 0. -1.
        -11    1    3    3    0    0  0.38270885296E+01 -0.20706400547E+01 -0.21392443650E+01  0.48487651587E+01  0.51100000000E-03 0.  1.
        -12    1    3    3    0    0  0.10820189706E+02  0.16565573231E+02  0.67382922217E+00  0.19797696016E+02  0.00000000000E+00 0.  1.
</event>
<event>
 7    1  0.2642243E-009  0.4778728E+02  0.7816164E-02  0.1312668E+00
        -11   -1    0    0    0    0  0.00000000000E+00  0.00000000000E+00  0.45593999997E+02  0.45594000000E+02  0.51100000000E-03 0. -1.
         11   -1    0    0    0    0 -0.00000000000E+00 -0.00000000000E+00 -0.45593999997E+02  0.45594000000E+02  0.51100000000E-03 0.  1.
    9900012    2    1    2    0    0  0.38822564913E+02  0.73246417578E+01  0.17966105305E+02  0.47787275777E+02  0.20000021577E+02 0.  0.
        -12    1    1    2    0    0 -0.38822564913E+02 -0.73246417578E+01 -0.17966105305E+02  0.43400724223E+02  0.00000000000E+00 0.  1.
         11    1    3    3    0    0  0.35411359472E+02  0.78928682614E+01  0.14209158595E+02  0.38963597592E+02  0.51100000000E-03 0. -1.
        -11    1    3    3    0    0 -0.16431267234E+01 -0.86386523613E+00  0.32403318941E+01  0.37344182439E+01  0.51100000000E-03 0.  1.
        -12    1    3    3    0    0  0.50543321641E+01  0.29563873254E+00  0.51661481550E+00  0.50892599415E+01  0.00000000000E+00 0.  1.
</event>
<event>
 7    1  0.2642243E-009  0.4778727E+02  0.7816164E-02  0.1312668E+00
        -11   -1    0    0    0    0  0.00000000000E+00  0.00000000000E+00  0.45593999997E+02  0.45594000000E+02  0.51100000000E-03 0.  1.
         11   -1    0    0    0    0 -0.00000000000E+00 -0.00000000000E+00 -0.45593999997E+02  0.45594000000E+02  0.51100000000E-03 0. -1.
    9900012    2    1    2    0    0  0.27178716908E+02 -0.25829182363E+01 -0.33738244510E+02  0.47787271181E+02  0.20000000624E+02 0.  0.
        -12    1    1    2    0    0 -0.27178716908E+02  0.25829182363E+01  0.33738244510E+02  0.43400728819E+02  0.00000000000E+00 0.  1.
         11    1    3    3    0    0  0.10103438514E+02  0.57803408540E+01 -0.75086416129E+01  0.13851769177E+02  0.51100000000E-03 0. -1.
        -11    1    3    3    0    0  0.56663660406E+01 -0.77644494805E+01 -0.84311726414E+01  0.12785892703E+02  0.51100000000E-03 0.  1.
         12    1    3    3    0    0  0.11408912353E+02 -0.59880960980E+00 -0.17798430256E+02  0.21149609301E+02  0.00000000000E+00 0. -1.
</event>
<event>
 7    1  0.2642243E-009  0.4778727E+02  0.7816164E-02  0.1312668E+00
        -11   -1    0    0    0    0  0.00000000000E+00  0.00000000000E+00  0.45593999997E+02  0.45594000000E+02  0.51100000000E-03 0.  1.
         11   -1    0    0    0    0 -0.00000000000E+00 -0.00000000000E+00 -0.45593999997E+02  0.45594000000E+02  0.51100000000E-03 0. -1.
    9900012    2    1    2    0    0 -0.41043899359E+02 -0.14104263937E+02 -0.30222518267E+00  0.47787271022E+02  0.19999999897E+02 0.  0.
        -12    1    1    2    0    0  0.41043899359E+02  0.14104263937E+02  0.30222518267E+00  0.43400728978E+02  0.00000000000E+00 0.  1.
         11    1    3    3    0    0 -0.10042901806E+02 -0.10552459429E+02 -0.31336447597E+01  0.14900805563E+02  0.51100000000E-03 0. -1.
        -11    1    3    3    0    0 -0.86740163904E+01  0.34725774367E+01  0.12599231624E+01  0.94278715006E+01  0.51100000000E-03 0.  1.
        -12    1    3    3    0    0 -0.22326981162E+02 -0.70243819448E+01  0.15714964146E+01  0.23458593959E+02  0.00000000000E+00 0.  1.
</event>
<event>
 7    1  0.2642243E-009  0.4778727E+02  0.7816164E-02  0.1312668E+00
        -11   -1    0    0    0    0  0.00000000000E+00  0.00000000000E+00  0.45593999997E+02  0.45594000000E+02  0.51100000000E-03 0.  1.
         11   -1    0    0    0    0 -0.00000000000E+00 -0.00000000000E+00 -0.45593999997E+02  0.45594000000E+02  0.51100000000E-03 0. -1.
    9900012    2    1    2    0    0 -0.30753738736E+02 -0.25553493545E+02 -0.16877499337E+02  0.47787268872E+02  0.19999990095E+02 0.  0.
        -12    1    1    2    0    0  0.30753738736E+02  0.25553493545E+02  0.16877499337E+02  0.43400731128E+02  0.00000000000E+00 0.  1.
         11    1    3    3    0    0 -0.14650995094E+02 -0.12165593998E+02  0.17529852658E+01  0.19123971663E+02  0.51100000000E-03 0. -1.
        -11    1    3    3    0    0 -0.99490065128E+01 -0.11104253550E+02 -0.15057686974E+02  0.21190118328E+02  0.51100000000E-03 0.  1.
        -12    1    3    3    0    0 -0.61537371286E+01 -0.22836459973E+01 -0.35727976287E+01  0.74731788808E+01  0.00000000000E+00 0.  1.
</event>
<event>
 7    1  0.2642243E-009  0.4778727E+02  0.7816164E-02  0.1312668E+00
        -11   -1    0    0    0    0  0.00000000000E+00  0.00000000000E+00  0.45593999997E+02  0.45594000000E+02  0.51100000000E-03 0.  1.
         11   -1    0    0    0    0 -0.00000000000E+00 -0.00000000000E+00 -0.45593999997E+02  0.45594000000E+02  0.51100000000E-03 0. -1.
    9900012    2    1    2    0    0 -0.36591526978E+02  0.20628776252E+02 -0.10914980158E+02  0.47787273646E+02  0.20000011861E+02 0.  0.
        -12    1    1    2    0    0  0.36591526978E+02 -0.20628776252E+02  0.10914980158E+02  0.43400726354E+02  0.00000000000E+00 0.  1.
         11    1    3    3    0    0  0.13504629402E+01  0.40461466715E-01  0.18117729004E+01  0.22600682704E+01  0.51100000000E-03 0. -1.
        -11    1    3    3    0    0 -0.42620283578E+01  0.29229770476E+01  0.65638837308E+00  0.52095610661E+01  0.51100000000E-03 0.  1.
         12    1    3    3    0    0 -0.33679961560E+02  0.17665337737E+02 -0.13383141431E+02  0.40317644309E+02  0.00000000000E+00 0. -1.
</event>
<event>
 7    1  0.2642243E-009  0.4778730E+02  0.7816164E-02  0.1312668E+00
        -11   -1    0    0    0    0  0.00000000000E+00  0.00000000000E+00  0.45593999997E+02  0.45594000000E+02  0.51100000000E-03 0.  1.
         11   -1    0    0    0    0 -0.00000000000E+00 -0.00000000000E+00 -0.45593999997E+02  0.45594000000E+02  0.51100000000E-03 0. -1.
    9900012    2    1    2    0    0  0.54020213882E+01 -0.36742572330E+02 -0.22459348707E+02  0.47787299535E+02  0.20000129898E+02 0.  0.
        -12    1    1    2    0    0 -0.54020213882E+01  0.36742572330E+02  0.22459348707E+02  0.43400700465E+02  0.00000000000E+00 0.  1.
         11    1    3    3    0    0 -0.65115907738E+01 -0.10754276486E+02 -0.80357527857E+01  0.14920743957E+02  0.51100000000E-03 0. -1.
        -11    1    3    3    0    0  0.71430119738E+01 -0.19859415116E+02 -0.73117377230E+01  0.22335632913E+02  0.51100000000E-03 0.  1.
         12    1    3    3    0    0  0.47706001882E+01 -0.61288807287E+01 -0.71118581985E+01  0.10530922665E+02  0.00000000000E+00 0. -1.
</event>
<event>
 7    1  0.2642243E-009  0.4778729E+02  0.7816164E-02  0.1312668E+00
        -11   -1    0    0    0    0  0.00000000000E+00  0.00000000000E+00  0.45593999997E+02  0.45594000000E+02  0.51100000000E-03 0.  1.
         11   -1    0    0    0    0 -0.00000000000E+00 -0.00000000000E+00 -0.45593999997E+02  0.45594000000E+02  0.51100000000E-03 0. -1.
    9900012    2    1    2    0    0  0.32798581096E+02  0.19089553979E+02 -0.21058584931E+02  0.47787285809E+02  0.20000067317E+02 0.  0.
        -12    1    1    2    0    0 -0.32798581096E+02 -0.19089553979E+02  0.21058584931E+02  0.43400714191E+02  0.00000000000E+00 0.  1.
         11    1    3    3    0    0  0.12638495832E+01  0.38684231154E+01 -0.57551693715E+01  0.70486869645E+01  0.51100000000E-03 0. -1.
        -11    1    3    3    0    0  0.17821973440E+02  0.10816686263E+02 -0.16828853247E+01  0.20915437894E+02  0.51100000000E-03 0.  1.
        -12    1    3    3    0    0  0.13712758073E+02  0.44044446003E+01 -0.13620530235E+02  0.19823160951E+02  0.00000000000E+00 0.  1.
</event>
<event>
 7    1  0.2642243E-009  0.4778727E+02  0.7816164E-02  0.1312668E+00
        -11   -1    0    0    0    0  0.00000000000E+00  0.00000000000E+00  0.45593999997E+02  0.45594000000E+02  0.51100000000E-03 0.  1.
         11   -1    0    0    0    0 -0.00000000000E+00 -0.00000000000E+00 -0.45593999997E+02  0.45594000000E+02  0.51100000000E-03 0. -1.
    9900012    2    1    2    0    0  0.31885653168E+02 -0.13526538676E+02 -0.26152646406E+02  0.47787273732E+02  0.20000012255E+02 0.  0.
        -12    1    1    2    0    0 -0.31885653168E+02  0.13526538676E+02  0.26152646406E+02  0.43400726268E+02  0.00000000000E+00 0.  1.
         11    1    3    3    0    0  0.47370133305E+01  0.12015054087E+01 -0.21926135134E+01  0.53563480862E+01  0.51100000000E-03 0. -1.
        -11    1    3    3    0    0  0.10776268241E+02 -0.48241071965E+01 -0.19479826808E+02  0.22778578098E+02  0.51100000000E-03 0.  1.
        -12    1    3    3    0    0  0.16372371597E+02 -0.99039368881E+01 -0.44802060854E+01  0.19652347548E+02  0.00000000000E+00 0.  1.
</event>
<event>
 7    1  0.2642243E-009  0.4778727E+02  0.7816164E-02  0.1312668E+00
        -11   -1    0    0    0    0  0.00000000000E+00  0.00000000000E+00  0.45593999997E+02  0.45594000000E+02  0.51100000000E-03 0.  1.
         11   -1    0    0    0    0 -0.00000000000E+00 -0.00000000000E+00 -0.45593999997E+02  0.45594000000E+02  0.51100000000E-03 0. -1.
    9900012    2    1    2    0    0 -0.40218518229E+02  0.16307660583E+02  0.39257184783E+00  0.47787272876E+02  0.20000008351E+02 0.  0.
        -12    1    1    2    0    0  0.40218518229E+02 -0.16307660583E+02 -0.39257184783E+00  0.43400727124E+02  0.00000000000E+00 0.  1.
         11    1    3    3    0    0 -0.11521774900E+02  0.63402795291E+01 -0.74460417295E+01  0.15112709189E+02  0.51100000000E-03 0. -1.
        -11    1    3    3    0    0 -0.88230434790E+01 -0.10755846497E+01  0.33583211958E+01  0.95016472302E+01  0.51100000000E-03 0.  1.
         12    1    3    3    0    0 -0.19873699850E+02  0.11042965704E+02  0.44802923815E+01  0.23172916456E+02  0.00000000000E+00 0. -1.
</event>
<event>
 7    1  0.2642243E-009  0.4778729E+02  0.7816164E-02  0.1312668E+00
        -11   -1    0    0    0    0  0.00000000000E+00  0.00000000000E+00  0.45593999997E+02  0.45594000000E+02  0.51100000000E-03 0.  1.
         11   -1    0    0    0    0 -0.00000000000E+00 -0.00000000000E+00 -0.45593999997E+02  0.45594000000E+02  0.51100000000E-03 0. -1.
    9900012    2    1    2    0    0 -0.29455862136E+02  0.50133600409E+01 -0.31477608606E+02  0.47787292211E+02  0.20000096505E+02 0.  0.
        -12    1    1    2    0    0  0.29455862136E+02 -0.50133600409E+01  0.31477608606E+02  0.43400707789E+02  0.00000000000E+00 0.  1.
         11    1    3    3    0    0 -0.88972843863E+01  0.47644526811E+01 -0.13148112753E+02  0.16575118341E+02  0.51100000000E-03 0. -1.
        -11    1    3    3    0    0 -0.38121456998E+01 -0.10606026935E+01  0.23250580602E+01  0.45894692671E+01  0.51100000000E-03 0.  1.
        -12    1    3    3    0    0 -0.16746432050E+02  0.13095100533E+01 -0.20654553913E+02  0.26622704602E+02  0.00000000000E+00 0.  1.
</event>
<event>
 7    1  0.2642243E-009  0.4778727E+02  0.7816164E-02  0.1312668E+00
        -11   -1    0    0    0    0  0.00000000000E+00  0.00000000000E+00  0.45593999997E+02  0.45594000000E+02  0.51100000000E-03 0.  1.
         11   -1    0    0    0    0 -0.00000000000E+00 -0.00000000000E+00 -0.45593999997E+02  0.45594000000E+02  0.51100000000E-03 0. -1.
    9900012    2    1    2    0    0 -0.46623417253E-01  0.22954851241E+02 -0.36833352072E+02  0.47787271963E+02  0.20000004190E+02 0.  0.
        -12    1    1    2    0    0  0.46623417253E-01 -0.22954851241E+02  0.36833352072E+02  0.43400728037E+02  0.00000000000E+00 0.  1.
         11    1    3    3    0    0 -0.60794128516E+01  0.16939614362E+01 -0.92034300809E+01  0.11159385802E+02  0.51100000000E-03 0. -1.
        -11    1    3    3    0    0  0.25571028926E+01  0.16448334895E+02 -0.13960814599E+02  0.21725350182E+02  0.51100000000E-03 0.  1.
         12    1    3    3    0    0  0.34756865418E+01  0.48125549094E+01 -0.13669107393E+02  0.14902535979E+02  0.00000000000E+00 0. -1.
</event>
<event>
 7    1  0.2642243E-009  0.4778727E+02  0.7816164E-02  0.1312668E+00
        -11   -1    0    0    0    0  0.00000000000E+00  0.00000000000E+00  0.45593999997E+02  0.45594000000E+02  0.51100000000E-03 0.  1.
         11   -1    0    0    0    0 -0.00000000000E+00 -0.00000000000E+00 -0.45593999997E+02  0.45594000000E+02  0.51100000000E-03 0. -1.
    9900012    2    1    2    0    0 -0.21479753411E+02 -0.12383591477E+02 -0.35621485456E+02  0.47787269931E+02  0.19999994922E+02 0.  0.
        -12    1    1    2    0    0  0.21479753411E+02  0.12383591477E+02  0.35621485456E+02  0.43400730069E+02  0.00000000000E+00 0.  1.
         11    1    3    3    0    0 -0.12820471059E+02 -0.89350436639E+01 -0.22725883107E+02  0.27580160382E+02  0.51100000000E-03 0. -1.
        -11    1    3    3    0    0  0.31615725804E+01 -0.24153842998E+00 -0.38111173961E+01  0.49576706287E+01  0.51100000000E-03 0.  1.
        -12    1    3    3    0    0 -0.11820854932E+02 -0.32070093832E+01 -0.90844849526E+01  0.15249438920E+02  0.00000000000E+00 0.  1.
</event>
<event>
 7    1  0.2642243E-009  0.4778727E+02  0.7816164E-02  0.1312668E+00
        -11   -1    0    0    0    0  0.00000000000E+00  0.00000000000E+00  0.45593999997E+02  0.45594000000E+02  0.51100000000E-03 0. -1.
         11   -1    0    0    0    0 -0.00000000000E+00 -0.00000000000E+00 -0.45593999997E+02  0.45594000000E+02  0.51100000000E-03 0.  1.
    9900012    2    1    2    0    0  0.20718301876E+02 -0.25763123824E+02  0.28118266670E+02  0.47787268413E+02  0.19999988002E+02 0.  0.
        -12    1    1    2    0    0 -0.20718301876E+02  0.25763123824E+02 -0.28118266670E+02  0.43400731587E+02  0.00000000000E+00 0.  1.
         11    1    3    3    0    0  0.12183794278E+02 -0.63484973857E+01  0.92942445107E+01  0.16587080615E+02  0.51100000000E-03 0. -1.
        -11    1    3    3    0    0  0.59602542655E+01 -0.16960879529E+02  0.77641501367E+01  0.19582596685E+02  0.51100000000E-03 0.  1.
        -12    1    3    3    0    0  0.25742533332E+01 -0.24537469089E+01  0.11059872022E+02  0.11617591113E+02  0.00000000000E+00 0.  1.
</event>
<event>
 7    1  0.2642243E-009  0.4778727E+02  0.7816164E-02  0.1312668E+00
        -11   -1    0    0    0    0  0.00000000000E+00  0.00000000000E+00  0.45593999997E+02  0.45594000000E+02  0.51100000000E-03 0.  1.
         11   -1    0    0    0    0 -0.00000000000E+00 -0.00000000000E+00 -0.45593999997E+02  0.45594000000E+02  0.51100000000E-03 0. -1.
    9900012    2    1    2    0    0  0.23805874148E+02 -0.32626796777E+02 -0.15886973131E+02  0.47787269279E+02  0.19999991951E+02 0.  0.
        -12    1    1    2    0    0 -0.23805874148E+02  0.32626796777E+02  0.15886973131E+02  0.43400730721E+02  0.00000000000E+00 0.  1.
         11    1    3    3    0    0  0.16714411195E+02 -0.65928177635E+01 -0.79678442468E+01  0.19655109510E+02  0.51100000000E-03 0. -1.
        -11    1    3    3    0    0  0.63153644375E+01 -0.22320441732E+02 -0.66346703465E+01  0.24126848073E+02  0.51100000000E-03 0.  1.
         12    1    3    3    0    0  0.77609851527E+00 -0.37135372815E+01 -0.12844585379E+01  0.40053116960E+01  0.00000000000E+00 0. -1.
</event>
<event>
 7    1  0.2642243E-009  0.4778727E+02  0.7816164E-02  0.1312668E+00
        -11   -1    0    0    0    0  0.00000000000E+00  0.00000000000E+00  0.45593999997E+02  0.45594000000E+02  0.51100000000E-03 0.  1.
         11   -1    0    0    0    0 -0.00000000000E+00 -0.00000000000E+00 -0.45593999997E+02  0.45594000000E+02  0.51100000000E-03 0. -1.
    9900012    2    1    2    0    0 -0.15212052746E+02  0.62169891507E+01 -0.40169215397E+02  0.47787269954E+02  0.19999995029E+02 0.  0.
        -12    1    1    2    0    0  0.15212052746E+02 -0.62169891507E+01  0.40169215397E+02  0.43400730046E+02  0.00000000000E+00 0.  1.
         11    1    3    3    0    0 -0.14514771752E+02  0.14493054384E+01 -0.18227760506E+02  0.23345884832E+02  0.51100000000E-03 0. -1.
        -11    1    3    3    0    0 -0.64857585311E+00  0.91246690984E-01  0.90725715444E+00  0.11189693478E+01  0.51100000000E-03 0.  1.
         12    1    3    3    0    0 -0.48705141561E-01  0.46764370213E+01 -0.22848712046E+02  0.23322415774E+02  0.00000000000E+00 0. -1.
</event>
<event>
 7    1  0.2642243E-009  0.4778727E+02  0.7816164E-02  0.1312668E+00
        -11   -1    0    0    0    0  0.00000000000E+00  0.00000000000E+00  0.45593999997E+02  0.45594000000E+02  0.51100000000E-03 0.  1.
         11   -1    0    0    0    0 -0.00000000000E+00 -0.00000000000E+00 -0.45593999997E+02  0.45594000000E+02  0.51100000000E-03 0. -1.
    9900012    2    1    2    0    0 -0.25423027281E+02  0.20011486617E+02 -0.28928072832E+02  0.47787270622E+02  0.19999998076E+02 0.  0.
        -12    1    1    2    0    0  0.25423027281E+02 -0.20011486617E+02  0.28928072832E+02  0.43400729378E+02  0.00000000000E+00 0.  1.
         11    1    3    3    0    0 -0.15589149885E+02  0.10400093020E+02 -0.27014575946E+02  0.32878121035E+02  0.51100000000E-03 0.  1.
        -11    1    3    3    0    0 -0.78637103250E+01  0.62471251087E+01  0.92641957489E+00  0.10085770456E+02  0.51100000000E-03 0. -1.
         12    1    3    3    0    0 -0.19701670713E+01  0.33642684876E+01 -0.28399164604E+01  0.48233791317E+01  0.00000000000E+00 0. -1.
</event>
<event>
 7    1  0.2642243E-009  0.4778727E+02  0.7816164E-02  0.1312668E+00
        -11   -1    0    0    0    0  0.00000000000E+00  0.00000000000E+00  0.45593999997E+02  0.45594000000E+02  0.51100000000E-03 0.  1.
         11   -1    0    0    0    0 -0.00000000000E+00 -0.00000000000E+00 -0.45593999997E+02  0.45594000000E+02  0.51100000000E-03 0. -1.
    9900012    2    1    2    0    0  0.35527288711E+02  0.14628932451E+02  0.20184877994E+02  0.47787271809E+02  0.20000003488E+02 0.  0.
        -12    1    1    2    0    0 -0.35527288711E+02 -0.14628932451E+02 -0.20184877994E+02  0.43400728191E+02  0.00000000000E+00 0.  1.
         11    1    3    3    0    0  0.84462987424E+01 -0.26326279262E+01  0.34161603998E+01  0.94837146932E+01  0.51100000000E-03 0. -1.
        -11    1    3    3    0    0  0.13473472829E+02  0.10347298851E+02  0.15484337921E+02  0.22986208576E+02  0.51100000000E-03 0.  1.
        -12    1    3    3    0    0  0.13607517140E+02  0.69142615261E+01  0.12843796738E+01  0.15317348540E+02  0.00000000000E+00 0.  1.
</event>
<event>
 7    1  0.2642243E-009  0.4778727E+02  0.7816164E-02  0.1312668E+00
        -11   -1    0    0    0    0  0.00000000000E+00  0.00000000000E+00  0.45593999997E+02  0.45594000000E+02  0.51100000000E-03 0. -1.
         11   -1    0    0    0    0 -0.00000000000E+00 -0.00000000000E+00 -0.45593999997E+02  0.45594000000E+02  0.51100000000E-03 0.  1.
    9900012    2    1    2    0    0  0.33228377675E+02  0.23925304870E+02 -0.14390217628E+02  0.47787266603E+02  0.19999979747E+02 0.  0.
        -12    1    1    2    0    0 -0.33228377675E+02 -0.23925304870E+02  0.14390217628E+02  0.43400733397E+02  0.00000000000E+00 0.  1.
         11    1    3    3    0    0  0.18409173153E+02  0.80870361971E+01 -0.11890121592E+01  0.20142282910E+02  0.51100000000E-03 0. -1.
        -11    1    3    3    0    0  0.29056336528E+01  0.44566288621E+01  0.15379680179E+01  0.55380135088E+01  0.51100000000E-03 0.  1.
         12    1    3    3    0    0  0.11913570869E+02  0.11381639811E+02 -0.14739173487E+02  0.22106970184E+02  0.00000000000E+00 0. -1.
</event>
<event>
 7    1  0.2642243E-009  0.4778727E+02  0.7816164E-02  0.1312668E+00
        -11   -1    0    0    0    0  0.00000000000E+00  0.00000000000E+00  0.45593999997E+02  0.45594000000E+02  0.51100000000E-03 0.  1.
         11   -1    0    0    0    0 -0.00000000000E+00 -0.00000000000E+00 -0.45593999997E+02  0.45594000000E+02  0.51100000000E-03 0. -1.
    9900012    2    1    2    0    0 -0.38163650477E+02 -0.14756851606E+02 -0.14470472714E+02  0.47787268813E+02  0.19999989825E+02 0.  0.
        -12    1    1    2    0    0  0.38163650477E+02  0.14756851606E+02  0.14470472714E+02  0.43400731187E+02  0.00000000000E+00 0.  1.
         11    1    3    3    0    0 -0.25733366607E+02 -0.52933497042E+01 -0.32874515138E+01  0.26477028643E+02  0.51100000000E-03 0.  1.
        -11    1    3    3    0    0 -0.80223532294E+01 -0.31648979658E+01 -0.10506557324E+02  0.13592736205E+02  0.51100000000E-03 0. -1.
         12    1    3    3    0    0 -0.44079306401E+01 -0.62986039360E+01 -0.67646387551E+00  0.77175039647E+01  0.00000000000E+00 0. -1.
</event>
<event>
 7    1  0.2642243E-009  0.4778727E+02  0.7816164E-02  0.1312668E+00
        -11   -1    0    0    0    0  0.00000000000E+00  0.00000000000E+00  0.45593999997E+02  0.45594000000E+02  0.51100000000E-03 0.  1.
         11   -1    0    0    0    0 -0.00000000000E+00 -0.00000000000E+00 -0.45593999997E+02  0.45594000000E+02  0.51100000000E-03 0. -1.
    9900012    2    1    2    0    0  0.10295288989E+02 -0.16602307069E+02 -0.38755560451E+02  0.47787273725E+02  0.20000012220E+02 0.  0.
        -12    1    1    2    0    0 -0.10295288989E+02  0.16602307069E+02  0.38755560451E+02  0.43400726275E+02  0.00000000000E+00 0.  1.
         11    1    3    3    0    0  0.75517136130E+01 -0.35593950857E+01 -0.31172200250E+02  0.32270787728E+02  0.51100000000E-03 0. -1.
        -11    1    3    3    0    0  0.88129466001E+00 -0.91800689739E+01 -0.56231508997E+01  0.10801396805E+02  0.51100000000E-03 0.  1.
         12    1    3    3    0    0  0.18622807157E+01 -0.38628430095E+01 -0.19602093008E+01  0.47150891915E+01  0.00000000000E+00 0. -1.
</event>
<event>
 7    1  0.2642243E-009  0.4778727E+02  0.7816164E-02  0.1312668E+00
        -11   -1    0    0    0    0  0.00000000000E+00  0.00000000000E+00  0.45593999997E+02  0.45594000000E+02  0.51100000000E-03 0. -1.
         11   -1    0    0    0    0 -0.00000000000E+00 -0.00000000000E+00 -0.45593999997E+02  0.45594000000E+02  0.51100000000E-03 0.  1.
    9900012    2    1    2    0    0 -0.58083970695E+01  0.42713297374E+02  0.50458263109E+01  0.47787267147E+02  0.19999982229E+02 0.  0.
        -12    1    1    2    0    0  0.58083970695E+01 -0.42713297374E+02 -0.50458263109E+01  0.43400732853E+02  0.00000000000E+00 0.  1.
         11    1    3    3    0    0  0.42324468101E+01  0.13619505576E+02  0.14505648587E+01  0.14335573822E+02  0.51100000000E-03 0. -1.
        -11    1    3    3    0    0 -0.13036148544E+02  0.24115639638E+02  0.35434296564E+01  0.27641655848E+02  0.51100000000E-03 0.  1.
        -12    1    3    3    0    0  0.29953046639E+01  0.49781521594E+01  0.51831795795E-01  0.58100374772E+01  0.00000000000E+00 0.  1.
</event>
<event>
 7    1  0.2642243E-009  0.4778727E+02  0.7816164E-02  0.1312668E+00
        -11   -1    0    0    0    0  0.00000000000E+00  0.00000000000E+00  0.45593999997E+02  0.45594000000E+02  0.51100000000E-03 0.  1.
         11   -1    0    0    0    0 -0.00000000000E+00 -0.00000000000E+00 -0.45593999997E+02  0.45594000000E+02  0.51100000000E-03 0. -1.
    9900012    2    1    2    0    0 -0.36823538253E+01  0.16413973121E+02 -0.40008063531E+02  0.47787269698E+02  0.19999993859E+02 0.  0.
        -12    1    1    2    0    0  0.36823538253E+01 -0.16413973121E+02  0.40008063531E+02  0.43400730302E+02  0.00000000000E+00 0.  1.
         11    1    3    3    0    0 -0.69656153776E+01  0.15231737373E+02 -0.19237638810E+02  0.25507104270E+02  0.51100000000E-03 0. -1.
        -11    1    3    3    0    0  0.13393966770E+01 -0.30601728308E+01 -0.74077229779E+01  0.81260692337E+01  0.51100000000E-03 0.  1.
        -12    1    3    3    0    0  0.19438648754E+01  0.42424085791E+01 -0.13362701743E+02  0.14154096194E+02  0.00000000000E+00 0.  1.
</event>
<event>
 7    1  0.2642243E-009  0.4778727E+02  0.7816164E-02  0.1312668E+00
        -11   -1    0    0    0    0  0.00000000000E+00  0.00000000000E+00  0.45593999997E+02  0.45594000000E+02  0.51100000000E-03 0. -1.
         11   -1    0    0    0    0 -0.00000000000E+00 -0.00000000000E+00 -0.45593999997E+02  0.45594000000E+02  0.51100000000E-03 0.  1.
    9900012    2    1    2    0    0  0.37088024631E+02 -0.42806935188E+01  0.22130922544E+02  0.47787266819E+02  0.19999980735E+02 0.  0.
        -12    1    1    2    0    0 -0.37088024631E+02  0.42806935188E+01 -0.22130922544E+02  0.43400733181E+02  0.00000000000E+00 0.  1.
         11    1    3    3    0    0  0.35442158991E+02 -0.65943726297E+01  0.13373611921E+02  0.38451084255E+02  0.51100000000E-03 0. -1.
        -11    1    3    3    0    0  0.17128630062E+01  0.14652301324E+01  0.73854058333E+01  0.77217238103E+01  0.51100000000E-03 0.  1.
         12    1    3    3    0    0 -0.66997366558E-01  0.84844897841E+00  0.13719047894E+01  0.16144587537E+01  0.00000000000E+00 0. -1.
</event>
<event>
 7    1  0.2642243E-009  0.4778726E+02  0.7816164E-02  0.1312668E+00
        -11   -1    0    0    0    0  0.00000000000E+00  0.00000000000E+00  0.45593999997E+02  0.45594000000E+02  0.51100000000E-03 0.  1.
         11   -1    0    0    0    0 -0.00000000000E+00 -0.00000000000E+00 -0.45593999997E+02  0.45594000000E+02  0.51100000000E-03 0. -1.
    9900012    2    1    2    0    0  0.12272537268E+02 -0.28608022442E+02 -0.30242186992E+02  0.47787262759E+02  0.19999962222E+02 0.  0.
        -12    1    1    2    0    0 -0.12272537268E+02  0.28608022442E+02  0.30242186992E+02  0.43400737241E+02  0.00000000000E+00 0.  1.
         11    1    3    3    0    0  0.76660492194E+01 -0.98269274678E+01 -0.75942235891E+01  0.14594829436E+02  0.51100000000E-03 0. -1.
        -11    1    3    3    0    0 -0.43076144533E+01 -0.88792237963E+01 -0.14614581586E+02  0.17634686067E+02  0.51100000000E-03 0.  1.
        -12    1    3    3    0    0  0.89141025020E+01 -0.99018711775E+01 -0.80333818175E+01  0.15557747255E+02  0.00000000000E+00 0.  1.
</event>
<event>
 7    1  0.2642243E-009  0.4778727E+02  0.7816164E-02  0.1312668E+00
        -11   -1    0    0    0    0  0.00000000000E+00  0.00000000000E+00  0.45593999997E+02  0.45594000000E+02  0.51100000000E-03 0. -1.
         11   -1    0    0    0    0 -0.00000000000E+00 -0.00000000000E+00 -0.45593999997E+02  0.45594000000E+02  0.51100000000E-03 0.  1.
    9900012    2    1    2    0    0  0.38899221008E+01  0.42933600956E+02  0.50197511303E+01  0.47787268595E+02  0.19999988834E+02 0.  0.
        -12    1    1    2    0    0 -0.38899221008E+01 -0.42933600956E+02 -0.50197511303E+01  0.43400731405E+02  0.00000000000E+00 0.  1.
         11    1    3    3    0    0  0.66094804823E+01  0.12491895967E+02  0.71211095591E+01  0.15825387790E+02  0.51100000000E-03 0. -1.
        -11    1    3    3    0    0 -0.99371116034E+00  0.19729376231E+02  0.29846023860E+01  0.19978578528E+02  0.51100000000E-03 0.  1.
         12    1    3    3    0    0 -0.17258472212E+01  0.10712328759E+02 -0.50859608147E+01  0.11983302278E+02  0.00000000000E+00 0. -1.
</event>
<event>
 7    1  0.2642243E-009  0.4778727E+02  0.7816164E-02  0.1312668E+00
        -11   -1    0    0    0    0  0.00000000000E+00  0.00000000000E+00  0.45593999997E+02  0.45594000000E+02  0.51100000000E-03 0.  1.
         11   -1    0    0    0    0 -0.00000000000E+00 -0.00000000000E+00 -0.45593999997E+02  0.45594000000E+02  0.51100000000E-03 0. -1.
    9900012    2    1    2    0    0  0.42042493929E+02 -0.98727710053E+01 -0.43104878297E+01  0.47787271798E+02  0.20000003436E+02 0.  0.
        -12    1    1    2    0    0 -0.42042493929E+02  0.98727710053E+01  0.43104878297E+01  0.43400728202E+02  0.00000000000E+00 0.  1.
         11    1    3    3    0    0  0.26197308438E+02  0.87549179222E+00  0.17890031088E+01  0.26272913573E+02  0.51100000000E-03 0. -1.
        -11    1    3    3    0    0  0.21512663630E+01 -0.55049103662E+01 -0.24885431371E+01  0.64128645948E+01  0.51100000000E-03 0.  1.
         12    1    3    3    0    0  0.13693919129E+02 -0.52433524313E+01 -0.36109478014E+01  0.15101493630E+02  0.00000000000E+00 0. -1.
</event>
<event>
 7    1  0.2642243E-009  0.4778727E+02  0.7816164E-02  0.1312668E+00
        -11   -1    0    0    0    0  0.00000000000E+00  0.00000000000E+00  0.45593999997E+02  0.45594000000E+02  0.51100000000E-03 0.  1.
         11   -1    0    0    0    0 -0.00000000000E+00 -0.00000000000E+00 -0.45593999997E+02  0.45594000000E+02  0.51100000000E-03 0. -1.
    9900012    2    1    2    0    0  0.69750864618E+00  0.25630322415E+02 -0.35017469980E+02  0.47787272481E+02  0.20000006550E+02 0.  0.
        -12    1    1    2    0    0 -0.69750864618E+00 -0.25630322415E+02  0.35017469980E+02  0.43400727519E+02  0.00000000000E+00 0.  1.
         11    1    3    3    0    0  0.47364741236E+00  0.45080100390E+01 -0.56899349206E+01  0.72747409606E+01  0.51100000000E-03 0. -1.
        -11    1    3    3    0    0 -0.80007938304E+01  0.47035997896E+01 -0.12771750567E+02  0.15787785333E+02  0.51100000000E-03 0.  1.
        -12    1    3    3    0    0  0.82246550642E+01  0.16418712586E+02 -0.16555784492E+02  0.24724746188E+02  0.00000000000E+00 0.  1.
</event>
<event>
 7    1  0.2642243E-009  0.4778728E+02  0.7816164E-02  0.1312668E+00
        -11   -1    0    0    0    0  0.00000000000E+00  0.00000000000E+00  0.45593999997E+02  0.45594000000E+02  0.51100000000E-03 0.  1.
         11   -1    0    0    0    0 -0.00000000000E+00 -0.00000000000E+00 -0.45593999997E+02  0.45594000000E+02  0.51100000000E-03 0. -1.
    9900012    2    1    2    0    0 -0.42983007410E+02  0.59667327948E+01  0.69391409134E+00  0.47787281768E+02  0.20000048895E+02 0.  0.
        -12    1    1    2    0    0  0.42983007410E+02 -0.59667327948E+01 -0.69391409134E+00  0.43400718232E+02  0.00000000000E+00 0.  1.
         11    1    3    3    0    0 -0.33648947881E+02  0.10188861175E+02  0.43457917789E+01  0.35425280408E+02  0.51100000000E-03 0. -1.
        -11    1    3    3    0    0 -0.58168780786E+01 -0.34246044906E+01  0.61158857383E+00  0.67777597585E+01  0.51100000000E-03 0.  1.
         12    1    3    3    0    0 -0.35171814505E+01 -0.79752388921E+00 -0.42634662614E+01  0.55842416022E+01  0.00000000000E+00 0. -1.
</event>
<event>
 7    1  0.2642243E-009  0.4778727E+02  0.7816164E-02  0.1312668E+00
        -11   -1    0    0    0    0  0.00000000000E+00  0.00000000000E+00  0.45593999997E+02  0.45594000000E+02  0.51100000000E-03 0. -1.
         11   -1    0    0    0    0 -0.00000000000E+00 -0.00000000000E+00 -0.45593999997E+02  0.45594000000E+02  0.51100000000E-03 0.  1.
    9900012    2    1    2    0    0  0.10342476410E+02  0.18700573487E+02  0.37774927124E+02  0.47787269750E+02  0.19999994096E+02 0.  0.
        -12    1    1    2    0    0 -0.10342476410E+02 -0.18700573487E+02 -0.37774927124E+02  0.43400730250E+02  0.00000000000E+00 0.  1.
         11    1    3    3    0    0  0.54691803974E+01  0.11153443221E+02  0.23650137144E+02  0.26714045315E+02  0.51100000000E-03 0. -1.
        -11    1    3    3    0    0 -0.30524132625E+01  0.39176712621E+01  0.62785150791E+00  0.50059537173E+01  0.51100000000E-03 0.  1.
        -12    1    3    3    0    0  0.79257092752E+01  0.36294590036E+01  0.13496938472E+02  0.16067270717E+02  0.00000000000E+00 0.  1.
</event>
<event>
 7    1  0.2642243E-009  0.4778728E+02  0.7816164E-02  0.1312668E+00
        -11   -1    0    0    0    0  0.00000000000E+00  0.00000000000E+00  0.45593999997E+02  0.45594000000E+02  0.51100000000E-03 0. -1.
         11   -1    0    0    0    0 -0.00000000000E+00 -0.00000000000E+00 -0.45593999997E+02  0.45594000000E+02  0.51100000000E-03 0.  1.
    9900012    2    1    2    0    0  0.33731775714E+01  0.37316758902E+02  0.21902145043E+02  0.47787276741E+02  0.20000025974E+02 0.  0.
        -12    1    1    2    0    0 -0.33731775714E+01 -0.37316758902E+02 -0.21902145043E+02  0.43400723259E+02  0.00000000000E+00 0.  1.
         11    1    3    3    0    0  0.55825956283E+00 -0.18087322245E+01 -0.74312661182E-01  0.18943834438E+01  0.51100000000E-03 0. -1.
        -11    1    3    3    0    0 -0.65076158864E-01 -0.43820206506E+00  0.82825329123E+00  0.93928682085E+00  0.51100000000E-03 0.  1.
         12    1    3    3    0    0  0.28799941675E+01  0.39563693192E+02  0.21148204413E+02  0.44953606477E+02  0.00000000000E+00 0. -1.
</event>
<event>
 7    1  0.2642243E-009  0.4778727E+02  0.7816164E-02  0.1312668E+00
        -11   -1    0    0    0    0  0.00000000000E+00  0.00000000000E+00  0.45593999997E+02  0.45594000000E+02  0.51100000000E-03 0.  1.
         11   -1    0    0    0    0 -0.00000000000E+00 -0.00000000000E+00 -0.45593999997E+02  0.45594000000E+02  0.51100000000E-03 0. -1.
    9900012    2    1    2    0    0 -0.10741546792E+02 -0.30392121027E+02 -0.29061338373E+02  0.47787271480E+02  0.20000001988E+02 0.  0.
        -12    1    1    2    0    0  0.10741546792E+02  0.30392121027E+02  0.29061338373E+02  0.43400728520E+02  0.00000000000E+00 0.  1.
         11    1    3    3    0    0 -0.59567213904E+01 -0.10951650998E+02 -0.19285027873E+02  0.22963742936E+02  0.51100000000E-03 0. -1.
        -11    1    3    3    0    0  0.19635837411E+01 -0.19816133001E+01  0.12961029086E+01  0.30760909268E+01  0.51100000000E-03 0.  1.
        -12    1    3    3    0    0 -0.67484091427E+01 -0.17458856729E+02 -0.11072413409E+02  0.21747437618E+02  0.00000000000E+00 0.  1.
</event>
<event>
 7    1  0.2642243E-009  0.4778727E+02  0.7816164E-02  0.1312668E+00
        -11   -1    0    0    0    0  0.00000000000E+00  0.00000000000E+00  0.45593999997E+02  0.45594000000E+02  0.51100000000E-03 0. -1.
         11   -1    0    0    0    0 -0.00000000000E+00 -0.00000000000E+00 -0.45593999997E+02  0.45594000000E+02  0.51100000000E-03 0.  1.
    9900012    2    1    2    0    0  0.36487988724E+02 -0.23489571607E+02 -0.69995469212E+00  0.47787271527E+02  0.20000002199E+02 0.  0.
        -12    1    1    2    0    0 -0.36487988724E+02  0.23489571607E+02  0.69995469212E+00  0.43400728473E+02  0.00000000000E+00 0.  1.
         11    1    3    3    0    0  0.22178034599E+02 -0.10101786394E+02 -0.80708359187E+01  0.25671963301E+02  0.51100000000E-03 0.  1.
        -11    1    3    3    0    0  0.12881665601E+02 -0.12845622308E+02  0.43117973795E+01  0.18695959939E+02  0.51100000000E-03 0. -1.
        -12    1    3    3    0    0  0.14282885239E+01 -0.54216290581E+00  0.30590838471E+01  0.34193482870E+01  0.00000000000E+00 0.  1.
</event>
<event>
 7    1  0.2642243E-009  0.4778727E+02  0.7816164E-02  0.1312668E+00
        -11   -1    0    0    0    0  0.00000000000E+00  0.00000000000E+00  0.45593999997E+02  0.45594000000E+02  0.51100000000E-03 0.  1.
         11   -1    0    0    0    0 -0.00000000000E+00 -0.00000000000E+00 -0.45593999997E+02  0.45594000000E+02  0.51100000000E-03 0. -1.
    9900012    2    1    2    0    0 -0.41806304049E+02 -0.11425629931E+02  0.23046016638E+01  0.47787271131E+02  0.20000000394E+02 0.  0.
        -12    1    1    2    0    0  0.41806304049E+02  0.11425629931E+02 -0.23046016638E+01  0.43400728869E+02  0.00000000000E+00 0.  1.
         11    1    3    3    0    0 -0.22875173641E+02  0.10014895881E+01  0.33424265190E+01  0.23139757254E+02  0.51100000000E-03 0. -1.
        -11    1    3    3    0    0 -0.15332959749E+02 -0.13515632149E+02  0.81661896200E+00  0.20455777517E+02  0.51100000000E-03 0.  1.
        -12    1    3    3    0    0 -0.35981706589E+01  0.10885126295E+01 -0.18544438172E+01  0.41917363593E+01  0.00000000000E+00 0.  1.
</event>
<event>
 7    1  0.2642243E-009  0.4778727E+02  0.7816164E-02  0.1312668E+00
        -11   -1    0    0    0    0  0.00000000000E+00  0.00000000000E+00  0.45593999997E+02  0.45594000000E+02  0.51100000000E-03 0.  1.
         11   -1    0    0    0    0 -0.00000000000E+00 -0.00000000000E+00 -0.45593999997E+02  0.45594000000E+02  0.51100000000E-03 0. -1.
    9900012    2    1    2    0    0 -0.26874504395E+02  0.31921642577E+02  0.11932874952E+02  0.47787265491E+02  0.19999974678E+02 0.  0.
        -12    1    1    2    0    0  0.26874504395E+02 -0.31921642577E+02 -0.11932874952E+02  0.43400734509E+02  0.00000000000E+00 0.  1.
         11    1    3    3    0    0 -0.34669217744E+01  0.59743926641E+01  0.33999946759E+01  0.76988881244E+01  0.51100000000E-03 0. -1.
        -11    1    3    3    0    0 -0.22013518960E+02  0.28592713597E+02  0.86059754307E+01  0.37097184545E+02  0.51100000000E-03 0.  1.
        -12    1    3    3    0    0 -0.13940636605E+01 -0.26454636833E+01 -0.73095154197E-01  0.29911928208E+01  0.00000000000E+00 0.  1.
</event>
<event>
 7    1  0.2642243E-009  0.4778727E+02  0.7816164E-02  0.1312668E+00
        -11   -1    0    0    0    0  0.00000000000E+00  0.00000000000E+00  0.45593999997E+02  0.45594000000E+02  0.51100000000E-03 0. -1.
         11   -1    0    0    0    0 -0.00000000000E+00 -0.00000000000E+00 -0.45593999997E+02  0.45594000000E+02  0.51100000000E-03 0.  1.
    9900012    2    1    2    0    0  0.19222191181E+02  0.18236239874E+02  0.34373975872E+02  0.47787270792E+02  0.19999998847E+02 0.  0.
        -12    1    1    2    0    0 -0.19222191181E+02 -0.18236239874E+02 -0.34373975872E+02  0.43400729208E+02  0.00000000000E+00 0.  1.
         11    1    3    3    0    0  0.17027911462E+01  0.11453996985E+02  0.22991480028E+02  0.25742993197E+02  0.51100000000E-03 0. -1.
        -11    1    3    3    0    0  0.71454678331E+01  0.18502859318E+01  0.48129191967E+01  0.88116661329E+01  0.51100000000E-03 0.  1.
         12    1    3    3    0    0  0.10373932202E+02  0.49319569564E+01  0.65695766480E+01  0.13232611461E+02  0.00000000000E+00 0. -1.
</event>
<event>
 7    1  0.2642243E-009  0.4778727E+02  0.7816164E-02  0.1312668E+00
        -11   -1    0    0    0    0  0.00000000000E+00  0.00000000000E+00  0.45593999997E+02  0.45594000000E+02  0.51100000000E-03 0.  1.
         11   -1    0    0    0    0 -0.00000000000E+00 -0.00000000000E+00 -0.45593999997E+02  0.45594000000E+02  0.51100000000E-03 0. -1.
    9900012    2    1    2    0    0  0.27858799138E+02  0.33148088954E+02  0.29520877668E+01  0.47787270595E+02  0.19999997949E+02 0.  0.
        -12    1    1    2    0    0 -0.27858799138E+02 -0.33148088954E+02 -0.29520877668E+01  0.43400729405E+02  0.00000000000E+00 0.  1.
         11    1    3    3    0    0  0.15571703247E+02  0.22041797204E+02 -0.22041933709E+01  0.27077245699E+02  0.51100000000E-03 0. -1.
        -11    1    3    3    0    0  0.13699378497E+01  0.20266402412E+01  0.60061112230E+01  0.64851655849E+01  0.51100000000E-03 0.  1.
        -12    1    3    3    0    0  0.10917158041E+02  0.90796515097E+01 -0.84983008531E+00  0.14224859311E+02  0.00000000000E+00 0.  1.
</event>
<event>
 7    1  0.2642243E-009  0.4778727E+02  0.7816164E-02  0.1312668E+00
        -11   -1    0    0    0    0  0.00000000000E+00  0.00000000000E+00  0.45593999997E+02  0.45594000000E+02  0.51100000000E-03 0. -1.
         11   -1    0    0    0    0 -0.00000000000E+00 -0.00000000000E+00 -0.45593999997E+02  0.45594000000E+02  0.51100000000E-03 0.  1.
    9900012    2    1    2    0    0 -0.26637617756E+02 -0.14105422755E+02 -0.31226552381E+02  0.47787271845E+02  0.20000003650E+02 0.  0.
        -12    1    1    2    0    0  0.26637617756E+02  0.14105422755E+02  0.31226552381E+02  0.43400728155E+02  0.00000000000E+00 0.  1.
         11    1    3    3    0    0 -0.80433291504E+00  0.39024260731E+01 -0.38695459793E+01  0.55542116490E+01  0.51100000000E-03 0.  1.
        -11    1    3    3    0    0 -0.15367642172E+02 -0.13667205404E+02 -0.20228558927E+02  0.28847036694E+02  0.51100000000E-03 0. -1.
        -12    1    3    3    0    0 -0.10465642669E+02 -0.43406434238E+01 -0.71284474742E+01  0.13386023502E+02  0.00000000000E+00 0.  1.
</event>
<event>
 7    1  0.2642243E-009  0.4778725E+02  0.7816164E-02  0.1312668E+00
        -11   -1    0    0    0    0  0.00000000000E+00  0.00000000000E+00  0.45593999997E+02  0.45594000000E+02  0.51100000000E-03 0.  1.
         11   -1    0    0    0    0 -0.00000000000E+00 -0.00000000000E+00 -0.45593999997E+02  0.45594000000E+02  0.51100000000E-03 0. -1.
    9900012    2    1    2    0    0  0.34912335371E+02 -0.92967603643E+01 -0.24048371737E+02  0.47787250035E+02  0.19999904210E+02 0.  0.
        -12    1    1    2    0    0 -0.34912335371E+02  0.92967603643E+01  0.24048371737E+02  0.43400749965E+02  0.00000000000E+00 0.  1.
         11    1    3    3    0    0  0.24101061758E+02 -0.13932411204E+02 -0.12990320986E+02  0.30720053701E+02  0.51100000000E-03 0. -1.
        -11    1    3    3    0    0  0.11171530324E+02  0.42259659314E+01 -0.90475518379E+01  0.14983993872E+02  0.51100000000E-03 0.  1.
         12    1    3    3    0    0 -0.36025671055E+00  0.40968490788E+00 -0.20104989128E+01  0.20832024625E+01  0.00000000000E+00 0. -1.
</event>
<event>
 7    1  0.2642243E-009  0.4778728E+02  0.7816164E-02  0.1312668E+00
        -11   -1    0    0    0    0  0.00000000000E+00  0.00000000000E+00  0.45593999997E+02  0.45594000000E+02  0.51100000000E-03 0. -1.
         11   -1    0    0    0    0 -0.00000000000E+00 -0.00000000000E+00 -0.45593999997E+02  0.45594000000E+02  0.51100000000E-03 0.  1.
    9900012    2    1    2    0    0 -0.39645545569E+02 -0.11876105868E+02  0.13069484188E+02  0.47787278912E+02  0.20000035870E+02 0.  0.
        -12    1    1    2    0    0  0.39645545569E+02  0.11876105868E+02 -0.13069484188E+02  0.43400721088E+02  0.00000000000E+00 0.  1.
         11    1    3    3    0    0 -0.31105868396E+02 -0.78210865528E+01  0.68307206559E+01  0.32793340612E+02  0.51100000000E-03 0. -1.
        -11    1    3    3    0    0 -0.36557092254E+01 -0.69421288707E+01  0.26528509041E+01  0.82822087259E+01  0.51100000000E-03 0.  1.
        -12    1    3    3    0    0 -0.48839679474E+01  0.28871095559E+01  0.35859126280E+01  0.67117295740E+01  0.00000000000E+00 0.  1.
</event>
<event>
 7    1  0.2642243E-009  0.4778728E+02  0.7816164E-02  0.1312668E+00
        -11   -1    0    0    0    0  0.00000000000E+00  0.00000000000E+00  0.45593999997E+02  0.45594000000E+02  0.51100000000E-03 0.  1.
         11   -1    0    0    0    0 -0.00000000000E+00 -0.00000000000E+00 -0.45593999997E+02  0.45594000000E+02  0.51100000000E-03 0. -1.
    9900012    2    1    2    0    0 -0.12335719726E+02  0.31105038892E+02 -0.27639274038E+02  0.47787275410E+02  0.20000019904E+02 0.  0.
        -12    1    1    2    0    0  0.12335719726E+02 -0.31105038892E+02  0.27639274038E+02  0.43400724590E+02  0.00000000000E+00 0.  1.
         11    1    3    3    0    0  0.31219287394E+01  0.19898231308E+01 -0.40856745066E+01  0.55134899638E+01  0.51100000000E-03 0. -1.
        -11    1    3    3    0    0 -0.14347699162E+02  0.28052397410E+02 -0.24955119219E+02  0.40193923013E+02  0.51100000000E-03 0.  1.
        -12    1    3    3    0    0 -0.11099493033E+01  0.10628183511E+01  0.14015196883E+01  0.20798624330E+01  0.00000000000E+00 0.  1.
</event>
<event>
 7    1  0.2642243E-009  0.4778727E+02  0.7816164E-02  0.1312668E+00
        -11   -1    0    0    0    0  0.00000000000E+00  0.00000000000E+00  0.45593999997E+02  0.45594000000E+02  0.51100000000E-03 0. -1.
         11   -1    0    0    0    0 -0.00000000000E+00 -0.00000000000E+00 -0.45593999997E+02  0.45594000000E+02  0.51100000000E-03 0.  1.
    9900012    2    1    2    0    0 -0.28092968052E+01 -0.78837985452E+01  0.42586110839E+02  0.47787271153E+02  0.20000000496E+02 0.  0.
        -12    1    1    2    0    0  0.28092968052E+01  0.78837985452E+01 -0.42586110839E+02  0.43400728847E+02  0.00000000000E+00 0.  1.
         11    1    3    3    0    0 -0.10347061311E+01  0.42502361373E+01  0.51495532662E+01  0.67567020878E+01  0.51100000000E-03 0. -1.
        -11    1    3    3    0    0  0.20794446490E+01  0.15158475291E+01  0.48302523023E+01  0.54729536217E+01  0.51100000000E-03 0.  1.
         12    1    3    3    0    0 -0.38540353232E+01 -0.13649882212E+02  0.32606305270E+02  0.35557615444E+02  0.00000000000E+00 0. -1.
</event>
<event>
 7    1  0.2642243E-009  0.4778727E+02  0.7816164E-02  0.1312668E+00
        -11   -1    0    0    0    0  0.00000000000E+00  0.00000000000E+00  0.45593999997E+02  0.45594000000E+02  0.51100000000E-03 0.  1.
         11   -1    0    0    0    0 -0.00000000000E+00 -0.00000000000E+00 -0.45593999997E+02  0.45594000000E+02  0.51100000000E-03 0. -1.
    9900012    2    1    2    0    0  0.24187771803E+02  0.24450589761E+02  0.26471563808E+02  0.47787270341E+02  0.19999996794E+02 0.  0.
        -12    1    1    2    0    0 -0.24187771803E+02 -0.24450589761E+02 -0.26471563808E+02  0.43400729659E+02  0.00000000000E+00 0.  1.
         11    1    3    3    0    0  0.17313079415E+02  0.70541402212E+01  0.10787643666E+02  0.21584180995E+02  0.51100000000E-03 0. -1.
        -11    1    3    3    0    0  0.63823247622E+01  0.13875025785E+02  0.16573998812E+02  0.22537698347E+02  0.51100000000E-03 0.  1.
         12    1    3    3    0    0  0.49236762605E+00  0.35214237546E+01 -0.89007867001E+00  0.36653909993E+01  0.00000000000E+00 0. -1.
</event>
<event>
 7    1  0.2642243E-009  0.4778727E+02  0.7816164E-02  0.1312668E+00
        -11   -1    0    0    0    0  0.00000000000E+00  0.00000000000E+00  0.45593999997E+02  0.45594000000E+02  0.51100000000E-03 0. -1.
         11   -1    0    0    0    0 -0.00000000000E+00 -0.00000000000E+00 -0.45593999997E+02  0.45594000000E+02  0.51100000000E-03 0.  1.
    9900012    2    1    2    0    0  0.31855848000E+02  0.26878132336E+02  0.12099347725E+02  0.47787271147E+02  0.20000000466E+02 0.  0.
        -12    1    1    2    0    0 -0.31855848000E+02 -0.26878132336E+02 -0.12099347725E+02  0.43400728853E+02  0.00000000000E+00 0.  1.
         11    1    3    3    0    0  0.19696161403E+02  0.23414189280E+02  0.48435222457E+01  0.30977778191E+02  0.51100000000E-03 0. -1.
        -11    1    3    3    0    0  0.30493114766E+00  0.25707952823E+01  0.34772085433E+01  0.43350837250E+01  0.51100000000E-03 0.  1.
         12    1    3    3    0    0  0.11854755449E+02  0.89314777344E+00  0.37786169361E+01  0.12474409230E+02  0.00000000000E+00 0. -1.
</event>
<event>
 7    1  0.2642243E-009  0.4778726E+02  0.7816164E-02  0.1312668E+00
        -11   -1    0    0    0    0  0.00000000000E+00  0.00000000000E+00  0.45593999997E+02  0.45594000000E+02  0.51100000000E-03 0. -1.
         11   -1    0    0    0    0 -0.00000000000E+00 -0.00000000000E+00 -0.45593999997E+02  0.45594000000E+02  0.51100000000E-03 0.  1.
    9900012    2    1    2    0    0  0.15445055954E+02  0.38887630141E+02 -0.11525034134E+02  0.47787263334E+02  0.19999964844E+02 0.  0.
        -12    1    1    2    0    0 -0.15445055954E+02 -0.38887630141E+02  0.11525034134E+02  0.43400736666E+02  0.00000000000E+00 0.  1.
         11    1    3    3    0    0  0.10113594991E+01  0.86466699515E+01 -0.64287903990E+01  0.10822065216E+02  0.51100000000E-03 0. -1.
        -11    1    3    3    0    0  0.15134191101E+02  0.30317085341E+02 -0.21686190600E+01  0.33953973446E+02  0.51100000000E-03 0.  1.
        -12    1    3    3    0    0 -0.70049464535E+00 -0.76125152141E-01 -0.29276246750E+01  0.30112246719E+01  0.00000000000E+00 0.  1.
</event>
<event>
 7    1  0.2642243E-009  0.4778727E+02  0.7816164E-02  0.1312668E+00
        -11   -1    0    0    0    0  0.00000000000E+00  0.00000000000E+00  0.45593999997E+02  0.45594000000E+02  0.51100000000E-03 0.  1.
         11   -1    0    0    0    0 -0.00000000000E+00 -0.00000000000E+00 -0.45593999997E+02  0.45594000000E+02  0.51100000000E-03 0. -1.
    9900012    2    1    2    0    0  0.23052655975E+02 -0.35077510584E+01 -0.36604569376E+02  0.47787265396E+02  0.19999974245E+02 0.  0.
        -12    1    1    2    0    0 -0.23052655975E+02  0.35077510584E+01  0.36604569376E+02  0.43400734604E+02  0.00000000000E+00 0.  1.
         11    1    3    3    0    0  0.50476217569E+01  0.28391697950E+01 -0.21730235058E+02  0.22488719094E+02  0.51100000000E-03 0. -1.
        -11    1    3    3    0    0 -0.47237593349E+00 -0.86631685325E+00 -0.57778462845E-01  0.98842426349E+00  0.51100000000E-03 0.  1.
         12    1    3    3    0    0  0.18477410152E+02 -0.54806040002E+01 -0.14816555855E+02  0.24310122038E+02  0.00000000000E+00 0. -1.
</event>
<event>
 7    1  0.2642243E-009  0.4778727E+02  0.7816164E-02  0.1312668E+00
        -11   -1    0    0    0    0  0.00000000000E+00  0.00000000000E+00  0.45593999997E+02  0.45594000000E+02  0.51100000000E-03 0.  1.
         11   -1    0    0    0    0 -0.00000000000E+00 -0.00000000000E+00 -0.45593999997E+02  0.45594000000E+02  0.51100000000E-03 0. -1.
    9900012    2    1    2    0    0  0.36751978677E+02 -0.22878533897E+02 -0.30802713242E+01  0.47787270497E+02  0.19999997503E+02 0.  0.
        -12    1    1    2    0    0 -0.36751978677E+02  0.22878533897E+02  0.30802713242E+01  0.43400729503E+02  0.00000000000E+00 0.  1.
         11    1    3    3    0    0  0.16778075946E+02 -0.45136863271E+01 -0.55388870146E+01  0.18236130794E+02  0.51100000000E-03 0. -1.
        -11    1    3    3    0    0  0.19700910974E+02 -0.19822637230E+02  0.21064504775E+01  0.28026772448E+02  0.51100000000E-03 0.  1.
        -12    1    3    3    0    0  0.27299175714E+00  0.14577896596E+01  0.35216521289E+00  0.15243672551E+01  0.00000000000E+00 0.  1.
</event>
<event>
 7    1  0.2642243E-009  0.4778727E+02  0.7816164E-02  0.1312668E+00
        -11   -1    0    0    0    0  0.00000000000E+00  0.00000000000E+00  0.45593999997E+02  0.45594000000E+02  0.51100000000E-03 0.  1.
         11   -1    0    0    0    0 -0.00000000000E+00 -0.00000000000E+00 -0.45593999997E+02  0.45594000000E+02  0.51100000000E-03 0. -1.
    9900012    2    1    2    0    0  0.12833030290E+02 -0.24308204070E+02 -0.33586426065E+02  0.47787268815E+02  0.19999989837E+02 0.  0.
        -12    1    1    2    0    0 -0.12833030290E+02  0.24308204070E+02  0.33586426065E+02  0.43400731185E+02  0.00000000000E+00 0.  1.
         11    1    3    3    0    0  0.61699256264E+01 -0.19247634541E+02 -0.27882258346E+02  0.34437766310E+02  0.51100000000E-03 0. -1.
        -11    1    3    3    0    0  0.14514118503E+01  0.16054423388E+01  0.11585142266E+01  0.24548313459E+01  0.51100000000E-03 0.  1.
        -12    1    3    3    0    0  0.52116928130E+01 -0.66660118670E+01 -0.68626819463E+01  0.10894671160E+02  0.00000000000E+00 0.  1.
</event>
<event>
 7    1  0.2642243E-009  0.4778727E+02  0.7816164E-02  0.1312668E+00
        -11   -1    0    0    0    0  0.00000000000E+00  0.00000000000E+00  0.45593999997E+02  0.45594000000E+02  0.51100000000E-03 0. -1.
         11   -1    0    0    0    0 -0.00000000000E+00 -0.00000000000E+00 -0.45593999997E+02  0.45594000000E+02  0.51100000000E-03 0.  1.
    9900012    2    1    2    0    0  0.37072602011E+01  0.42438433695E+02 -0.82981223647E+01  0.47787271118E+02  0.20000000335E+02 0.  0.
        -12    1    1    2    0    0 -0.37072602011E+01 -0.42438433695E+02  0.82981223647E+01  0.43400728882E+02  0.00000000000E+00 0.  1.
         11    1    3    3    0    0 -0.10633159518E+01  0.93499333347E+01  0.93143548818E-01  0.94106625780E+01  0.51100000000E-03 0. -1.
        -11    1    3    3    0    0 -0.60589877931E+01  0.78443790832E+01 -0.12179506653E+01  0.99864418269E+01  0.51100000000E-03 0.  1.
        -12    1    3    3    0    0  0.10829563946E+02  0.25244121278E+02 -0.71733152482E+01  0.28390166713E+02  0.00000000000E+00 0.  1.
</event>
<event>
 7    1  0.2642243E-009  0.4778728E+02  0.7816164E-02  0.1312668E+00
        -11   -1    0    0    0    0  0.00000000000E+00  0.00000000000E+00  0.45593999997E+02  0.45594000000E+02  0.51100000000E-03 0.  1.
         11   -1    0    0    0    0 -0.00000000000E+00 -0.00000000000E+00 -0.45593999997E+02  0.45594000000E+02  0.51100000000E-03 0. -1.
    9900012    2    1    2    0    0 -0.38074274870E+01 -0.10435003694E+02 -0.41955175401E+02  0.47787279394E+02  0.20000038071E+02 0.  0.
        -12    1    1    2    0    0  0.38074274870E+01  0.10435003694E+02  0.41955175401E+02  0.43400720606E+02  0.00000000000E+00 0.  1.
         11    1    3    3    0    0  0.14345412572E+01 -0.17435391754E+01 -0.49111063902E+01  0.54052570440E+01  0.51100000000E-03 0. -1.
        -11    1    3    3    0    0  0.50206509957E+01 -0.65912782067E+01 -0.25410517567E+02  0.26727257399E+02  0.51100000000E-03 0.  1.
        -12    1    3    3    0    0 -0.10262619740E+02 -0.21001863115E+01 -0.11633551444E+02  0.15654764951E+02  0.00000000000E+00 0.  1.
</event>
<event>
 7    1  0.2642243E-009  0.4778728E+02  0.7816164E-02  0.1312668E+00
        -11   -1    0    0    0    0  0.00000000000E+00  0.00000000000E+00  0.45593999997E+02  0.45594000000E+02  0.51100000000E-03 0. -1.
         11   -1    0    0    0    0 -0.00000000000E+00 -0.00000000000E+00 -0.45593999997E+02  0.45594000000E+02  0.51100000000E-03 0.  1.
    9900012    2    1    2    0    0 -0.25940241727E+02 -0.23238195010E+02  0.25898124089E+02  0.47787277892E+02  0.20000031223E+02 0.  0.
        -12    1    1    2    0    0  0.25940241727E+02  0.23238195010E+02 -0.25898124089E+02  0.43400722108E+02  0.00000000000E+00 0.  1.
         11    1    3    3    0    0 -0.95234768584E+01 -0.13560934625E+02  0.27370383165E+01  0.16795443977E+02  0.51100000000E-03 0. -1.
        -11    1    3    3    0    0 -0.73975144041E+01 -0.38944282418E+01  0.45520929077E+01  0.95189989385E+01  0.51100000000E-03 0.  1.
         12    1    3    3    0    0 -0.90192504641E+01 -0.57828321434E+01  0.18608992864E+02  0.21472834977E+02  0.00000000000E+00 0. -1.
</event>
<event>
 7    1  0.2642243E-009  0.4778727E+02  0.7816164E-02  0.1312668E+00
        -11   -1    0    0    0    0  0.00000000000E+00  0.00000000000E+00  0.45593999997E+02  0.45594000000E+02  0.51100000000E-03 0.  1.
         11   -1    0    0    0    0 -0.00000000000E+00 -0.00000000000E+00 -0.45593999997E+02  0.45594000000E+02  0.51100000000E-03 0. -1.
    9900012    2    1    2    0    0 -0.38059739689E+02 -0.78370221289E+00 -0.20843832964E+02  0.47787270202E+02  0.19999996160E+02 0.  0.
        -12    1    1    2    0    0  0.38059739689E+02  0.78370221289E+00  0.20843832964E+02  0.43400729798E+02  0.00000000000E+00 0.  1.
         11    1    3    3    0    0 -0.26919213799E+02 -0.43379129715E+01 -0.13402141147E+02  0.30382214338E+02  0.51100000000E-03 0. -1.
        -11    1    3    3    0    0  0.10603584271E+00  0.12111992713E+01  0.21296542887E+01  0.24522795365E+01  0.51100000000E-03 0.  1.
         12    1    3    3    0    0 -0.11246561733E+02  0.23430114873E+01 -0.95713461053E+01  0.14952776328E+02  0.00000000000E+00 0. -1.
</event>
<event>
 7    1  0.2642243E-009  0.4778727E+02  0.7816164E-02  0.1312668E+00
        -11   -1    0    0    0    0  0.00000000000E+00  0.00000000000E+00  0.45593999997E+02  0.45594000000E+02  0.51100000000E-03 0.  1.
         11   -1    0    0    0    0 -0.00000000000E+00 -0.00000000000E+00 -0.45593999997E+02  0.45594000000E+02  0.51100000000E-03 0. -1.
    9900012    2    1    2    0    0 -0.34053107793E+02 -0.93948631684E+01 -0.25214002575E+02  0.47787268092E+02  0.19999986538E+02 0.  0.
        -12    1    1    2    0    0  0.34053107793E+02  0.93948631684E+01  0.25214002575E+02  0.43400731908E+02  0.00000000000E+00 0.  1.
         11    1    3    3    0    0 -0.47787392208E+01 -0.43732044615E+00 -0.51037882977E+01  0.70054445228E+01  0.51100000000E-03 0. -1.
        -11    1    3    3    0    0 -0.30188884449E+02 -0.48512659263E+01 -0.20070099715E+02  0.36574751239E+02  0.51100000000E-03 0.  1.
        -12    1    3    3    0    0  0.91451587683E+00 -0.41062767960E+01 -0.40114562994E-01  0.42070723303E+01  0.00000000000E+00 0.  1.
</event>
<event>
 7    1  0.2642243E-009  0.4778729E+02  0.7816164E-02  0.1312668E+00
        -11   -1    0    0    0    0  0.00000000000E+00  0.00000000000E+00  0.45593999997E+02  0.45594000000E+02  0.51100000000E-03 0.  1.
         11   -1    0    0    0    0 -0.00000000000E+00 -0.00000000000E+00 -0.45593999997E+02  0.45594000000E+02  0.51100000000E-03 0. -1.
    9900012    2    1    2    0    0 -0.10255613171E+02  0.33320280253E+02 -0.25849627151E+02  0.47787286855E+02  0.20000072086E+02 0.  0.
        -12    1    1    2    0    0  0.10255613171E+02 -0.33320280253E+02  0.25849627151E+02  0.43400713145E+02  0.00000000000E+00 0.  1.
         11    1    3    3    0    0 -0.38162082223E+01  0.18596304213E+02 -0.24189835000E+02  0.30749538097E+02  0.51100000000E-03 0. -1.
        -11    1    3    3    0    0  0.85221456865E-01  0.72147849215E+00 -0.14118017417E+01  0.15877589018E+01  0.51100000000E-03 0.  1.
         12    1    3    3    0    0 -0.65246264052E+01  0.14002497548E+02 -0.24799040905E+00  0.15449989856E+02  0.00000000000E+00 0. -1.
</event>
<event>
 7    1  0.2642243E-009  0.4778728E+02  0.7816164E-02  0.1312668E+00
        -11   -1    0    0    0    0  0.00000000000E+00  0.00000000000E+00  0.45593999997E+02  0.45594000000E+02  0.51100000000E-03 0.  1.
         11   -1    0    0    0    0 -0.00000000000E+00 -0.00000000000E+00 -0.45593999997E+02  0.45594000000E+02  0.51100000000E-03 0. -1.
    9900012    2    1    2    0    0 -0.17639108389E+02  0.19681625294E+02 -0.34425540577E+02  0.47787281538E+02  0.20000047844E+02 0.  0.
        -12    1    1    2    0    0  0.17639108389E+02 -0.19681625294E+02  0.34425540577E+02  0.43400718462E+02  0.00000000000E+00 0.  1.
         11    1    3    3    0    0 -0.88828429599E+01  0.92717047607E+01 -0.31301140942E+01  0.13216165205E+02  0.51100000000E-03 0. -1.
        -11    1    3    3    0    0 -0.77035983116E+00  0.28479105298E+01 -0.29737163995E+01  0.41889184930E+01  0.51100000000E-03 0.  1.
         12    1    3    3    0    0 -0.79859055979E+01  0.75620100039E+01 -0.28321710084E+02  0.30382197840E+02  0.00000000000E+00 0. -1.
</event>
<event>
 7    1  0.2642243E-009  0.4778727E+02  0.7816164E-02  0.1312668E+00
        -11   -1    0    0    0    0  0.00000000000E+00  0.00000000000E+00  0.45593999997E+02  0.45594000000E+02  0.51100000000E-03 0. -1.
         11   -1    0    0    0    0 -0.00000000000E+00 -0.00000000000E+00 -0.45593999997E+02  0.45594000000E+02  0.51100000000E-03 0.  1.
    9900012    2    1    2    0    0  0.17123933141E+02 -0.15237375503E+02  0.36853989491E+02  0.47787271437E+02  0.20000001788E+02 0.  0.
        -12    1    1    2    0    0 -0.17123933141E+02  0.15237375503E+02 -0.36853989491E+02  0.43400728563E+02  0.00000000000E+00 0.  1.
         11    1    3    3    0    0  0.16934870832E+01  0.83284374876E+00  0.17355640529E+02  0.17457943340E+02  0.51100000000E-03 0. -1.
        -11    1    3    3    0    0  0.10418937708E+02 -0.11612433755E+02  0.94249614422E+01  0.18227253746E+02  0.51100000000E-03 0.  1.
         12    1    3    3    0    0  0.50115083502E+01 -0.44577854972E+01  0.10073387519E+02  0.12102074351E+02  0.00000000000E+00 0. -1.
</event>
<event>
 7    1  0.2642243E-009  0.4778727E+02  0.7816164E-02  0.1312668E+00
        -11   -1    0    0    0    0  0.00000000000E+00  0.00000000000E+00  0.45593999997E+02  0.45594000000E+02  0.51100000000E-03 0.  1.
         11   -1    0    0    0    0 -0.00000000000E+00 -0.00000000000E+00 -0.45593999997E+02  0.45594000000E+02  0.51100000000E-03 0. -1.
    9900012    2    1    2    0    0  0.21545301238E+02  0.34690239974E+02 -0.14697301029E+02  0.47787269448E+02  0.19999992721E+02 0.  0.
        -12    1    1    2    0    0 -0.21545301238E+02 -0.34690239974E+02  0.14697301029E+02  0.43400730552E+02  0.00000000000E+00 0.  1.
         11    1    3    3    0    0  0.15083149564E+02  0.24210039268E+02 -0.13578058256E+02  0.31590996635E+02  0.51100000000E-03 0. -1.
        -11    1    3    3    0    0 -0.22050686415E+01  0.42849268089E+01  0.18091134104E+01  0.51474087718E+01  0.51100000000E-03 0.  1.
         12    1    3    3    0    0  0.86672203156E+01  0.61952738970E+01 -0.29283561842E+01  0.11048864041E+02  0.00000000000E+00 0. -1.
</event>
<event>
 7    1  0.2642243E-009  0.4778727E+02  0.7816164E-02  0.1312668E+00
        -11   -1    0    0    0    0  0.00000000000E+00  0.00000000000E+00  0.45593999997E+02  0.45594000000E+02  0.51100000000E-03 0. -1.
         11   -1    0    0    0    0 -0.00000000000E+00 -0.00000000000E+00 -0.45593999997E+02  0.45594000000E+02  0.51100000000E-03 0.  1.
    9900012    2    1    2    0    0  0.30448308103E+02 -0.20999816592E+02  0.22705322117E+02  0.47787269411E+02  0.19999992552E+02 0.  0.
        -12    1    1    2    0    0 -0.30448308103E+02  0.20999816592E+02 -0.22705322117E+02  0.43400730589E+02  0.00000000000E+00 0.  1.
         11    1    3    3    0    0  0.23372398463E+02 -0.84261794055E+01  0.17004356822E+02  0.30106771007E+02  0.51100000000E-03 0. -1.
        -11    1    3    3    0    0 -0.82861609190E-01 -0.57725985888E+01  0.52380854325E+01  0.77953383360E+01  0.51100000000E-03 0.  1.
         12    1    3    3    0    0  0.71587712495E+01 -0.68010385972E+01  0.46287986304E+00  0.98851600680E+01  0.00000000000E+00 0. -1.
</event>
<event>
 7    1  0.2642243E-009  0.4778727E+02  0.7816164E-02  0.1312668E+00
        -11   -1    0    0    0    0  0.00000000000E+00  0.00000000000E+00  0.45593999997E+02  0.45594000000E+02  0.51100000000E-03 0.  1.
         11   -1    0    0    0    0 -0.00000000000E+00 -0.00000000000E+00 -0.45593999997E+02  0.45594000000E+02  0.51100000000E-03 0. -1.
    9900012    2    1    2    0    0 -0.19468444682E+02  0.20970001100E+02 -0.32632222909E+02  0.47787271245E+02  0.20000000915E+02 0.  0.
        -12    1    1    2    0    0  0.19468444682E+02 -0.20970001100E+02  0.32632222909E+02  0.43400728755E+02  0.00000000000E+00 0.  1.
         11    1    3    3    0    0 -0.53782550926E+01  0.67773744059E+01 -0.45168626149E+01  0.97601475308E+01  0.51100000000E-03 0. -1.
        -11    1    3    3    0    0  0.19826509524E+01  0.54906144873E+01 -0.20396215737E+01  0.61836727495E+01  0.51100000000E-03 0.  1.
        -12    1    3    3    0    0 -0.16072840542E+02  0.87020122067E+01 -0.26075738721E+02  0.31843450965E+02  0.00000000000E+00 0.  1.
</event>
<event>
 7    1  0.2642243E-009  0.4778727E+02  0.7816164E-02  0.1312668E+00
        -11   -1    0    0    0    0  0.00000000000E+00  0.00000000000E+00  0.45593999997E+02  0.45594000000E+02  0.51100000000E-03 0.  1.
         11   -1    0    0    0    0 -0.00000000000E+00 -0.00000000000E+00 -0.45593999997E+02  0.45594000000E+02  0.51100000000E-03 0. -1.
    9900012    2    1    2    0    0 -0.17837896270E+02 -0.33795327925E+02 -0.20574464625E+02  0.47787270427E+02  0.19999997184E+02 0.  0.
        -12    1    1    2    0    0  0.17837896270E+02  0.33795327925E+02  0.20574464625E+02  0.43400729573E+02  0.00000000000E+00 0.  1.
         11    1    3    3    0    0 -0.15728430100E+02 -0.23329221397E+02 -0.94891829728E+01  0.29693108260E+02  0.51100000000E-03 0. -1.
        -11    1    3    3    0    0 -0.18250723689E+01 -0.32578491363E+01  0.11355058680E+01  0.39030557239E+01  0.51100000000E-03 0.  1.
         12    1    3    3    0    0 -0.28439380113E+00 -0.72082573913E+01 -0.12220787520E+02  0.14191106443E+02  0.00000000000E+00 0. -1.
</event>
<event>
 7    1  0.2642243E-009  0.4778728E+02  0.7816164E-02  0.1312668E+00
        -11   -1    0    0    0    0  0.00000000000E+00  0.00000000000E+00  0.45593999997E+02  0.45594000000E+02  0.51100000000E-03 0. -1.
         11   -1    0    0    0    0 -0.00000000000E+00 -0.00000000000E+00 -0.45593999997E+02  0.45594000000E+02  0.51100000000E-03 0.  1.
    9900012    2    1    2    0    0 -0.25351377815E+02  0.29696268189E+02 -0.18948936777E+02  0.47787275277E+02  0.20000019300E+02 0.  0.
        -12    1    1    2    0    0  0.25351377815E+02 -0.29696268189E+02  0.18948936777E+02  0.43400724723E+02  0.00000000000E+00 0.  1.
         11    1    3    3    0    0 -0.92785686437E+01  0.18303591796E+02 -0.10799383806E+02  0.23189221624E+02  0.51100000000E-03 0. -1.
        -11    1    3    3    0    0 -0.50143178365E+01 -0.55254019235E+00  0.19869199026E+01  0.54218571532E+01  0.51100000000E-03 0.  1.
        -12    1    3    3    0    0 -0.11058491335E+02  0.11945216586E+02 -0.10136472874E+02  0.19176196500E+02  0.00000000000E+00 0.  1.
</event>
<event>
 7    1  0.2642243E-009  0.4778727E+02  0.7816164E-02  0.1312668E+00
        -11   -1    0    0    0    0  0.00000000000E+00  0.00000000000E+00  0.45593999997E+02  0.45594000000E+02  0.51100000000E-03 0.  1.
         11   -1    0    0    0    0 -0.00000000000E+00 -0.00000000000E+00 -0.45593999997E+02  0.45594000000E+02  0.51100000000E-03 0. -1.
    9900012    2    1    2    0    0 -0.18870265265E+01 -0.30905870316E+02 -0.30412004629E+02  0.47787265966E+02  0.19999976847E+02 0.  0.
        -12    1    1    2    0    0  0.18870265265E+01  0.30905870316E+02  0.30412004629E+02  0.43400734034E+02  0.00000000000E+00 0.  1.
         11    1    3    3    0    0  0.54698722189E+01 -0.97228212323E+01 -0.79245518710E+01  0.13683978859E+02  0.51100000000E-03 0. -1.
        -11    1    3    3    0    0 -0.88145746216E+01 -0.16992741001E+02 -0.11690367600E+02  0.22430217729E+02  0.51100000000E-03 0.  1.
        -12    1    3    3    0    0  0.14576758763E+01 -0.41903080830E+01 -0.10797085158E+02  0.11673069378E+02  0.00000000000E+00 0.  1.
</event>
<event>
 7    1  0.2642243E-009  0.4778729E+02  0.7816164E-02  0.1312668E+00
        -11   -1    0    0    0    0  0.00000000000E+00  0.00000000000E+00  0.45593999997E+02  0.45594000000E+02  0.51100000000E-03 0.  1.
         11   -1    0    0    0    0 -0.00000000000E+00 -0.00000000000E+00 -0.45593999997E+02  0.45594000000E+02  0.51100000000E-03 0. -1.
    9900012    2    1    2    0    0 -0.25171011858E+02  0.61620657866E+01 -0.34814806488E+02  0.47787289827E+02  0.20000085638E+02 0.  0.
        -12    1    1    2    0    0  0.25171011858E+02 -0.61620657866E+01  0.34814806488E+02  0.43400710173E+02  0.00000000000E+00 0.  1.
         11    1    3    3    0    0 -0.65338466132E+01 -0.58735191739E+01 -0.15527180739E+02  0.17840479842E+02  0.51100000000E-03 0. -1.
        -11    1    3    3    0    0 -0.72011224011E+00  0.25100579689E+01 -0.24092192456E+01  0.35529270018E+01  0.51100000000E-03 0.  1.
         12    1    3    3    0    0 -0.17917053005E+02  0.95255269916E+01 -0.16878406504E+02  0.26393882983E+02  0.00000000000E+00 0. -1.
</event>
<event>
 7    1  0.2642243E-009  0.4778727E+02  0.7816164E-02  0.1312668E+00
        -11   -1    0    0    0    0  0.00000000000E+00  0.00000000000E+00  0.45593999997E+02  0.45594000000E+02  0.51100000000E-03 0.  1.
         11   -1    0    0    0    0 -0.00000000000E+00 -0.00000000000E+00 -0.45593999997E+02  0.45594000000E+02  0.51100000000E-03 0. -1.
    9900012    2    1    2    0    0 -0.16812837440E+02 -0.33373885086E+02 -0.22071157486E+02  0.47787266121E+02  0.19999977550E+02 0.  0.
        -12    1    1    2    0    0  0.16812837440E+02  0.33373885086E+02  0.22071157486E+02  0.43400733879E+02  0.00000000000E+00 0.  1.
         11    1    3    3    0    0  0.26182545079E+01 -0.11194488225E+02 -0.11557306418E+02  0.16301630446E+02  0.51100000000E-03 0. -1.
        -11    1    3    3    0    0 -0.10269474800E+02 -0.14200016888E+02 -0.59335423378E+01  0.18501608504E+02  0.51100000000E-03 0.  1.
         12    1    3    3    0    0 -0.91616171478E+01 -0.79793799735E+01 -0.45803087295E+01  0.12984027171E+02  0.00000000000E+00 0. -1.
</event>
<event>
 7    1  0.2642243E-009  0.4778727E+02  0.7816164E-02  0.1312668E+00
        -11   -1    0    0    0    0  0.00000000000E+00  0.00000000000E+00  0.45593999997E+02  0.45594000000E+02  0.51100000000E-03 0.  1.
         11   -1    0    0    0    0 -0.00000000000E+00 -0.00000000000E+00 -0.45593999997E+02  0.45594000000E+02  0.51100000000E-03 0. -1.
    9900012    2    1    2    0    0 -0.47327940650E+01  0.42683401573E+02  0.62730424501E+01  0.47787272228E+02  0.20000005397E+02 0.  0.
        -12    1    1    2    0    0  0.47327940650E+01 -0.42683401573E+02 -0.62730424501E+01  0.43400727772E+02  0.00000000000E+00 0.  1.
         11    1    3    3    0    0  0.14589799067E+01  0.45037855964E+01 -0.12400938231E+01  0.48939288938E+01  0.51100000000E-03 0. -1.
        -11    1    3    3    0    0  0.51211782964E+01  0.10938739518E+02  0.56600400197E+01  0.13338610973E+02  0.51100000000E-03 0.  1.
        -12    1    3    3    0    0 -0.11312952268E+02  0.27240876459E+02  0.18530962534E+01  0.29554732362E+02  0.00000000000E+00 0.  1.
</event>
<event>
 7    1  0.2642243E-009  0.4778728E+02  0.7816164E-02  0.1312668E+00
        -11   -1    0    0    0    0  0.00000000000E+00  0.00000000000E+00  0.45593999997E+02  0.45594000000E+02  0.51100000000E-03 0.  1.
         11   -1    0    0    0    0 -0.00000000000E+00 -0.00000000000E+00 -0.45593999997E+02  0.45594000000E+02  0.51100000000E-03 0. -1.
    9900012    2    1    2    0    0  0.78100999617E+01  0.28783551572E+02 -0.31529862786E+02  0.47787277082E+02  0.20000027529E+02 0.  0.
        -12    1    1    2    0    0 -0.78100999617E+01 -0.28783551572E+02  0.31529862786E+02  0.43400722918E+02  0.00000000000E+00 0.  1.
         11    1    3    3    0    0  0.68145706096E+00  0.12396254438E+02 -0.25452647959E+02  0.28319053589E+02  0.51100000000E-03 0. -1.
        -11    1    3    3    0    0  0.29314588611E+01  0.81924009212E+01 -0.52591892094E+00  0.87169647745E+01  0.51100000000E-03 0.  1.
         12    1    3    3    0    0  0.41971840397E+01  0.81948962126E+01 -0.55512959058E+01  0.10751258718E+02  0.00000000000E+00 0. -1.
</event>
<event>
 7    1  0.2642243E-009  0.4778727E+02  0.7816164E-02  0.1312668E+00
        -11   -1    0    0    0    0  0.00000000000E+00  0.00000000000E+00  0.45593999997E+02  0.45594000000E+02  0.51100000000E-03 0.  1.
         11   -1    0    0    0    0 -0.00000000000E+00 -0.00000000000E+00 -0.45593999997E+02  0.45594000000E+02  0.51100000000E-03 0. -1.
    9900012    2    1    2    0    0  0.16633317945E+02  0.20896110044E+01 -0.40032354927E+02  0.47787272114E+02  0.20000004878E+02 0.  0.
        -12    1    1    2    0    0 -0.16633317945E+02 -0.20896110044E+01  0.40032354927E+02  0.43400727886E+02  0.00000000000E+00 0.  1.
         11    1    3    3    0    0  0.27757423426E+01  0.15097769318E+01 -0.14954324520E+02  0.15284501760E+02  0.51100000000E-03 0. -1.
        -11    1    3    3    0    0  0.10356649845E+02  0.40839853536E+01 -0.25198248416E+02  0.27547973716E+02  0.51100000000E-03 0.  1.
        -12    1    3    3    0    0  0.35009257566E+01 -0.35041512810E+01  0.12021800895E+00  0.49547966380E+01  0.00000000000E+00 0.  1.
</event>
<event>
 7    1  0.2642243E-009  0.4778727E+02  0.7816164E-02  0.1312668E+00
        -11   -1    0    0    0    0  0.00000000000E+00  0.00000000000E+00  0.45593999997E+02  0.45594000000E+02  0.51100000000E-03 0. -1.
         11   -1    0    0    0    0 -0.00000000000E+00 -0.00000000000E+00 -0.45593999997E+02  0.45594000000E+02  0.51100000000E-03 0.  1.
    9900012    2    1    2    0    0 -0.14359006623E+00 -0.47155476655E+01  0.43143552292E+02  0.47787272906E+02  0.20000008489E+02 0.  0.
        -12    1    1    2    0    0  0.14359006623E+00  0.47155476655E+01 -0.43143552292E+02  0.43400727094E+02  0.00000000000E+00 0.  1.
         11    1    3    3    0    0 -0.67993851743E+00 -0.15035985369E+01 -0.16683634833E+00  0.16586016930E+01  0.51100000000E-03 0. -1.
        -11    1    3    3    0    0  0.49926181622E+01  0.40370213540E+01  0.11198744237E+02  0.12908743172E+02  0.51100000000E-03 0.  1.
        -12    1    3    3    0    0 -0.44562697110E+01 -0.72489704826E+01  0.32111644403E+02  0.33219928042E+02  0.00000000000E+00 0.  1.
</event>
<event>
 7    1  0.2642243E-009  0.4778723E+02  0.7816164E-02  0.1312668E+00
        -11   -1    0    0    0    0  0.00000000000E+00  0.00000000000E+00  0.45593999997E+02  0.45594000000E+02  0.51100000000E-03 0.  1.
         11   -1    0    0    0    0 -0.00000000000E+00 -0.00000000000E+00 -0.45593999997E+02  0.45594000000E+02  0.51100000000E-03 0. -1.
    9900012    2    1    2    0    0 -0.17481697843E+02 -0.44143000264E+01 -0.39478231009E+02  0.47787233557E+02  0.19999829081E+02 0.  0.
        -12    1    1    2    0    0  0.17481697843E+02  0.44143000264E+01  0.39478231009E+02  0.43400766443E+02  0.00000000000E+00 0.  1.
         11    1    3    3    0    0 -0.61215230052E+01  0.58811622021E+01 -0.12638362010E+02  0.15224628314E+02  0.51100000000E-03 0. -1.
        -11    1    3    3    0    0 -0.55055626920E+01 -0.11230264520E+02 -0.18409079544E+02  0.22255881732E+02  0.51100000000E-03 0.  1.
        -12    1    3    3    0    0 -0.58546121455E+01  0.93480229154E+00 -0.84307894550E+01  0.10306723511E+02  0.00000000000E+00 0.  1.
</event>
<event>
 7    1  0.2642243E-009  0.4778727E+02  0.7816164E-02  0.1312668E+00
        -11   -1    0    0    0    0  0.00000000000E+00  0.00000000000E+00  0.45593999997E+02  0.45594000000E+02  0.51100000000E-03 0.  1.
         11   -1    0    0    0    0 -0.00000000000E+00 -0.00000000000E+00 -0.45593999997E+02  0.45594000000E+02  0.51100000000E-03 0. -1.
    9900012    2    1    2    0    0 -0.46850585332E+00  0.32939804742E+02 -0.28255495967E+02  0.47787270899E+02  0.19999999337E+02 0.  0.
        -12    1    1    2    0    0  0.46850585332E+00 -0.32939804742E+02  0.28255495967E+02  0.43400729101E+02  0.00000000000E+00 0.  1.
         11    1    3    3    0    0  0.22025475090E+01  0.25169987432E+02 -0.26666544102E+02  0.36735324382E+02  0.51100000000E-03 0. -1.
        -11    1    3    3    0    0 -0.27868624530E+01  0.85808662437E+01  0.26401729346E+00  0.90259389105E+01  0.51100000000E-03 0.  1.
        -12    1    3    3    0    0  0.11580909062E+00 -0.81104893417E+00 -0.18529691582E+01  0.20260076062E+01  0.00000000000E+00 0.  1.
</event>
<event>
 7    1  0.2642243E-009  0.4778727E+02  0.7816164E-02  0.1312668E+00
        -11   -1    0    0    0    0  0.00000000000E+00  0.00000000000E+00  0.45593999997E+02  0.45594000000E+02  0.51100000000E-03 0.  1.
         11   -1    0    0    0    0 -0.00000000000E+00 -0.00000000000E+00 -0.45593999997E+02  0.45594000000E+02  0.51100000000E-03 0. -1.
    9900012    2    1    2    0    0  0.31306098451E+02 -0.90109198093E+01 -0.28676731001E+02  0.47787269857E+02  0.19999994584E+02 0.  0.
        -12    1    1    2    0    0 -0.31306098451E+02  0.90109198093E+01  0.28676731001E+02  0.43400730143E+02  0.00000000000E+00 0.  1.
         11    1    3    3    0    0  0.43392115079E+01  0.15508072885E+01 -0.67489088742E+00  0.46571705710E+01  0.51100000000E-03 0. -1.
        -11    1    3    3    0    0  0.34177574312E+01 -0.78231857915E+01 -0.41215745734E+01  0.94800147159E+01  0.51100000000E-03 0.  1.
        -12    1    3    3    0    0  0.23549129512E+02 -0.27385413062E+01 -0.23880265540E+02  0.33650084570E+02  0.00000000000E+00 0.  1.
</event>
<event>
 7    1  0.2642243E-009  0.4778728E+02  0.7816164E-02  0.1312668E+00
        -11   -1    0    0    0    0  0.00000000000E+00  0.00000000000E+00  0.45593999997E+02  0.45594000000E+02  0.51100000000E-03 0. -1.
         11   -1    0    0    0    0 -0.00000000000E+00 -0.00000000000E+00 -0.45593999997E+02  0.45594000000E+02  0.51100000000E-03 0.  1.
    9900012    2    1    2    0    0 -0.54505906968E+01 -0.43044380828E+02  0.10464184141E+01  0.47787278216E+02  0.20000032699E+02 0.  0.
        -12    1    1    2    0    0  0.54505906968E+01  0.43044380828E+02 -0.10464184141E+01  0.43400721784E+02  0.00000000000E+00 0.  1.
         11    1    3    3    0    0  0.29728886468E+01 -0.65858345526E+01  0.64615473135E+01  0.96934450845E+01  0.51100000000E-03 0. -1.
        -11    1    3    3    0    0 -0.52399484056E+01 -0.15307144657E+02 -0.39482121112E+01  0.16653951963E+02  0.51100000000E-03 0.  1.
         12    1    3    3    0    0 -0.31835309380E+01 -0.21151401619E+02 -0.14669167881E+01  0.21439881169E+02  0.00000000000E+00 0. -1.
</event>
<event>
 7    1  0.2642243E-009  0.4778727E+02  0.7816164E-02  0.1312668E+00
        -11   -1    0    0    0    0  0.00000000000E+00  0.00000000000E+00  0.45593999997E+02  0.45594000000E+02  0.51100000000E-03 0. -1.
         11   -1    0    0    0    0 -0.00000000000E+00 -0.00000000000E+00 -0.45593999997E+02  0.45594000000E+02  0.51100000000E-03 0.  1.
    9900012    2    1    2    0    0  0.49064689157E+01 -0.41608773123E+02  0.11325189452E+02  0.47787270120E+02  0.19999995784E+02 0.  0.
        -12    1    1    2    0    0 -0.49064689157E+01  0.41608773123E+02 -0.11325189452E+02  0.43400729880E+02  0.00000000000E+00 0.  1.
         11    1    3    3    0    0  0.18303611971E+01 -0.28446917738E+01  0.64843641916E+01  0.73136497476E+01  0.51100000000E-03 0. -1.
        -11    1    3    3    0    0 -0.27133783021E+01 -0.19095978593E+02 -0.47339472639E+00  0.19293597981E+02  0.51100000000E-03 0.  1.
         12    1    3    3    0    0  0.57894860207E+01 -0.19668102756E+02  0.53142199868E+01  0.21180022391E+02  0.00000000000E+00 0. -1.
</event>
<event>
 7    1  0.2642243E-009  0.4778727E+02  0.7816164E-02  0.1312668E+00
        -11   -1    0    0    0    0  0.00000000000E+00  0.00000000000E+00  0.45593999997E+02  0.45594000000E+02  0.51100000000E-03 0.  1.
         11   -1    0    0    0    0 -0.00000000000E+00 -0.00000000000E+00 -0.45593999997E+02  0.45594000000E+02  0.51100000000E-03 0. -1.
    9900012    2    1    2    0    0 -0.29898583255E+02 -0.17077492235E+02 -0.26420769045E+02  0.47787273524E+02  0.20000011307E+02 0.  0.
        -12    1    1    2    0    0  0.29898583255E+02  0.17077492235E+02  0.26420769045E+02  0.43400726476E+02  0.00000000000E+00 0.  1.
         11    1    3    3    0    0 -0.23510220552E+02 -0.65131468506E+01 -0.20227758054E+02  0.31690909556E+02  0.51100000000E-03 0. -1.
        -11    1    3    3    0    0 -0.69212714253E-01 -0.58848675821E+01 -0.57387830343E+01  0.82201026657E+01  0.51100000000E-03 0.  1.
        -12    1    3    3    0    0 -0.63191499880E+01 -0.46794778024E+01 -0.45422795700E+00  0.78762613028E+01  0.00000000000E+00 0.  1.
</event>
<event>
 7    1  0.2642243E-009  0.4778727E+02  0.7816164E-02  0.1312668E+00
        -11   -1    0    0    0    0  0.00000000000E+00  0.00000000000E+00  0.45593999997E+02  0.45594000000E+02  0.51100000000E-03 0.  1.
         11   -1    0    0    0    0 -0.00000000000E+00 -0.00000000000E+00 -0.45593999997E+02  0.45594000000E+02  0.51100000000E-03 0. -1.
    9900012    2    1    2    0    0 -0.40136077689E+01  0.21760587889E+02 -0.37336186342E+02  0.47787273702E+02  0.20000012116E+02 0.  0.
        -12    1    1    2    0    0  0.40136077689E+01 -0.21760587889E+02  0.37336186342E+02  0.43400726298E+02  0.00000000000E+00 0.  1.
         11    1    3    3    0    0  0.59811383025E+00  0.14869576246E+02 -0.34901702362E+02  0.37941940724E+02  0.51100000000E-03 0. -1.
        -11    1    3    3    0    0 -0.32153275507E+01  0.10912566496E+01  0.17687965673E-01  0.33955096022E+01  0.51100000000E-03 0.  1.
         12    1    3    3    0    0 -0.13963940484E+01  0.57997549933E+01 -0.24521719461E+01  0.64498233754E+01  0.00000000000E+00 0. -1.
</event>
<event>
 7    1  0.2642243E-009  0.4778727E+02  0.7816164E-02  0.1312668E+00
        -11   -1    0    0    0    0  0.00000000000E+00  0.00000000000E+00  0.45593999997E+02  0.45594000000E+02  0.51100000000E-03 0. -1.
         11   -1    0    0    0    0 -0.00000000000E+00 -0.00000000000E+00 -0.45593999997E+02  0.45594000000E+02  0.51100000000E-03 0.  1.
    9900012    2    1    2    0    0  0.21994637258E+02  0.31785096617E+02  0.19737443376E+02  0.47787272977E+02  0.20000008813E+02 0.  0.
        -12    1    1    2    0    0 -0.21994637258E+02 -0.31785096617E+02 -0.19737443376E+02  0.43400727023E+02  0.00000000000E+00 0.  1.
         11    1    3    3    0    0  0.15318068318E+02  0.17999146528E+02  0.13936938166E+02  0.27438125636E+02  0.51100000000E-03 0. -1.
        -11    1    3    3    0    0 -0.67760112469E+00  0.10946658822E+02  0.76360340751E+00  0.10994160863E+02  0.51100000000E-03 0.  1.
         12    1    3    3    0    0  0.73541700651E+01  0.28392912671E+01  0.50369018021E+01  0.93549864783E+01  0.00000000000E+00 0. -1.
</event>
<event>
 7    1  0.2642243E-009  0.4778728E+02  0.7816164E-02  0.1312668E+00
        -11   -1    0    0    0    0  0.00000000000E+00  0.00000000000E+00  0.45593999997E+02  0.45594000000E+02  0.51100000000E-03 0.  1.
         11   -1    0    0    0    0 -0.00000000000E+00 -0.00000000000E+00 -0.45593999997E+02  0.45594000000E+02  0.51100000000E-03 0. -1.
    9900012    2    1    2    0    0  0.24010097353E+02 -0.80744357555E+01 -0.35241192402E+02  0.47787275011E+02  0.20000018083E+02 0.  0.
        -12    1    1    2    0    0 -0.24010097353E+02  0.80744357555E+01  0.35241192402E+02  0.43400724989E+02  0.00000000000E+00 0.  1.
         11    1    3    3    0    0  0.12147818434E+02  0.40699627287E+01 -0.21529022662E+02  0.25052602787E+02  0.51100000000E-03 0. -1.
        -11    1    3    3    0    0  0.87429191302E+01 -0.11218064950E+02 -0.84376168511E+01  0.16537139854E+02  0.51100000000E-03 0.  1.
        -12    1    3    3    0    0  0.31193597884E+01 -0.92633353392E+00 -0.52745528889E+01  0.61975323705E+01  0.00000000000E+00 0.  1.
</event>
<event>
 7    1  0.2642243E-009  0.4778727E+02  0.7816164E-02  0.1312668E+00
        -11   -1    0    0    0    0  0.00000000000E+00  0.00000000000E+00  0.45593999997E+02  0.45594000000E+02  0.51100000000E-03 0. -1.
         11   -1    0    0    0    0 -0.00000000000E+00 -0.00000000000E+00 -0.45593999997E+02  0.45594000000E+02  0.51100000000E-03 0.  1.
    9900012    2    1    2    0    0  0.42483491685E+02  0.53403118207E-01  0.88754443714E+01  0.47787269241E+02  0.19999991777E+02 0.  0.
        -12    1    1    2    0    0 -0.42483491685E+02 -0.53403118207E-01 -0.88754443714E+01  0.43400730759E+02  0.00000000000E+00 0.  1.
         11    1    3    3    0    0  0.27142277978E+01 -0.46806893091E+01  0.35957381935E+01  0.64965543455E+01  0.51100000000E-03 0. -1.
        -11    1    3    3    0    0  0.12862357138E+00  0.63384285690E+00 -0.74409974022E+00  0.98589323706E+00  0.51100000000E-03 0.  1.
         12    1    3    3    0    0  0.39640640316E+02  0.41002495704E+01  0.60238059181E+01  0.40304821658E+02  0.00000000000E+00 0. -1.
</event>
<event>
 7    1  0.2642243E-009  0.4778727E+02  0.7816164E-02  0.1312668E+00
        -11   -1    0    0    0    0  0.00000000000E+00  0.00000000000E+00  0.45593999997E+02  0.45594000000E+02  0.51100000000E-03 0.  1.
         11   -1    0    0    0    0 -0.00000000000E+00 -0.00000000000E+00 -0.45593999997E+02  0.45594000000E+02  0.51100000000E-03 0. -1.
    9900012    2    1    2    0    0 -0.32088476593E+02 -0.75198973510E+01 -0.28238345392E+02  0.47787270320E+02  0.19999996699E+02 0.  0.
        -12    1    1    2    0    0  0.32088476593E+02  0.75198973510E+01  0.28238345392E+02  0.43400729680E+02  0.00000000000E+00 0.  1.
         11    1    3    3    0    0 -0.22847646785E+02  0.42868064126E+00 -0.20502533832E+02  0.30701019926E+02  0.51100000000E-03 0. -1.
        -11    1    3    3    0    0 -0.34750108162E+01  0.17665994610E+01 -0.25291902937E+01  0.46468675074E+01  0.51100000000E-03 0.  1.
         12    1    3    3    0    0 -0.57658189920E+01 -0.97151774533E+01 -0.52066212663E+01  0.12439382887E+02  0.00000000000E+00 0. -1.
</event>
<event>
 7    1  0.2642243E-009  0.4778727E+02  0.7816164E-02  0.1312668E+00
        -11   -1    0    0    0    0  0.00000000000E+00  0.00000000000E+00  0.45593999997E+02  0.45594000000E+02  0.51100000000E-03 0.  1.
         11   -1    0    0    0    0 -0.00000000000E+00 -0.00000000000E+00 -0.45593999997E+02  0.45594000000E+02  0.51100000000E-03 0. -1.
    9900012    2    1    2    0    0 -0.25980413581E+02 -0.17751637179E+02 -0.29891821167E+02  0.47787268612E+02  0.19999988908E+02 0.  0.
        -12    1    1    2    0    0  0.25980413581E+02  0.17751637179E+02  0.29891821167E+02  0.43400731388E+02  0.00000000000E+00 0.  1.
         11    1    3    3    0    0 -0.53700828144E+01 -0.36665860123E+01 -0.19944467813E+01  0.68014307792E+01  0.51100000000E-03 0. -1.
        -11    1    3    3    0    0 -0.16004537159E+02 -0.84878501064E+01 -0.79897340096E+01  0.19799612595E+02  0.51100000000E-03 0.  1.
        -12    1    3    3    0    0 -0.46057936072E+01 -0.55972010603E+01 -0.19907640376E+02  0.21186225238E+02  0.00000000000E+00 0.  1.
</event>
<event>
 7    1  0.2642243E-009  0.4778727E+02  0.7816164E-02  0.1312668E+00
        -11   -1    0    0    0    0  0.00000000000E+00  0.00000000000E+00  0.45593999997E+02  0.45594000000E+02  0.51100000000E-03 0.  1.
         11   -1    0    0    0    0 -0.00000000000E+00 -0.00000000000E+00 -0.45593999997E+02  0.45594000000E+02  0.51100000000E-03 0. -1.
    9900012    2    1    2    0    0  0.13987766594E+02  0.37755946208E+02  0.16200441421E+02  0.47787269699E+02  0.19999993867E+02 0.  0.
        -12    1    1    2    0    0 -0.13987766594E+02 -0.37755946208E+02 -0.16200441421E+02  0.43400730301E+02  0.00000000000E+00 0.  1.
         11    1    3    3    0    0  0.10226017940E+02  0.16000794384E+02 -0.45714147865E+00  0.18994889903E+02  0.51100000000E-03 0. -1.
        -11    1    3    3    0    0  0.37033791863E+01  0.19271399407E+02  0.17370627201E+02  0.26207642819E+02  0.51100000000E-03 0.  1.
        -12    1    3    3    0    0  0.58369468087E-01  0.24837524174E+01 -0.71304430180E+00  0.25847369773E+01  0.00000000000E+00 0.  1.
</event>
<event>
 7    1  0.2642243E-009  0.4778727E+02  0.7816164E-02  0.1312668E+00
        -11   -1    0    0    0    0  0.00000000000E+00  0.00000000000E+00  0.45593999997E+02  0.45594000000E+02  0.51100000000E-03 0. -1.
         11   -1    0    0    0    0 -0.00000000000E+00 -0.00000000000E+00 -0.45593999997E+02  0.45594000000E+02  0.51100000000E-03 0.  1.
    9900012    2    1    2    0    0  0.86898404927E+01  0.18458421311E+02  0.38306616780E+02  0.47787268045E+02  0.19999986326E+02 0.  0.
        -12    1    1    2    0    0 -0.86898404927E+01 -0.18458421311E+02 -0.38306616780E+02  0.43400731955E+02  0.00000000000E+00 0.  1.
         11    1    3    3    0    0 -0.75452528735E+00 -0.12902700153E+00  0.10283930909E+02  0.10312380500E+02  0.51100000000E-03 0. -1.
        -11    1    3    3    0    0  0.87788264506E+01  0.20731619453E+02  0.24290090058E+02  0.33119123091E+02  0.51100000000E-03 0.  1.
        -12    1    3    3    0    0  0.66553932938E+00 -0.21441711410E+01  0.37325958127E+01  0.43557644544E+01  0.00000000000E+00 0.  1.
</event>
<event>
 7    1  0.2642243E-009  0.4778727E+02  0.7816164E-02  0.1312668E+00
        -11   -1    0    0    0    0  0.00000000000E+00  0.00000000000E+00  0.45593999997E+02  0.45594000000E+02  0.51100000000E-03 0. -1.
         11   -1    0    0    0    0 -0.00000000000E+00 -0.00000000000E+00 -0.45593999997E+02  0.45594000000E+02  0.51100000000E-03 0.  1.
    9900012    2    1    2    0    0  0.15087975261E+02 -0.36110003334E+02  0.18762837055E+02  0.47787269676E+02  0.19999993762E+02 0.  0.
        -12    1    1    2    0    0 -0.15087975261E+02  0.36110003334E+02 -0.18762837055E+02  0.43400730324E+02  0.00000000000E+00 0.  1.
         11    1    3    3    0    0 -0.34358063042E+01 -0.45831211138E+01  0.76601076989E+01  0.95648844386E+01  0.51100000000E-03 0. -1.
        -11    1    3    3    0    0  0.12282000216E+02 -0.20200112851E+02  0.70652380006E+01  0.24674068914E+02  0.51100000000E-03 0.  1.
         12    1    3    3    0    0  0.62417813497E+01 -0.11326769370E+02  0.40374913558E+01  0.13548316324E+02  0.00000000000E+00 0. -1.
</event>
<event>
 7    1  0.2740918E-009  0.4778728E+02  0.7816164E-02  0.1312668E+00
        -11   -1    0    0    0    0  0.00000000000E+00  0.00000000000E+00  0.45593999997E+02  0.45594000000E+02  0.51100000000E-03 0.  1.
         11   -1    0    0    0    0 -0.00000000000E+00 -0.00000000000E+00 -0.45593999997E+02  0.45594000000E+02  0.51100000000E-03 0. -1.
    9900012    2    1    2    0    0  0.14837056415E+02 -0.39324843516E+02 -0.10818545647E+02  0.47787280069E+02  0.20000041148E+02 0.  0.
        -12    1    1    2    0    0 -0.14837056415E+02  0.39324843516E+02  0.10818545647E+02  0.43400719931E+02  0.00000000000E+00 0.  1.
         11    1    3    3    0    0  0.49471064656E+01 -0.21257070459E+02 -0.71529909407E+01  0.22967415756E+02  0.51100000000E-03 0. -1.
        -11    1    3    3    0    0  0.17601161897E+01 -0.79048332488E+01  0.46856720423E+01  0.93562770610E+01  0.51100000000E-03 0.  1.
        -12    1    3    3    0    0  0.81298337593E+01 -0.10162939808E+02 -0.83512267486E+01  0.15463587252E+02  0.00000000000E+00 0.  1.
</event>
<event>
 7    1  0.2642243E-009  0.4778727E+02  0.7816164E-02  0.1312668E+00
        -11   -1    0    0    0    0  0.00000000000E+00  0.00000000000E+00  0.45593999997E+02  0.45594000000E+02  0.51100000000E-03 0.  1.
         11   -1    0    0    0    0 -0.00000000000E+00 -0.00000000000E+00 -0.45593999997E+02  0.45594000000E+02  0.51100000000E-03 0. -1.
    9900012    2    1    2    0    0  0.14331080709E+02  0.40317338024E+02 -0.72633225086E+01  0.47787268744E+02  0.19999989514E+02 0.  0.
        -12    1    1    2    0    0 -0.14331080709E+02 -0.40317338024E+02  0.72633225086E+01  0.43400731256E+02  0.00000000000E+00 0.  1.
         11    1    3    3    0    0  0.13572287770E+02  0.19929770336E+02 -0.80041468987E+01  0.25406084090E+02  0.51100000000E-03 0. -1.
        -11    1    3    3    0    0  0.12471506831E+01  0.80126844142E+01  0.47080078677E+01  0.93767710163E+01  0.51100000000E-03 0.  1.
         12    1    3    3    0    0 -0.48835774381E+00  0.12374883274E+02 -0.39671834777E+01  0.13004413638E+02  0.00000000000E+00 0. -1.
</event>
<event>
 7    1  0.2642243E-009  0.4778727E+02  0.7816164E-02  0.1312668E+00
        -11   -1    0    0    0    0  0.00000000000E+00  0.00000000000E+00  0.45593999997E+02  0.45594000000E+02  0.51100000000E-03 0.  1.
         11   -1    0    0    0    0 -0.00000000000E+00 -0.00000000000E+00 -0.45593999997E+02  0.45594000000E+02  0.51100000000E-03 0. -1.
    9900012    2    1    2    0    0  0.15960062999E+02  0.33336550969E+01 -0.40221718074E+02  0.47787268761E+02  0.19999989589E+02 0.  0.
        -12    1    1    2    0    0 -0.15960062999E+02 -0.33336550969E+01  0.40221718074E+02  0.43400731239E+02  0.00000000000E+00 0.  1.
         11    1    3    3    0    0  0.44472772044E+01 -0.18867665600E+01 -0.62170266063E+00  0.48707983990E+01  0.51100000000E-03 0.  1.
        -11    1    3    3    0    0  0.11198682309E+02  0.79384062995E+01 -0.34464221618E+02  0.37097322707E+02  0.51100000000E-03 0. -1.
         12    1    3    3    0    0  0.31410348542E+00 -0.27179846426E+01 -0.51357937954E+01  0.58191476546E+01  0.00000000000E+00 0. -1.
</event>
<event>
 7    1  0.2642243E-009  0.4778726E+02  0.7816164E-02  0.1312668E+00
        -11   -1    0    0    0    0  0.00000000000E+00  0.00000000000E+00  0.45593999997E+02  0.45594000000E+02  0.51100000000E-03 0.  1.
         11   -1    0    0    0    0 -0.00000000000E+00 -0.00000000000E+00 -0.45593999997E+02  0.45594000000E+02  0.51100000000E-03 0. -1.
    9900012    2    1    2    0    0 -0.22148701123E+02  0.79185614543E+01 -0.36474040434E+02  0.47787260346E+02  0.19999951222E+02 0.  0.
        -12    1    1    2    0    0  0.22148701123E+02 -0.79185614543E+01  0.36474040434E+02  0.43400739654E+02  0.00000000000E+00 0.  1.
         11    1    3    3    0    0 -0.32210674451E+01 -0.54316780947E+01 -0.74200315351E+01  0.97434732336E+01  0.51100000000E-03 0. -1.
        -11    1    3    3    0    0 -0.87786210486E+01  0.69429502567E+01 -0.20325075712E+02  0.23202962068E+02  0.51100000000E-03 0.  1.
         12    1    3    3    0    0 -0.10149012629E+02  0.64072892923E+01 -0.87289331868E+01  0.14840825044E+02  0.00000000000E+00 0. -1.
</event>
<event>
 7    1  0.2642243E-009  0.4778727E+02  0.7816164E-02  0.1312668E+00
        -11   -1    0    0    0    0  0.00000000000E+00  0.00000000000E+00  0.45593999997E+02  0.45594000000E+02  0.51100000000E-03 0. -1.
         11   -1    0    0    0    0 -0.00000000000E+00 -0.00000000000E+00 -0.45593999997E+02  0.45594000000E+02  0.51100000000E-03 0.  1.
    9900012    2    1    2    0    0 -0.31129489221E+02 -0.28503393635E+02  0.10106198421E+02  0.47787265048E+02  0.19999972658E+02 0.  0.
        -12    1    1    2    0    0  0.31129489221E+02  0.28503393635E+02 -0.10106198421E+02  0.43400734952E+02  0.00000000000E+00 0.  1.
         11    1    3    3    0    0 -0.12055218520E+02 -0.73292865079E+00 -0.87873484014E+00  0.12109403502E+02  0.51100000000E-03 0. -1.
        -11    1    3    3    0    0 -0.58118892047E+01 -0.11982003977E+02  0.39337578023E+01  0.13885997485E+02  0.51100000000E-03 0.  1.
         12    1    3    3    0    0 -0.13262381496E+02 -0.15788461007E+02  0.70511754593E+01  0.21791864061E+02  0.00000000000E+00 0. -1.
</event>
<event>
 7    1  0.2642243E-009  0.4778727E+02  0.7816164E-02  0.1312668E+00
        -11   -1    0    0    0    0  0.00000000000E+00  0.00000000000E+00  0.45593999997E+02  0.45594000000E+02  0.51100000000E-03 0.  1.
         11   -1    0    0    0    0 -0.00000000000E+00 -0.00000000000E+00 -0.45593999997E+02  0.45594000000E+02  0.51100000000E-03 0. -1.
    9900012    2    1    2    0    0 -0.15581901114E+02 -0.71501761516E+01 -0.39871072797E+02  0.47787272964E+02  0.20000008750E+02 0.  0.
        -12    1    1    2    0    0  0.15581901114E+02  0.71501761516E+01  0.39871072797E+02  0.43400727036E+02  0.00000000000E+00 0.  1.
         11    1    3    3    0    0  0.17900760710E+01  0.14313264195E+01 -0.14136263556E+02  0.14320859445E+02  0.51100000000E-03 0. -1.
        -11    1    3    3    0    0 -0.32174424107E+01  0.10512844304E+01 -0.12907416740E+01  0.36225887084E+01  0.51100000000E-03 0.  1.
         12    1    3    3    0    0 -0.14154534774E+02 -0.96327870014E+01 -0.24444067567E+02  0.29843824810E+02  0.00000000000E+00 0. -1.
</event>
<event>
 7    1  0.2642243E-009  0.4778727E+02  0.7816164E-02  0.1312668E+00
        -11   -1    0    0    0    0  0.00000000000E+00  0.00000000000E+00  0.45593999997E+02  0.45594000000E+02  0.51100000000E-03 0.  1.
         11   -1    0    0    0    0 -0.00000000000E+00 -0.00000000000E+00 -0.45593999997E+02  0.45594000000E+02  0.51100000000E-03 0. -1.
    9900012    2    1    2    0    0 -0.30425494221E+02  0.89635250284E+01 -0.29623767948E+02  0.47787272967E+02  0.20000008766E+02 0.  0.
        -12    1    1    2    0    0  0.30425494221E+02 -0.89635250284E+01  0.29623767948E+02  0.43400727033E+02  0.00000000000E+00 0.  1.
         11    1    3    3    0    0 -0.95820992228E+01  0.23049994675E+01 -0.89554001223E+01  0.13316487513E+02  0.51100000000E-03 0. -1.
        -11    1    3    3    0    0 -0.15543669740E+02  0.70372809850E+01 -0.23025319419E+02  0.28658233149E+02  0.51100000000E-03 0.  1.
        -12    1    3    3    0    0 -0.52997252585E+01 -0.37875542404E+00  0.23569515932E+01  0.58125523051E+01  0.00000000000E+00 0.  1.
</event>
<event>
 7    1  0.2642243E-009  0.4778727E+02  0.7816164E-02  0.1312668E+00
        -11   -1    0    0    0    0  0.00000000000E+00  0.00000000000E+00  0.45593999997E+02  0.45594000000E+02  0.51100000000E-03 0. -1.
         11   -1    0    0    0    0 -0.00000000000E+00 -0.00000000000E+00 -0.45593999997E+02  0.45594000000E+02  0.51100000000E-03 0.  1.
    9900012    2    1    2    0    0 -0.36040965177E+02  0.22051304938E+02 -0.99202954113E+01  0.47787268654E+02  0.19999989102E+02 0.  0.
        -12    1    1    2    0    0  0.36040965177E+02 -0.22051304938E+02  0.99202954113E+01  0.43400731346E+02  0.00000000000E+00 0.  1.
         11    1    3    3    0    0 -0.29503913586E+02  0.17374601362E+02 -0.54509218008E+01  0.34670884588E+02  0.51100000000E-03 0. -1.
        -11    1    3    3    0    0 -0.84486202502E+01  0.43794343144E+01 -0.54300248758E+01  0.10956450130E+02  0.51100000000E-03 0.  1.
         12    1    3    3    0    0  0.19115686594E+01  0.29726926106E+00  0.96065126531E+00  0.21599339358E+01  0.00000000000E+00 0. -1.
</event>
<event>
 7    1  0.2642243E-009  0.4778727E+02  0.7816164E-02  0.1312668E+00
        -11   -1    0    0    0    0  0.00000000000E+00  0.00000000000E+00  0.45593999997E+02  0.45594000000E+02  0.51100000000E-03 0.  1.
         11   -1    0    0    0    0 -0.00000000000E+00 -0.00000000000E+00 -0.45593999997E+02  0.45594000000E+02  0.51100000000E-03 0. -1.
    9900012    2    1    2    0    0  0.54119224374E+01  0.58736950127E+01 -0.42659509789E+02  0.47787274511E+02  0.20000015804E+02 0.  0.
        -12    1    1    2    0    0 -0.54119224374E+01 -0.58736950127E+01  0.42659509789E+02  0.43400725489E+02  0.00000000000E+00 0.  1.
         11    1    3    3    0    0 -0.17964090658E+01 -0.57977168419E+01 -0.23097410664E+02  0.23881603501E+02  0.51100000000E-03 0. -1.
        -11    1    3    3    0    0  0.38843271962E+01  0.57205973385E+01 -0.94022708973E+01  0.11671158039E+02  0.51100000000E-03 0.  1.
         12    1    3    3    0    0  0.33240043071E+01  0.59508145161E+01 -0.10159828227E+02  0.12234512971E+02  0.00000000000E+00 0. -1.
</event>
<event>
 7    1  0.2642243E-009  0.4778728E+02  0.7816164E-02  0.1312668E+00
        -11   -1    0    0    0    0  0.00000000000E+00  0.00000000000E+00  0.45593999997E+02  0.45594000000E+02  0.51100000000E-03 0.  1.
         11   -1    0    0    0    0 -0.00000000000E+00 -0.00000000000E+00 -0.45593999997E+02  0.45594000000E+02  0.51100000000E-03 0. -1.
    9900012    2    1    2    0    0 -0.35615795909E+02  0.22047735517E+02 -0.11359358751E+02  0.47787278913E+02  0.20000035875E+02 0.  0.
        -12    1    1    2    0    0  0.35615795909E+02 -0.22047735517E+02  0.11359358751E+02  0.43400721087E+02  0.00000000000E+00 0.  1.
         11    1    3    3    0    0 -0.29138488849E+02  0.14054537628E+02 -0.66508436193E+01  0.33027492812E+02  0.51100000000E-03 0. -1.
        -11    1    3    3    0    0 -0.36753520820E+01  0.79153083446E+01 -0.69615683127E+01  0.11163500918E+02  0.51100000000E-03 0.  1.
        -12    1    3    3    0    0 -0.28019549779E+01  0.77889544908E-01  0.22530531810E+01  0.35962851828E+01  0.00000000000E+00 0.  1.
</event>
<event>
 7    1  0.2642243E-009  0.4778727E+02  0.7816164E-02  0.1312668E+00
        -11   -1    0    0    0    0  0.00000000000E+00  0.00000000000E+00  0.45593999997E+02  0.45594000000E+02  0.51100000000E-03 0.  1.
         11   -1    0    0    0    0 -0.00000000000E+00 -0.00000000000E+00 -0.45593999997E+02  0.45594000000E+02  0.51100000000E-03 0. -1.
    9900012    2    1    2    0    0  0.26452537295E+01  0.27432040753E+02 -0.33527733073E+02  0.47787272907E+02  0.20000008493E+02 0.  0.
        -12    1    1    2    0    0 -0.26452537295E+01 -0.27432040753E+02  0.33527733073E+02  0.43400727093E+02  0.00000000000E+00 0.  1.
         11    1    3    3    0    0  0.17721592915E+01  0.20665699048E+02 -0.14583061318E+02  0.25355025999E+02  0.51100000000E-03 0. -1.
        -11    1    3    3    0    0 -0.36533553027E+01  0.54988365308E+01 -0.14634647388E+02  0.16054815869E+02  0.51100000000E-03 0.  1.
        -12    1    3    3    0    0  0.45264497406E+01  0.12675051735E+01 -0.43100243670E+01  0.63774310395E+01  0.00000000000E+00 0.  1.
</event>
<event>
 7    1  0.2642243E-009  0.4778728E+02  0.7816164E-02  0.1312668E+00
        -11   -1    0    0    0    0  0.00000000000E+00  0.00000000000E+00  0.45593999997E+02  0.45594000000E+02  0.51100000000E-03 0. -1.
         11   -1    0    0    0    0 -0.00000000000E+00 -0.00000000000E+00 -0.45593999997E+02  0.45594000000E+02  0.51100000000E-03 0.  1.
    9900012    2    1    2    0    0  0.43144345409E+02 -0.25760937151E+01  0.39435981058E+01  0.47787276900E+02  0.20000026696E+02 0.  0.
        -12    1    1    2    0    0 -0.43144345409E+02  0.25760937151E+01 -0.39435981058E+01  0.43400723100E+02  0.00000000000E+00 0.  1.
         11    1    3    3    0    0  0.30669631421E+02  0.25961640285E+01  0.30665317970E+01  0.30931698574E+02  0.51100000000E-03 0. -1.
        -11    1    3    3    0    0  0.81611962253E+01 -0.78328992162E+01 -0.12061739398E+01  0.11376040163E+02  0.51100000000E-03 0.  1.
        -12    1    3    3    0    0  0.43135177627E+01  0.26606414726E+01  0.20832402486E+01  0.54795381619E+01  0.00000000000E+00 0.  1.
</event>
<event>
 7    1  0.2642243E-009  0.4778727E+02  0.7816164E-02  0.1312668E+00
        -11   -1    0    0    0    0  0.00000000000E+00  0.00000000000E+00  0.45593999997E+02  0.45594000000E+02  0.51100000000E-03 0.  1.
         11   -1    0    0    0    0 -0.00000000000E+00 -0.00000000000E+00 -0.45593999997E+02  0.45594000000E+02  0.51100000000E-03 0. -1.
    9900012    2    1    2    0    0  0.31959371539E+02  0.26022728487E+02  0.13602922850E+02  0.47787270315E+02  0.19999996676E+02 0.  0.
        -12    1    1    2    0    0 -0.31959371539E+02 -0.26022728487E+02 -0.13602922850E+02  0.43400729685E+02  0.00000000000E+00 0.  1.
         11    1    3    3    0    0  0.33977178657E+01  0.53233885490E+01 -0.42797913476E+01  0.76288640424E+01  0.51100000000E-03 0.  1.
        -11    1    3    3    0    0  0.15988263126E+02  0.15744111607E+02  0.11434068512E+02  0.25184112672E+02  0.51100000000E-03 0. -1.
        -12    1    3    3    0    0  0.12573390547E+02  0.49552283312E+01  0.64486456858E+01  0.14974293601E+02  0.00000000000E+00 0.  1.
</event>
<event>
 7    1  0.2642243E-009  0.4778727E+02  0.7816164E-02  0.1312668E+00
        -11   -1    0    0    0    0  0.00000000000E+00  0.00000000000E+00  0.45593999997E+02  0.45594000000E+02  0.51100000000E-03 0.  1.
         11   -1    0    0    0    0 -0.00000000000E+00 -0.00000000000E+00 -0.45593999997E+02  0.45594000000E+02  0.51100000000E-03 0. -1.
    9900012    2    1    2    0    0  0.79078935835E+01 -0.42660708742E+02 -0.10733898332E+01  0.47787274004E+02  0.20000013492E+02 0.  0.
        -12    1    1    2    0    0 -0.79078935835E+01  0.42660708742E+02  0.10733898332E+01  0.43400725996E+02  0.00000000000E+00 0.  1.
         11    1    3    3    0    0  0.84189825178E+01 -0.16318413033E+02  0.63225711056E+01  0.19420215658E+02  0.51100000000E-03 0. -1.
        -11    1    3    3    0    0 -0.11962286828E+01 -0.23300634197E+01  0.11630628454E+01  0.28658112368E+01  0.51100000000E-03 0.  1.
         12    1    3    3    0    0  0.68513974853E+00 -0.24012232289E+02 -0.85590237842E+01  0.25501247109E+02  0.00000000000E+00 0. -1.
</event>
<event>
 7    1  0.2642243E-009  0.4778727E+02  0.7816164E-02  0.1312668E+00
        -11   -1    0    0    0    0  0.00000000000E+00  0.00000000000E+00  0.45593999997E+02  0.45594000000E+02  0.51100000000E-03 0. -1.
         11   -1    0    0    0    0 -0.00000000000E+00 -0.00000000000E+00 -0.45593999997E+02  0.45594000000E+02  0.51100000000E-03 0.  1.
    9900012    2    1    2    0    0 -0.37098016198E+02 -0.15698006122E+02  0.16153418805E+02  0.47787272574E+02  0.20000006972E+02 0.  0.
        -12    1    1    2    0    0  0.37098016198E+02  0.15698006122E+02 -0.16153418805E+02  0.43400727426E+02  0.00000000000E+00 0.  1.
         11    1    3    3    0    0 -0.68463658613E+01 -0.64468904501E+01  0.70303901311E+01  0.11741444018E+02  0.51100000000E-03 0. -1.
        -11    1    3    3    0    0 -0.28912426806E+02 -0.39430471540E+01  0.91178802309E+01  0.30571421047E+02  0.51100000000E-03 0.  1.
        -12    1    3    3    0    0 -0.13392235307E+01 -0.53080685180E+01  0.51484435082E-02  0.54744075080E+01  0.00000000000E+00 0.  1.
</event>
<event>
 7    1  0.2642243E-009  0.4778727E+02  0.7816164E-02  0.1312668E+00
        -11   -1    0    0    0    0  0.00000000000E+00  0.00000000000E+00  0.45593999997E+02  0.45594000000E+02  0.51100000000E-03 0.  1.
         11   -1    0    0    0    0 -0.00000000000E+00 -0.00000000000E+00 -0.45593999997E+02  0.45594000000E+02  0.51100000000E-03 0. -1.
    9900012    2    1    2    0    0 -0.29537985277E+01 -0.40675678213E+02 -0.14845449987E+02  0.47787272942E+02  0.20000008653E+02 0.  0.
        -12    1    1    2    0    0  0.29537985277E+01  0.40675678213E+02  0.14845449987E+02  0.43400727058E+02  0.00000000000E+00 0.  1.
         11    1    3    3    0    0  0.65476447877E+01 -0.18664056914E+02 -0.92187770816E+01  0.21822110895E+02  0.51100000000E-03 0. -1.
        -11    1    3    3    0    0 -0.90831510619E+01 -0.14207051435E+02 -0.65605895358E+01  0.18093791173E+02  0.51100000000E-03 0.  1.
        -12    1    3    3    0    0 -0.41829225354E+00 -0.78045698639E+01  0.93391663093E+00  0.78713708745E+01  0.00000000000E+00 0.  1.
</event>
<event>
 7    1  0.2642243E-009  0.4778727E+02  0.7816164E-02  0.1312668E+00
        -11   -1    0    0    0    0  0.00000000000E+00  0.00000000000E+00  0.45593999997E+02  0.45594000000E+02  0.51100000000E-03 0.  1.
         11   -1    0    0    0    0 -0.00000000000E+00 -0.00000000000E+00 -0.45593999997E+02  0.45594000000E+02  0.51100000000E-03 0. -1.
    9900012    2    1    2    0    0 -0.11262172777E+02  0.18334851856E+02 -0.37691114878E+02  0.47787268796E+02  0.19999989750E+02 0.  0.
        -12    1    1    2    0    0  0.11262172777E+02 -0.18334851856E+02  0.37691114878E+02  0.43400731204E+02  0.00000000000E+00 0.  1.
         11    1    3    3    0    0 -0.45837585521E+00  0.48328224286E+01 -0.32760028373E+01  0.58564900668E+01  0.51100000000E-03 0.  1.
        -11    1    3    3    0    0 -0.11312905113E+02  0.16915416890E+02 -0.27592543188E+02  0.34285005331E+02  0.51100000000E-03 0. -1.
        -12    1    3    3    0    0  0.50910819147E+00 -0.34133874622E+01 -0.68225688528E+01  0.76457733990E+01  0.00000000000E+00 0.  1.
</event>
<event>
 7    1  0.2642243E-009  0.4778727E+02  0.7816164E-02  0.1312668E+00
        -11   -1    0    0    0    0  0.00000000000E+00  0.00000000000E+00  0.45593999997E+02  0.45594000000E+02  0.51100000000E-03 0. -1.
         11   -1    0    0    0    0 -0.00000000000E+00 -0.00000000000E+00 -0.45593999997E+02  0.45594000000E+02  0.51100000000E-03 0.  1.
    9900012    2    1    2    0    0 -0.31303656563E+02  0.15280350000E+02  0.25888515650E+02  0.47787271286E+02  0.20000001102E+02 0.  0.
        -12    1    1    2    0    0  0.31303656563E+02 -0.15280350000E+02 -0.25888515650E+02  0.43400728714E+02  0.00000000000E+00 0.  1.
         11    1    3    3    0    0 -0.19907946934E+01 -0.29327305938E+01  0.40194371596E+01  0.53591088428E+01  0.51100000000E-03 0. -1.
        -11    1    3    3    0    0 -0.27754047801E+01 -0.15807512889E+01  0.12749944935E+01  0.34390780087E+01  0.51100000000E-03 0.  1.
         12    1    3    3    0    0 -0.26537457089E+02  0.19793831883E+02  0.20594083997E+02  0.38989084435E+02  0.00000000000E+00 0. -1.
</event>
<event>
 7    1  0.2642243E-009  0.4778727E+02  0.7816164E-02  0.1312668E+00
        -11   -1    0    0    0    0  0.00000000000E+00  0.00000000000E+00  0.45593999997E+02  0.45594000000E+02  0.51100000000E-03 0.  1.
         11   -1    0    0    0    0 -0.00000000000E+00 -0.00000000000E+00 -0.45593999997E+02  0.45594000000E+02  0.51100000000E-03 0. -1.
    9900012    2    1    2    0    0 -0.54911579616E+01  0.67862370517E+00 -0.43046602062E+02  0.47787270801E+02  0.19999998890E+02 0.  0.
        -12    1    1    2    0    0  0.54911579616E+01 -0.67862370517E+00  0.43046602062E+02  0.43400729199E+02  0.00000000000E+00 0.  1.
         11    1    3    3    0    0 -0.10682965465E+02  0.17464716426E+00 -0.32562603711E+02  0.34270678626E+02  0.51100000000E-03 0. -1.
        -11    1    3    3    0    0 -0.71778792223E+00 -0.19563471053E+01 -0.32093552149E+01  0.38265486609E+01  0.51100000000E-03 0.  1.
         12    1    3    3    0    0  0.59095954261E+01  0.24603236462E+01 -0.72746431362E+01  0.96900435140E+01  0.00000000000E+00 0. -1.
</event>
<event>
 7    1  0.2642243E-009  0.4778727E+02  0.7816164E-02  0.1312668E+00
        -11   -1    0    0    0    0  0.00000000000E+00  0.00000000000E+00  0.45593999997E+02  0.45594000000E+02  0.51100000000E-03 0. -1.
         11   -1    0    0    0    0 -0.00000000000E+00 -0.00000000000E+00 -0.45593999997E+02  0.45594000000E+02  0.51100000000E-03 0.  1.
    9900012    2    1    2    0    0  0.17124465308E+02  0.39524604724E+02  0.53086410507E+01  0.47787270047E+02  0.19999995451E+02 0.  0.
        -12    1    1    2    0    0 -0.17124465308E+02 -0.39524604724E+02 -0.53086410507E+01  0.43400729953E+02  0.00000000000E+00 0.  1.
         11    1    3    3    0    0  0.19171916727E+01  0.14579833610E+02  0.90388409643E+01  0.17261165032E+02  0.51100000000E-03 0. -1.
        -11    1    3    3    0    0  0.52784097170E+01  0.40853492844E+01 -0.32387561342E+01  0.74189776569E+01  0.51100000000E-03 0.  1.
         12    1    3    3    0    0  0.99288639181E+01  0.20859421829E+02 -0.49144377945E+00  0.23107127358E+02  0.00000000000E+00 0. -1.
</event>
<event>
 7    1  0.2642243E-009  0.4778727E+02  0.7816164E-02  0.1312668E+00
        -11   -1    0    0    0    0  0.00000000000E+00  0.00000000000E+00  0.45593999997E+02  0.45594000000E+02  0.51100000000E-03 0. -1.
         11   -1    0    0    0    0 -0.00000000000E+00 -0.00000000000E+00 -0.45593999997E+02  0.45594000000E+02  0.51100000000E-03 0.  1.
    9900012    2    1    2    0    0  0.20030778208E+02  0.35041769813E+02 -0.15951988016E+02  0.47787266954E+02  0.19999981350E+02 0.  0.
        -12    1    1    2    0    0 -0.20030778208E+02 -0.35041769813E+02  0.15951988016E+02  0.43400733046E+02  0.00000000000E+00 0.  1.
         11    1    3    3    0    0  0.38956554244E+01  0.12769972563E+02 -0.48067104543E+01  0.14189883583E+02  0.51100000000E-03 0. -1.
        -11    1    3    3    0    0 -0.16039458196E+01  0.93740400856E+01 -0.53521523842E+01  0.10912873367E+02  0.51100000000E-03 0.  1.
        -12    1    3    3    0    0  0.17739068604E+02  0.12897757165E+02 -0.57931251779E+01  0.22684510004E+02  0.00000000000E+00 0.  1.
</event>
<event>
 7    1  0.2642243E-009  0.4778727E+02  0.7816164E-02  0.1312668E+00
        -11   -1    0    0    0    0  0.00000000000E+00  0.00000000000E+00  0.45593999997E+02  0.45594000000E+02  0.51100000000E-03 0.  1.
         11   -1    0    0    0    0 -0.00000000000E+00 -0.00000000000E+00 -0.45593999997E+02  0.45594000000E+02  0.51100000000E-03 0. -1.
    9900012    2    1    2    0    0  0.11292724688E+02  0.12273404934E+02 -0.40068204069E+02  0.47787273314E+02  0.20000010349E+02 0.  0.
        -12    1    1    2    0    0 -0.11292724688E+02 -0.12273404934E+02  0.40068204069E+02  0.43400726686E+02  0.00000000000E+00 0.  1.
         11    1    3    3    0    0  0.10199280036E+02  0.13542260583E+02 -0.17833291575E+02  0.24605780289E+02  0.51100000000E-03 0. -1.
        -11    1    3    3    0    0  0.50196141063E+00 -0.32051471476E+01 -0.60008336755E+01  0.68216521868E+01  0.51100000000E-03 0.  1.
         12    1    3    3    0    0  0.59148324167E+00  0.19362914987E+01 -0.16234078818E+02  0.16359840838E+02  0.00000000000E+00 0. -1.
</event>
<event>
 7    1  0.2642243E-009  0.4778728E+02  0.7816164E-02  0.1312668E+00
        -11   -1    0    0    0    0  0.00000000000E+00  0.00000000000E+00  0.45593999997E+02  0.45594000000E+02  0.51100000000E-03 0.  1.
         11   -1    0    0    0    0 -0.00000000000E+00 -0.00000000000E+00 -0.45593999997E+02  0.45594000000E+02  0.51100000000E-03 0. -1.
    9900012    2    1    2    0    0 -0.12284926555E+02 -0.35990115521E+02 -0.20914469410E+02  0.47787275739E+02  0.20000021405E+02 0.  0.
        -12    1    1    2    0    0  0.12284926555E+02  0.35990115521E+02  0.20914469410E+02  0.43400724261E+02  0.00000000000E+00 0.  1.
         11    1    3    3    0    0  0.15556398057E-01 -0.32886364101E+01  0.32912740155E+01  0.46527256899E+01  0.51100000000E-03 0. -1.
        -11    1    3    3    0    0 -0.42141659717E+01 -0.50598014834E+01 -0.23925254798E+01  0.70060662516E+01  0.51100000000E-03 0.  1.
         12    1    3    3    0    0 -0.80863169818E+01 -0.27641677627E+02 -0.21813217945E+02  0.36128483798E+02  0.00000000000E+00 0. -1.
</event>
<event>
 7    1  0.2642243E-009  0.4778727E+02  0.7816164E-02  0.1312668E+00
        -11   -1    0    0    0    0  0.00000000000E+00  0.00000000000E+00  0.45593999997E+02  0.45594000000E+02  0.51100000000E-03 0.  1.
         11   -1    0    0    0    0 -0.00000000000E+00 -0.00000000000E+00 -0.45593999997E+02  0.45594000000E+02  0.51100000000E-03 0. -1.
    9900012    2    1    2    0    0 -0.42649948733E+02 -0.68742137973E+01  0.41653803177E+01  0.47787270335E+02  0.19999996767E+02 0.  0.
        -12    1    1    2    0    0  0.42649948733E+02  0.68742137973E+01 -0.41653803177E+01  0.43400729665E+02  0.00000000000E+00 0.  1.
         11    1    3    3    0    0 -0.16079466596E+02  0.20965004316E+01  0.31408503981E+01  0.16516945891E+02  0.51100000000E-03 0. -1.
        -11    1    3    3    0    0 -0.10573237835E+02 -0.10408213876E+02 -0.18564799833E+01  0.14952283859E+02  0.51100000000E-03 0.  1.
        -12    1    3    3    0    0 -0.15997244302E+02  0.14374996475E+01  0.28810099030E+01  0.16318040586E+02  0.00000000000E+00 0.  1.
</event>
<event>
 7    1  0.2642243E-009  0.4778727E+02  0.7816164E-02  0.1312668E+00
        -11   -1    0    0    0    0  0.00000000000E+00  0.00000000000E+00  0.45593999997E+02  0.45594000000E+02  0.51100000000E-03 0. -1.
         11   -1    0    0    0    0 -0.00000000000E+00 -0.00000000000E+00 -0.45593999997E+02  0.45594000000E+02  0.51100000000E-03 0.  1.
    9900012    2    1    2    0    0 -0.25417225483E+02  0.21487135150E+01  0.35113682828E+02  0.47787273707E+02  0.20000012140E+02 0.  0.
        -12    1    1    2    0    0  0.25417225483E+02 -0.21487135150E+01 -0.35113682828E+02  0.43400726293E+02  0.00000000000E+00 0.  1.
         11    1    3    3    0    0 -0.15648434455E+02 -0.64610887285E+01  0.26968945486E+02  0.31842474611E+02  0.51100000000E-03 0. -1.
        -11    1    3    3    0    0 -0.77588159315E+01  0.47413348419E+01  0.40149430247E+01  0.99397811090E+01  0.51100000000E-03 0.  1.
         12    1    3    3    0    0 -0.20099750968E+01  0.38684674016E+01  0.41297943171E+01  0.60050179874E+01  0.00000000000E+00 0. -1.
</event>
<event>
 7    1  0.2642243E-009  0.4778727E+02  0.7816164E-02  0.1312668E+00
        -11   -1    0    0    0    0  0.00000000000E+00  0.00000000000E+00  0.45593999997E+02  0.45594000000E+02  0.51100000000E-03 0.  1.
         11   -1    0    0    0    0 -0.00000000000E+00 -0.00000000000E+00 -0.45593999997E+02  0.45594000000E+02  0.51100000000E-03 0. -1.
    9900012    2    1    2    0    0  0.22112648834E+02  0.20038550812E+02 -0.31513657347E+02  0.47787270093E+02  0.19999995663E+02 0.  0.
        -12    1    1    2    0    0 -0.22112648834E+02 -0.20038550812E+02  0.31513657347E+02  0.43400729907E+02  0.00000000000E+00 0.  1.
         11    1    3    3    0    0  0.70027169543E+01 -0.10041249947E+01 -0.56856161129E+00  0.70971525497E+01  0.51100000000E-03 0.  1.
        -11    1    3    3    0    0  0.44108068771E+01  0.99539205877E+01 -0.14785590312E+02  0.18361629381E+02  0.51100000000E-03 0. -1.
         12    1    3    3    0    0  0.10699125002E+02  0.11088755219E+02 -0.16159505423E+02  0.22328488163E+02  0.00000000000E+00 0. -1.
</event>
<event>
 7    1  0.2642243E-009  0.4778727E+02  0.7816164E-02  0.1312668E+00
        -11   -1    0    0    0    0  0.00000000000E+00  0.00000000000E+00  0.45593999997E+02  0.45594000000E+02  0.51100000000E-03 0.  1.
         11   -1    0    0    0    0 -0.00000000000E+00 -0.00000000000E+00 -0.45593999997E+02  0.45594000000E+02  0.51100000000E-03 0. -1.
    9900012    2    1    2    0    0  0.29502993652E+01 -0.29883280282E+02 -0.31335420056E+02  0.47787271241E+02  0.20000000895E+02 0.  0.
        -12    1    1    2    0    0 -0.29502993652E+01  0.29883280282E+02  0.31335420056E+02  0.43400728759E+02  0.00000000000E+00 0.  1.
         11    1    3    3    0    0  0.89863697424E+01 -0.16726069097E+02 -0.18959021065E+02  0.26832083567E+02  0.51100000000E-03 0. -1.
        -11    1    3    3    0    0  0.19214303338E+01 -0.35162248882E+01 -0.11897470635E+01  0.41798600848E+01  0.51100000000E-03 0.  1.
         12    1    3    3    0    0 -0.79575007110E+01 -0.96409862973E+01 -0.11186651928E+02  0.16775327588E+02  0.00000000000E+00 0. -1.
</event>
<event>
 7    1  0.2642243E-009  0.4778730E+02  0.7816164E-02  0.1312668E+00
        -11   -1    0    0    0    0  0.00000000000E+00  0.00000000000E+00  0.45593999997E+02  0.45594000000E+02  0.51100000000E-03 0.  1.
         11   -1    0    0    0    0 -0.00000000000E+00 -0.00000000000E+00 -0.45593999997E+02  0.45594000000E+02  0.51100000000E-03 0. -1.
    9900012    2    1    2    0    0 -0.19493917433E+02  0.38671238472E+02  0.28537069377E+01  0.47787295569E+02  0.20000111817E+02 0.  0.
        -12    1    1    2    0    0  0.19493917433E+02 -0.38671238472E+02 -0.28537069377E+01  0.43400704431E+02  0.00000000000E+00 0.  1.
         11    1    3    3    0    0 -0.15434436213E+02  0.30218606771E+02 -0.15277604165E+01  0.33966455048E+02  0.51100000000E-03 0. -1.
        -11    1    3    3    0    0 -0.14472408011E+01 -0.14341917027E+01 -0.99503859627E+00  0.22674906495E+01  0.51100000000E-03 0.  1.
         12    1    3    3    0    0 -0.26122404196E+01  0.98868234029E+01  0.53765059505E+01  0.11553349871E+02  0.00000000000E+00 0. -1.
</event>
<event>
 7    1  0.2642243E-009  0.4778727E+02  0.7816164E-02  0.1312668E+00
        -11   -1    0    0    0    0  0.00000000000E+00  0.00000000000E+00  0.45593999997E+02  0.45594000000E+02  0.51100000000E-03 0.  1.
         11   -1    0    0    0    0 -0.00000000000E+00 -0.00000000000E+00 -0.45593999997E+02  0.45594000000E+02  0.51100000000E-03 0. -1.
    9900012    2    1    2    0    0  0.38129636093E+02 -0.69390830136E+01 -0.19534673634E+02  0.47787268489E+02  0.19999988351E+02 0.  0.
        -12    1    1    2    0    0 -0.38129636093E+02  0.69390830136E+01  0.19534673634E+02  0.43400731511E+02  0.00000000000E+00 0.  1.
         11    1    3    3    0    0  0.50508165170E+01  0.53135526172E+00  0.35248476220E+01  0.61820414850E+01  0.51100000000E-03 0.  1.
        -11    1    3    3    0    0  0.13684518099E+02 -0.28115510607E+01 -0.13720233935E+02  0.19581002897E+02  0.51100000000E-03 0. -1.
        -12    1    3    3    0    0  0.19394301477E+02 -0.46588872146E+01 -0.93392873208E+01  0.22024224107E+02  0.00000000000E+00 0.  1.
</event>
<event>
 7    1  0.2642243E-009  0.4778727E+02  0.7816164E-02  0.1312668E+00
        -11   -1    0    0    0    0  0.00000000000E+00  0.00000000000E+00  0.45593999997E+02  0.45594000000E+02  0.51100000000E-03 0.  1.
         11   -1    0    0    0    0 -0.00000000000E+00 -0.00000000000E+00 -0.45593999997E+02  0.45594000000E+02  0.51100000000E-03 0. -1.
    9900012    2    1    2    0    0 -0.24099157399E+01  0.35006734673E+02 -0.25541028710E+02  0.47787270583E+02  0.19999997896E+02 0.  0.
        -12    1    1    2    0    0  0.24099157399E+01 -0.35006734673E+02  0.25541028710E+02  0.43400729417E+02  0.00000000000E+00 0.  1.
         11    1    3    3    0    0  0.11251257868E+01  0.82452771600E+00  0.15924036986E+01  0.21169562563E+01  0.51100000000E-03 0. -1.
        -11    1    3    3    0    0 -0.20308656219E+01  0.34532888830E+01  0.83458672318E+00  0.40922065617E+01  0.51100000000E-03 0.  1.
         12    1    3    3    0    0 -0.15041759049E+01  0.30728918074E+02 -0.27968019132E+02  0.41578107765E+02  0.00000000000E+00 0. -1.
</event>
<event>
 7    1  0.2642243E-009  0.4778727E+02  0.7816164E-02  0.1312668E+00
        -11   -1    0    0    0    0  0.00000000000E+00  0.00000000000E+00  0.45593999997E+02  0.45594000000E+02  0.51100000000E-03 0.  1.
         11   -1    0    0    0    0 -0.00000000000E+00 -0.00000000000E+00 -0.45593999997E+02  0.45594000000E+02  0.51100000000E-03 0. -1.
    9900012    2    1    2    0    0 -0.32203992846E+02 -0.13908802994E+02 -0.25555255001E+02  0.47787274037E+02  0.20000013645E+02 0.  0.
        -12    1    1    2    0    0  0.32203992846E+02  0.13908802994E+02  0.25555255001E+02  0.43400725963E+02  0.00000000000E+00 0.  1.
         11    1    3    3    0    0 -0.73912053370E+01 -0.29443073321E+01 -0.11048397492E+02  0.13614916431E+02  0.51100000000E-03 0. -1.
        -11    1    3    3    0    0 -0.21250855885E+02 -0.14650738299E+02 -0.12267547212E+02  0.28578588548E+02  0.51100000000E-03 0.  1.
        -12    1    3    3    0    0 -0.35619316231E+01  0.36862426373E+01 -0.22393102973E+01  0.55937690582E+01  0.00000000000E+00 0.  1.
</event>
<event>
 7    1  0.2642243E-009  0.4778727E+02  0.7816164E-02  0.1312668E+00
        -11   -1    0    0    0    0  0.00000000000E+00  0.00000000000E+00  0.45593999997E+02  0.45594000000E+02  0.51100000000E-03 0.  1.
         11   -1    0    0    0    0 -0.00000000000E+00 -0.00000000000E+00 -0.45593999997E+02  0.45594000000E+02  0.51100000000E-03 0. -1.
    9900012    2    1    2    0    0  0.22658212623E+02  0.21032236869E+00 -0.37016003407E+02  0.47787270248E+02  0.19999996370E+02 0.  0.
        -12    1    1    2    0    0 -0.22658212623E+02 -0.21032236869E+00  0.37016003407E+02  0.43400729752E+02  0.00000000000E+00 0.  1.
         11    1    3    3    0    0  0.11754320110E+02  0.58659751280E+01 -0.12483276749E+02  0.18121972964E+02  0.51100000000E-03 0. -1.
        -11    1    3    3    0    0  0.65998055866E+01 -0.29823093375E+01 -0.23370508584E+02  0.24466962919E+02  0.51100000000E-03 0.  1.
        -12    1    3    3    0    0  0.43040869259E+01 -0.26733434218E+01 -0.11622180740E+01  0.51983343648E+01  0.00000000000E+00 0.  1.
</event>
<event>
 7    1  0.2642243E-009  0.4778727E+02  0.7816164E-02  0.1312668E+00
        -11   -1    0    0    0    0  0.00000000000E+00  0.00000000000E+00  0.45593999997E+02  0.45594000000E+02  0.51100000000E-03 0. -1.
         11   -1    0    0    0    0 -0.00000000000E+00 -0.00000000000E+00 -0.45593999997E+02  0.45594000000E+02  0.51100000000E-03 0.  1.
    9900012    2    1    2    0    0  0.33753692702E+02 -0.15159499837E+01  0.27239919758E+02  0.47787273004E+02  0.20000008936E+02 0.  0.
        -12    1    1    2    0    0 -0.33753692702E+02  0.15159499837E+01 -0.27239919758E+02  0.43400726996E+02  0.00000000000E+00 0.  1.
         11    1    3    3    0    0  0.19409923775E+02 -0.13068255937E+01  0.91038803009E+01  0.21478677122E+02  0.51100000000E-03 0. -1.
        -11    1    3    3    0    0  0.28536492466E+01  0.55171747897E+01  0.55366530922E+01  0.83208809274E+01  0.51100000000E-03 0.  1.
        -12    1    3    3    0    0  0.11490119680E+02 -0.57262991797E+01  0.12599386364E+02  0.17987714955E+02  0.00000000000E+00 0.  1.
</event>
<event>
 7    1  0.2642243E-009  0.4778727E+02  0.7816164E-02  0.1312668E+00
        -11   -1    0    0    0    0  0.00000000000E+00  0.00000000000E+00  0.45593999997E+02  0.45594000000E+02  0.51100000000E-03 0. -1.
         11   -1    0    0    0    0 -0.00000000000E+00 -0.00000000000E+00 -0.45593999997E+02  0.45594000000E+02  0.51100000000E-03 0.  1.
    9900012    2    1    2    0    0 -0.40513871053E+02 -0.95924061878E+01 -0.12257061571E+02  0.47787267719E+02  0.19999984837E+02 0.  0.
        -12    1    1    2    0    0  0.40513871053E+02  0.95924061878E+01  0.12257061571E+02  0.43400732281E+02  0.00000000000E+00 0.  1.
         11    1    3    3    0    0 -0.22101616759E+02 -0.50298602554E+01 -0.54106832377E+01  0.23303571634E+02  0.51100000000E-03 0. -1.
        -11    1    3    3    0    0  0.24454328527E+00 -0.12997023886E+01 -0.53204577562E+01  0.54823625121E+01  0.51100000000E-03 0.  1.
        -12    1    3    3    0    0 -0.18656797579E+02 -0.32628435438E+01 -0.15259205768E+01  0.19001333572E+02  0.00000000000E+00 0.  1.
</event>
<event>
 7    1  0.2642243E-009  0.4778727E+02  0.7816164E-02  0.1312668E+00
        -11   -1    0    0    0    0  0.00000000000E+00  0.00000000000E+00  0.45593999997E+02  0.45594000000E+02  0.51100000000E-03 0.  1.
         11   -1    0    0    0    0 -0.00000000000E+00 -0.00000000000E+00 -0.45593999997E+02  0.45594000000E+02  0.51100000000E-03 0. -1.
    9900012    2    1    2    0    0  0.18743481268E+02 -0.10101891397E+01 -0.39131631532E+02  0.47787272374E+02  0.20000006060E+02 0.  0.
        -12    1    1    2    0    0 -0.18743481268E+02  0.10101891397E+01  0.39131631532E+02  0.43400727626E+02  0.00000000000E+00 0.  1.
         11    1    3    3    0    0  0.39221572038E+00 -0.34580595488E+01 -0.98460398563E+01  0.10443012502E+02  0.51100000000E-03 0. -1.
        -11    1    3    3    0    0 -0.12477979288E+01  0.31218544223E+01 -0.62065151518E+01  0.70585979696E+01  0.51100000000E-03 0.  1.
        -12    1    3    3    0    0  0.19599063477E+02 -0.67398401321E+00 -0.23079076524E+02  0.30285661901E+02  0.00000000000E+00 0.  1.
</event>
<event>
 7    1  0.2642243E-009  0.4778727E+02  0.7816164E-02  0.1312668E+00
        -11   -1    0    0    0    0  0.00000000000E+00  0.00000000000E+00  0.45593999997E+02  0.45594000000E+02  0.51100000000E-03 0.  1.
         11   -1    0    0    0    0 -0.00000000000E+00 -0.00000000000E+00 -0.45593999997E+02  0.45594000000E+02  0.51100000000E-03 0. -1.
    9900012    2    1    2    0    0  0.34802298355E+02 -0.19044350975E+02 -0.17599320331E+02  0.47787270156E+02  0.19999995951E+02 0.  0.
        -12    1    1    2    0    0 -0.34802298355E+02  0.19044350975E+02  0.17599320331E+02  0.43400729844E+02  0.00000000000E+00 0.  1.
         11    1    3    3    0    0  0.12812110157E+02 -0.13250792221E+02 -0.56782505886E+01  0.19286684297E+02  0.51100000000E-03 0. -1.
        -11    1    3    3    0    0  0.84939281257E+01  0.37832371540E+01 -0.35292050417E+01  0.99456013823E+01  0.51100000000E-03 0.  1.
         12    1    3    3    0    0  0.13496260072E+02 -0.95767959081E+01 -0.83918647004E+01  0.18554984477E+02  0.00000000000E+00 0. -1.
</event>
<event>
 7    1  0.2642243E-009  0.4778728E+02  0.7816164E-02  0.1312668E+00
        -11   -1    0    0    0    0  0.00000000000E+00  0.00000000000E+00  0.45593999997E+02  0.45594000000E+02  0.51100000000E-03 0. -1.
         11   -1    0    0    0    0 -0.00000000000E+00 -0.00000000000E+00 -0.45593999997E+02  0.45594000000E+02  0.51100000000E-03 0.  1.
    9900012    2    1    2    0    0  0.22270112180E+02  0.35550825435E+02  0.11126694203E+02  0.47787281003E+02  0.20000045403E+02 0.  0.
        -12    1    1    2    0    0 -0.22270112180E+02 -0.35550825435E+02 -0.11126694203E+02  0.43400718997E+02  0.00000000000E+00 0.  1.
         11    1    3    3    0    0  0.14884477559E+02  0.23376806312E+02  0.46500570241E+01  0.28100636579E+02  0.51100000000E-03 0. -1.
        -11    1    3    3    0    0 -0.28656802994E+01  0.27852701166E+01 -0.67663897500E+00  0.40531091478E+01  0.51100000000E-03 0.  1.
        -12    1    3    3    0    0  0.10251314920E+02  0.93887490069E+01  0.71532761534E+01  0.15633535276E+02  0.00000000000E+00 0.  1.
</event>
<event>
 7    1  0.2642243E-009  0.4778727E+02  0.7816164E-02  0.1312668E+00
        -11   -1    0    0    0    0  0.00000000000E+00  0.00000000000E+00  0.45593999997E+02  0.45594000000E+02  0.51100000000E-03 0. -1.
         11   -1    0    0    0    0 -0.00000000000E+00 -0.00000000000E+00 -0.45593999997E+02  0.45594000000E+02  0.51100000000E-03 0.  1.
    9900012    2    1    2    0    0 -0.12463652041E+02  0.13598495009E+02  0.39285643494E+02  0.47787268745E+02  0.19999989516E+02 0.  0.
        -12    1    1    2    0    0  0.12463652041E+02 -0.13598495009E+02 -0.39285643494E+02  0.43400731255E+02  0.00000000000E+00 0.  1.
         11    1    3    3    0    0 -0.73272018226E+01  0.23422706185E+01  0.37889924497E+01  0.85749975070E+01  0.51100000000E-03 0. -1.
        -11    1    3    3    0    0  0.67262838853E+00  0.40822189230E+01  0.22533040573E+01  0.47110847710E+01  0.51100000000E-03 0.  1.
         12    1    3    3    0    0 -0.58090786073E+01  0.71740054679E+01  0.33243346987E+02  0.34501186467E+02  0.00000000000E+00 0. -1.
</event>
<event>
 7    1  0.2642243E-009  0.4778727E+02  0.7816164E-02  0.1312668E+00
        -11   -1    0    0    0    0  0.00000000000E+00  0.00000000000E+00  0.45593999997E+02  0.45594000000E+02  0.51100000000E-03 0.  1.
         11   -1    0    0    0    0 -0.00000000000E+00 -0.00000000000E+00 -0.45593999997E+02  0.45594000000E+02  0.51100000000E-03 0. -1.
    9900012    2    1    2    0    0 -0.36615202078E+02 -0.17607816129E+02 -0.15261548509E+02  0.47787273336E+02  0.20000010449E+02 0.  0.
        -12    1    1    2    0    0  0.36615202078E+02  0.17607816129E+02  0.15261548509E+02  0.43400726664E+02  0.00000000000E+00 0.  1.
         11    1    3    3    0    0 -0.28296650271E+02 -0.16984905461E+02 -0.12823747099E+02  0.35406721396E+02  0.51100000000E-03 0. -1.
        -11    1    3    3    0    0  0.38405865771E+00 -0.23671338965E+01  0.13254671796E+01  0.27400159565E+01  0.51100000000E-03 0.  1.
         12    1    3    3    0    0 -0.87026104655E+01  0.17442232289E+01 -0.37632685890E+01  0.96405359840E+01  0.00000000000E+00 0. -1.
</event>
<event>
 7    1  0.2642243E-009  0.4778727E+02  0.7816164E-02  0.1312668E+00
        -11   -1    0    0    0    0  0.00000000000E+00  0.00000000000E+00  0.45593999997E+02  0.45594000000E+02  0.51100000000E-03 0. -1.
         11   -1    0    0    0    0 -0.00000000000E+00 -0.00000000000E+00 -0.45593999997E+02  0.45594000000E+02  0.51100000000E-03 0.  1.
    9900012    2    1    2    0    0  0.29727250418E+02  0.14196054038E+02  0.28255723598E+02  0.47787270931E+02  0.19999999485E+02 0.  0.
        -12    1    1    2    0    0 -0.29727250418E+02 -0.14196054038E+02 -0.28255723598E+02  0.43400729069E+02  0.00000000000E+00 0.  1.
         11    1    3    3    0    0  0.73477023236E+01  0.71210278299E+00  0.34147068928E+01  0.81336365320E+01  0.51100000000E-03 0. -1.
        -11    1    3    3    0    0 -0.96733570197E+00 -0.21450029906E+01  0.41168372538E+01  0.47418483132E+01  0.51100000000E-03 0.  1.
        -12    1    3    3    0    0  0.23346883796E+02  0.15628954246E+02  0.20724179451E+02  0.34911786086E+02  0.00000000000E+00 0.  1.
</event>
<event>
 7    1  0.2642243E-009  0.4778725E+02  0.7816164E-02  0.1312668E+00
        -11   -1    0    0    0    0  0.00000000000E+00  0.00000000000E+00  0.45593999997E+02  0.45594000000E+02  0.51100000000E-03 0.  1.
         11   -1    0    0    0    0 -0.00000000000E+00 -0.00000000000E+00 -0.45593999997E+02  0.45594000000E+02  0.51100000000E-03 0. -1.
    9900012    2    1    2    0    0 -0.33254015141E+02 -0.23381193828E+02 -0.15202487675E+02  0.47787246789E+02  0.19999889408E+02 0.  0.
        -12    1    1    2    0    0  0.33254015141E+02  0.23381193828E+02  0.15202487675E+02  0.43400753211E+02  0.00000000000E+00 0.  1.
         11    1    3    3    0    0 -0.15279497415E+02 -0.34663236478E+01 -0.56027737789E+01  0.16639396478E+02  0.51100000000E-03 0. -1.
        -11    1    3    3    0    0 -0.71377080045E+01 -0.16925132324E+02 -0.65270357161E+01  0.19493824028E+02  0.51100000000E-03 0.  1.
        -12    1    3    3    0    0 -0.10836809722E+02 -0.29897378563E+01 -0.30726781796E+01  0.11654026282E+02  0.00000000000E+00 0.  1.
</event>
<event>
 7    1  0.2642243E-009  0.4778727E+02  0.7816164E-02  0.1312668E+00
        -11   -1    0    0    0    0  0.00000000000E+00  0.00000000000E+00  0.45593999997E+02  0.45594000000E+02  0.51100000000E-03 0. -1.
         11   -1    0    0    0    0 -0.00000000000E+00 -0.00000000000E+00 -0.45593999997E+02  0.45594000000E+02  0.51100000000E-03 0.  1.
    9900012    2    1    2    0    0  0.37037107362E+02  0.73130749791E+01  0.21410164494E+02  0.47787268082E+02  0.19999986492E+02 0.  0.
        -12    1    1    2    0    0 -0.37037107362E+02 -0.73130749791E+01 -0.21410164494E+02  0.43400731918E+02  0.00000000000E+00 0.  1.
         11    1    3    3    0    0  0.22800904444E+01 -0.41689643134E+01  0.41668662134E+01  0.63199565016E+01  0.51100000000E-03 0.  1.
        -11    1    3    3    0    0  0.29123008205E+02  0.67776162967E+01  0.11097514536E+02  0.31894208231E+02  0.51100000000E-03 0. -1.
         12    1    3    3    0    0  0.56340087125E+01  0.47044229957E+01  0.61457837446E+01  0.95731033490E+01  0.00000000000E+00 0. -1.
</event>
<event>
 7    1  0.2642243E-009  0.4778728E+02  0.7816164E-02  0.1312668E+00
        -11   -1    0    0    0    0  0.00000000000E+00  0.00000000000E+00  0.45593999997E+02  0.45594000000E+02  0.51100000000E-03 0.  1.
         11   -1    0    0    0    0 -0.00000000000E+00 -0.00000000000E+00 -0.45593999997E+02  0.45594000000E+02  0.51100000000E-03 0. -1.
    9900012    2    1    2    0    0  0.10507967484E+02  0.25738759868E+02 -0.33327491352E+02  0.47787276274E+02  0.20000023842E+02 0.  0.
        -12    1    1    2    0    0 -0.10507967484E+02 -0.25738759868E+02  0.33327491352E+02  0.43400723726E+02  0.00000000000E+00 0.  1.
         11    1    3    3    0    0  0.42482789579E+01  0.20454785656E+02 -0.18897759700E+02  0.28170400286E+02  0.51100000000E-03 0. -1.
        -11    1    3    3    0    0  0.75459367086E+00  0.16691915793E+01 -0.12667664969E+02  0.12799427650E+02  0.51100000000E-03 0.  1.
        -12    1    3    3    0    0  0.55050948548E+01  0.36147826327E+01 -0.17620666825E+01  0.68174483376E+01  0.00000000000E+00 0.  1.
</event>
<event>
 7    1  0.2642243E-009  0.4778727E+02  0.7816164E-02  0.1312668E+00
        -11   -1    0    0    0    0  0.00000000000E+00  0.00000000000E+00  0.45593999997E+02  0.45594000000E+02  0.51100000000E-03 0.  1.
         11   -1    0    0    0    0 -0.00000000000E+00 -0.00000000000E+00 -0.45593999997E+02  0.45594000000E+02  0.51100000000E-03 0. -1.
    9900012    2    1    2    0    0  0.20759251461E+02 -0.22645125025E+02  0.30657389217E+02  0.47787265879E+02  0.19999976450E+02 0.  0.
        -12    1    1    2    0    0 -0.20759251461E+02  0.22645125025E+02 -0.30657389217E+02  0.43400734121E+02  0.00000000000E+00 0.  1.
         11    1    3    3    0    0 -0.56558295562E-01 -0.24003035176E+01  0.28105529850E+01  0.36964664425E+01  0.51100000000E-03 0. -1.
        -11    1    3    3    0    0  0.38863588928E+01 -0.35231914643E+01 -0.22634152850E+01  0.57131175860E+01  0.51100000000E-03 0.  1.
        -12    1    3    3    0    0  0.16929450863E+02 -0.16721630043E+02  0.30110251517E+02  0.38377681851E+02  0.00000000000E+00 0.  1.
</event>
<event>
 7    1  0.2642243E-009  0.4778727E+02  0.7816164E-02  0.1312668E+00
        -11   -1    0    0    0    0  0.00000000000E+00  0.00000000000E+00  0.45593999997E+02  0.45594000000E+02  0.51100000000E-03 0. -1.
         11   -1    0    0    0    0 -0.00000000000E+00 -0.00000000000E+00 -0.45593999997E+02  0.45594000000E+02  0.51100000000E-03 0.  1.
    9900012    2    1    2    0    0  0.41083842582E+02  0.33971976183E+01 -0.13572033797E+02  0.47787272191E+02  0.20000005229E+02 0.  0.
        -12    1    1    2    0    0 -0.41083842582E+02 -0.33971976183E+01  0.13572033797E+02  0.43400727809E+02  0.00000000000E+00 0.  1.
         11    1    3    3    0    0  0.93627856730E+01  0.42467346338E+01 -0.10148274741E+02  0.14445898764E+02  0.51100000000E-03 0.  1.
        -11    1    3    3    0    0  0.12872860084E+02  0.69579597304E+00  0.32359506910E+01  0.13291577631E+02  0.51100000000E-03 0. -1.
         12    1    3    3    0    0  0.18848196824E+02 -0.15453329885E+01 -0.66597097464E+01  0.20049795796E+02  0.00000000000E+00 0. -1.
</event>
<event>
 7    1  0.2642243E-009  0.4778727E+02  0.7816164E-02  0.1312668E+00
        -11   -1    0    0    0    0  0.00000000000E+00  0.00000000000E+00  0.45593999997E+02  0.45594000000E+02  0.51100000000E-03 0.  1.
         11   -1    0    0    0    0 -0.00000000000E+00 -0.00000000000E+00 -0.45593999997E+02  0.45594000000E+02  0.51100000000E-03 0. -1.
    9900012    2    1    2    0    0  0.13650232319E+02  0.29713125896E+02 -0.28538132568E+02  0.47787266097E+02  0.19999977441E+02 0.  0.
        -12    1    1    2    0    0 -0.13650232319E+02 -0.29713125896E+02  0.28538132568E+02  0.43400733903E+02  0.00000000000E+00 0.  1.
         11    1    3    3    0    0 -0.24509107683E+01  0.83224596020E+01 -0.78526584941E+01  0.11701903397E+02  0.51100000000E-03 0. -1.
        -11    1    3    3    0    0  0.72476792224E+01  0.10392553390E+01 -0.42220156365E+01  0.84518827528E+01  0.51100000000E-03 0.  1.
        -12    1    3    3    0    0  0.88534638645E+01  0.20351410955E+02 -0.16463458438E+02  0.27633479947E+02  0.00000000000E+00 0.  1.
</event>
<event>
 7    1  0.2642243E-009  0.4778726E+02  0.7816164E-02  0.1312668E+00
        -11   -1    0    0    0    0  0.00000000000E+00  0.00000000000E+00  0.45593999997E+02  0.45594000000E+02  0.51100000000E-03 0.  1.
         11   -1    0    0    0    0 -0.00000000000E+00 -0.00000000000E+00 -0.45593999997E+02  0.45594000000E+02  0.51100000000E-03 0. -1.
    9900012    2    1    2    0    0 -0.70167971120E+01 -0.10112145925E+02 -0.41618907797E+02  0.47787257804E+02  0.19999939632E+02 0.  0.
        -12    1    1    2    0    0  0.70167971120E+01  0.10112145925E+02  0.41618907797E+02  0.43400742196E+02  0.00000000000E+00 0.  1.
         11    1    3    3    0    0  0.26573042291E+01 -0.11505233319E+02 -0.16003864084E+02  0.19888572733E+02  0.51100000000E-03 0. -1.
        -11    1    3    3    0    0 -0.70044094770E+01 -0.13962513442E+01 -0.15307872237E+02  0.16892075734E+02  0.51100000000E-03 0.  1.
         12    1    3    3    0    0 -0.26696918641E+01  0.27893387378E+01 -0.10307171477E+02  0.11006609337E+02  0.00000000000E+00 0. -1.
</event>
<event>
 7    1  0.2642243E-009  0.4778727E+02  0.7816164E-02  0.1312668E+00
        -11   -1    0    0    0    0  0.00000000000E+00  0.00000000000E+00  0.45593999997E+02  0.45594000000E+02  0.51100000000E-03 0.  1.
         11   -1    0    0    0    0 -0.00000000000E+00 -0.00000000000E+00 -0.45593999997E+02  0.45594000000E+02  0.51100000000E-03 0. -1.
    9900012    2    1    2    0    0  0.22529619647E+02  0.27356835919E+02 -0.25052808019E+02  0.47787269331E+02  0.19999992188E+02 0.  0.
        -12    1    1    2    0    0 -0.22529619647E+02 -0.27356835919E+02  0.25052808019E+02  0.43400730669E+02  0.00000000000E+00 0.  1.
         11    1    3    3    0    0  0.13477129987E+02  0.17767014812E+02 -0.20443478791E+02  0.30252862234E+02  0.51100000000E-03 0. -1.
        -11    1    3    3    0    0 -0.71497363083E+00  0.55291371918E+01  0.83546040305E+00  0.56374231458E+01  0.51100000000E-03 0.  1.
         12    1    3    3    0    0  0.97674632910E+01  0.40606839156E+01 -0.54447896311E+01  0.11896983951E+02  0.00000000000E+00 0. -1.
</event>
<event>
 7    1  0.2642243E-009  0.4778727E+02  0.7816164E-02  0.1312668E+00
        -11   -1    0    0    0    0  0.00000000000E+00  0.00000000000E+00  0.45593999997E+02  0.45594000000E+02  0.51100000000E-03 0.  1.
         11   -1    0    0    0    0 -0.00000000000E+00 -0.00000000000E+00 -0.45593999997E+02  0.45594000000E+02  0.51100000000E-03 0. -1.
    9900012    2    1    2    0    0  0.26903480662E+02 -0.21396208110E+02 -0.26495819904E+02  0.47787268836E+02  0.19999989930E+02 0.  0.
        -12    1    1    2    0    0 -0.26903480662E+02  0.21396208110E+02  0.26495819904E+02  0.43400731164E+02  0.00000000000E+00 0.  1.
         11    1    3    3    0    0  0.20731282068E+02 -0.23091780772E+02 -0.20800832687E+02  0.37358948541E+02  0.51100000000E-03 0. -1.
        -11    1    3    3    0    0  0.50209262769E+01  0.11589400218E+01 -0.69438851088E+01  0.86469869502E+01  0.51100000000E-03 0.  1.
         12    1    3    3    0    0  0.11512723175E+01  0.53663264051E+00  0.12488978917E+01  0.17813333444E+01  0.00000000000E+00 0. -1.
</event>
<event>
 7    1  0.2642243E-009  0.4778727E+02  0.7816164E-02  0.1312668E+00
        -11   -1    0    0    0    0  0.00000000000E+00  0.00000000000E+00  0.45593999997E+02  0.45594000000E+02  0.51100000000E-03 0. -1.
         11   -1    0    0    0    0 -0.00000000000E+00 -0.00000000000E+00 -0.45593999997E+02  0.45594000000E+02  0.51100000000E-03 0.  1.
    9900012    2    1    2    0    0  0.93099220390E-02 -0.42651151546E+02  0.80313311955E+01  0.47787273098E+02  0.20000009364E+02 0.  0.
        -12    1    1    2    0    0 -0.93099220390E-02  0.42651151546E+02 -0.80313311955E+01  0.43400726902E+02  0.00000000000E+00 0.  1.
         11    1    3    3    0    0  0.43523813038E+01 -0.17850723021E+02  0.60679875702E+01  0.19349728907E+02  0.51100000000E-03 0. -1.
        -11    1    3    3    0    0 -0.71903863998E+01 -0.23471615560E+02  0.37343283912E+01  0.24830698789E+02  0.51100000000E-03 0.  1.
        -12    1    3    3    0    0  0.28473150180E+01 -0.13288129647E+01 -0.17709847659E+01  0.36068454012E+01  0.00000000000E+00 0.  1.
</event>
<event>
 7    1  0.2642243E-009  0.4778727E+02  0.7816164E-02  0.1312668E+00
        -11   -1    0    0    0    0  0.00000000000E+00  0.00000000000E+00  0.45593999997E+02  0.45594000000E+02  0.51100000000E-03 0.  1.
         11   -1    0    0    0    0 -0.00000000000E+00 -0.00000000000E+00 -0.45593999997E+02  0.45594000000E+02  0.51100000000E-03 0. -1.
    9900012    2    1    2    0    0  0.24485968402E+02  0.11745171173E+02 -0.33854265204E+02  0.47787274580E+02  0.20000016122E+02 0.  0.
        -12    1    1    2    0    0 -0.24485968402E+02 -0.11745171173E+02  0.33854265204E+02  0.43400725420E+02  0.00000000000E+00 0.  1.
         11    1    3    3    0    0  0.20717506277E+02  0.94152283108E+01 -0.33659870862E+02  0.40630634959E+02  0.51100000000E-03 0. -1.
        -11    1    3    3    0    0  0.51341684089E+01  0.12734513081E+01  0.46098684524E+00  0.53097902612E+01  0.51100000000E-03 0.  1.
         12    1    3    3    0    0 -0.13657062842E+01  0.10564915543E+01 -0.65538118729E+00  0.18468493603E+01  0.00000000000E+00 0. -1.
</event>
<event>
 7    1  0.2642243E-009  0.4778726E+02  0.7816164E-02  0.1312668E+00
        -11   -1    0    0    0    0  0.00000000000E+00  0.00000000000E+00  0.45593999997E+02  0.45594000000E+02  0.51100000000E-03 0.  1.
         11   -1    0    0    0    0 -0.00000000000E+00 -0.00000000000E+00 -0.45593999997E+02  0.45594000000E+02  0.51100000000E-03 0. -1.
    9900012    2    1    2    0    0 -0.13448828811E+02  0.31917908397E+02 -0.26153394978E+02  0.47787263350E+02  0.19999964918E+02 0.  0.
        -12    1    1    2    0    0  0.13448828811E+02 -0.31917908397E+02  0.26153394978E+02  0.43400736650E+02  0.00000000000E+00 0.  1.
         11    1    3    3    0    0 -0.45233742165E+01  0.49384976902E+01 -0.39249316251E+01  0.77623941063E+01  0.51100000000E-03 0. -1.
        -11    1    3    3    0    0 -0.12823024212E+02  0.13121024934E+02 -0.15984671253E+02  0.24333124760E+02  0.51100000000E-03 0.  1.
        -12    1    3    3    0    0  0.38975696168E+01  0.13858385773E+02 -0.62437921006E+01  0.15691744484E+02  0.00000000000E+00 0.  1.
</event>
<event>
 7    1  0.2642243E-009  0.4778727E+02  0.7816164E-02  0.1312668E+00
        -11   -1    0    0    0    0  0.00000000000E+00  0.00000000000E+00  0.45593999997E+02  0.45594000000E+02  0.51100000000E-03 0.  1.
         11   -1    0    0    0    0 -0.00000000000E+00 -0.00000000000E+00 -0.45593999997E+02  0.45594000000E+02  0.51100000000E-03 0. -1.
    9900012    2    1    2    0    0  0.99056052217E+01 -0.36389214925E+02 -0.21478524115E+02  0.47787274478E+02  0.20000015656E+02 0.  0.
        -12    1    1    2    0    0 -0.99056052217E+01  0.36389214925E+02  0.21478524115E+02  0.43400725522E+02  0.00000000000E+00 0.  1.
         11    1    3    3    0    0  0.71832482344E+01 -0.87251443451E+01 -0.13711237240E+02  0.17768658530E+02  0.51100000000E-03 0. -1.
        -11    1    3    3    0    0  0.27127009071E+01 -0.27095501427E+01 -0.23037758734E+01  0.44730070113E+01  0.51100000000E-03 0.  1.
         12    1    3    3    0    0  0.96560801832E-02 -0.24954520437E+02 -0.54635110016E+01  0.25545608937E+02  0.00000000000E+00 0. -1.
</event>
<event>
 7    1  0.2642243E-009  0.4778727E+02  0.7816164E-02  0.1312668E+00
        -11   -1    0    0    0    0  0.00000000000E+00  0.00000000000E+00  0.45593999997E+02  0.45594000000E+02  0.51100000000E-03 0. -1.
         11   -1    0    0    0    0 -0.00000000000E+00 -0.00000000000E+00 -0.45593999997E+02  0.45594000000E+02  0.51100000000E-03 0.  1.
    9900012    2    1    2    0    0  0.30408718077E+02 -0.21628607880E+01  0.30891024132E+02  0.47787268741E+02  0.19999989497E+02 0.  0.
        -12    1    1    2    0    0 -0.30408718077E+02  0.21628607880E+01 -0.30891024132E+02  0.43400731259E+02  0.00000000000E+00 0.  1.
         11    1    3    3    0    0  0.12865210718E+02  0.60555986288E+01  0.55359934686E+01  0.15258805507E+02  0.51100000000E-03 0. -1.
        -11    1    3    3    0    0  0.24604262676E+01 -0.39531522138E+01  0.67584375610E+01  0.82071668906E+01  0.51100000000E-03 0.  1.
         12    1    3    3    0    0  0.15083081092E+02 -0.42653072031E+01  0.18596593103E+02  0.24321296343E+02  0.00000000000E+00 0. -1.
</event>
<event>
 7    1  0.2642243E-009  0.4778727E+02  0.7816164E-02  0.1312668E+00
        -11   -1    0    0    0    0  0.00000000000E+00  0.00000000000E+00  0.45593999997E+02  0.45594000000E+02  0.51100000000E-03 0.  1.
         11   -1    0    0    0    0 -0.00000000000E+00 -0.00000000000E+00 -0.45593999997E+02  0.45594000000E+02  0.51100000000E-03 0. -1.
    9900012    2    1    2    0    0  0.36055212012E+02 -0.22691118519E+02 -0.82920624927E+01  0.47787268748E+02  0.19999989528E+02 0.  0.
        -12    1    1    2    0    0 -0.36055212012E+02  0.22691118519E+02  0.82920624927E+01  0.43400731252E+02  0.00000000000E+00 0.  1.
         11    1    3    3    0    0  0.20275938465E+02 -0.14284580167E+02 -0.94000696918E+01  0.26524031022E+02  0.51100000000E-03 0. -1.
        -11    1    3    3    0    0  0.20003955130E+01 -0.50863820700E+01  0.40315223108E+01  0.67916152110E+01  0.51100000000E-03 0.  1.
        -12    1    3    3    0    0  0.13778878034E+02 -0.33201562826E+01 -0.29235151117E+01  0.14471622515E+02  0.00000000000E+00 0.  1.
</event>
<event>
 7    1  0.2642243E-009  0.4778728E+02  0.7816164E-02  0.1312668E+00
        -11   -1    0    0    0    0  0.00000000000E+00  0.00000000000E+00  0.45593999997E+02  0.45594000000E+02  0.51100000000E-03 0.  1.
         11   -1    0    0    0    0 -0.00000000000E+00 -0.00000000000E+00 -0.45593999997E+02  0.45594000000E+02  0.51100000000E-03 0. -1.
    9900012    2    1    2    0    0 -0.22477071073E+02  0.28592158085E+02 -0.23683172210E+02  0.47787275652E+02  0.20000021009E+02 0.  0.
        -12    1    1    2    0    0  0.22477071073E+02 -0.28592158085E+02  0.23683172210E+02  0.43400724348E+02  0.00000000000E+00 0.  1.
         11    1    3    3    0    0  0.15338933234E+00  0.14027830858E+01 -0.71250695084E+01  0.72634664199E+01  0.51100000000E-03 0. -1.
        -11    1    3    3    0    0 -0.10623431170E+02  0.19980077938E+02 -0.74762357963E+01  0.23831804510E+02  0.51100000000E-03 0.  1.
         12    1    3    3    0    0 -0.12007029236E+02  0.72092970611E+01 -0.90818669052E+01  0.16692004723E+02  0.00000000000E+00 0. -1.
</event>
<event>
 7    1  0.2642243E-009  0.4778727E+02  0.7816164E-02  0.1312668E+00
        -11   -1    0    0    0    0  0.00000000000E+00  0.00000000000E+00  0.45593999997E+02  0.45594000000E+02  0.51100000000E-03 0. -1.
         11   -1    0    0    0    0 -0.00000000000E+00 -0.00000000000E+00 -0.45593999997E+02  0.45594000000E+02  0.51100000000E-03 0.  1.
    9900012    2    1    2    0    0 -0.27503337671E+02 -0.31309021596E+02 -0.12121666480E+02  0.47787271727E+02  0.20000003113E+02 0.  0.
        -12    1    1    2    0    0  0.27503337671E+02  0.31309021596E+02  0.12121666480E+02  0.43400728273E+02  0.00000000000E+00 0.  1.
         11    1    3    3    0    0 -0.40520066883E+00 -0.11479676004E+02 -0.10603871801E+01  0.11535665129E+02  0.51100000000E-03 0.  1.
        -11    1    3    3    0    0 -0.17589562190E+02 -0.11344644694E+02 -0.29301773287E+01  0.21134795970E+02  0.51100000000E-03 0. -1.
         12    1    3    3    0    0 -0.95085748122E+01 -0.84847008979E+01 -0.81311019714E+01  0.15116810628E+02  0.00000000000E+00 0. -1.
</event>
<event>
 7    1  0.2642243E-009  0.4778727E+02  0.7816164E-02  0.1312668E+00
        -11   -1    0    0    0    0  0.00000000000E+00  0.00000000000E+00  0.45593999997E+02  0.45594000000E+02  0.51100000000E-03 0.  1.
         11   -1    0    0    0    0 -0.00000000000E+00 -0.00000000000E+00 -0.45593999997E+02  0.45594000000E+02  0.51100000000E-03 0. -1.
    9900012    2    1    2    0    0  0.37964119382E+02  0.60584187678E+01 -0.20140623326E+02  0.47787268366E+02  0.19999987787E+02 0.  0.
        -12    1    1    2    0    0 -0.37964119382E+02 -0.60584187678E+01  0.20140623326E+02  0.43400731634E+02  0.00000000000E+00 0.  1.
         11    1    3    3    0    0  0.29748009281E+02  0.10777104309E+02 -0.16961999549E+02  0.35899853237E+02  0.51100000000E-03 0. -1.
        -11    1    3    3    0    0  0.89992210633E+01 -0.47032664753E+01 -0.18153402060E+01  0.10315142055E+02  0.51100000000E-03 0.  1.
         12    1    3    3    0    0 -0.78311096186E+00 -0.15419066036E-01 -0.13632835707E+01  0.15722730743E+01  0.00000000000E+00 0. -1.
</event>
<event>
 7    1  0.2642243E-009  0.4778727E+02  0.7816164E-02  0.1312668E+00
        -11   -1    0    0    0    0  0.00000000000E+00  0.00000000000E+00  0.45593999997E+02  0.45594000000E+02  0.51100000000E-03 0. -1.
         11   -1    0    0    0    0 -0.00000000000E+00 -0.00000000000E+00 -0.45593999997E+02  0.45594000000E+02  0.51100000000E-03 0.  1.
    9900012    2    1    2    0    0 -0.24221176418E+02  0.32936708652E+02  0.14564712548E+02  0.47787274021E+02  0.20000013572E+02 0.  0.
        -12    1    1    2    0    0  0.24221176418E+02 -0.32936708652E+02 -0.14564712548E+02  0.43400725979E+02  0.00000000000E+00 0.  1.
         11    1    3    3    0    0 -0.17765755071E+02  0.12241439987E+02  0.71937120145E+01  0.22742567995E+02  0.51100000000E-03 0. -1.
        -11    1    3    3    0    0  0.67460845254E+00 -0.66216416015E+00  0.15045568123E+01  0.17768650489E+01  0.51100000000E-03 0.  1.
         12    1    3    3    0    0 -0.71300297990E+01  0.21357432825E+02  0.58664437215E+01  0.23267840977E+02  0.00000000000E+00 0. -1.
</event>
<event>
 7    1  0.2642243E-009  0.4778727E+02  0.7816164E-02  0.1312668E+00
        -11   -1    0    0    0    0  0.00000000000E+00  0.00000000000E+00  0.45593999997E+02  0.45594000000E+02  0.51100000000E-03 0.  1.
         11   -1    0    0    0    0 -0.00000000000E+00 -0.00000000000E+00 -0.45593999997E+02  0.45594000000E+02  0.51100000000E-03 0. -1.
    9900012    2    1    2    0    0  0.42576951312E+02  0.78186306689E+01 -0.31137698578E+01  0.47787270383E+02  0.19999996983E+02 0.  0.
        -12    1    1    2    0    0 -0.42576951312E+02 -0.78186306689E+01  0.31137698578E+01  0.43400729617E+02  0.00000000000E+00 0.  1.
         11    1    3    3    0    0  0.10306028828E+01 -0.19032454697E+01 -0.20663329432E+00  0.21742086375E+01  0.51100000000E-03 0. -1.
        -11    1    3    3    0    0  0.99291342122E+01  0.95865714182E+01 -0.22832785668E+01  0.13989403813E+02  0.51100000000E-03 0.  1.
        -12    1    3    3    0    0  0.31617214217E+02  0.13530472045E+00 -0.62385799662E+00  0.31623657933E+02  0.00000000000E+00 0.  1.
</event>
<event>
 7    1  0.2642243E-009  0.4778727E+02  0.7816164E-02  0.1312668E+00
        -11   -1    0    0    0    0  0.00000000000E+00  0.00000000000E+00  0.45593999997E+02  0.45594000000E+02  0.51100000000E-03 0. -1.
         11   -1    0    0    0    0 -0.00000000000E+00 -0.00000000000E+00 -0.45593999997E+02  0.45594000000E+02  0.51100000000E-03 0.  1.
    9900012    2    1    2    0    0  0.33162563896E+02 -0.27428385356E+02 -0.56170640628E+01  0.47787269867E+02  0.19999994633E+02 0.  0.
        -12    1    1    2    0    0 -0.33162563896E+02  0.27428385356E+02  0.56170640628E+01  0.43400730133E+02  0.00000000000E+00 0.  1.
         11    1    3    3    0    0  0.57157071515E+01 -0.22414209143E+01 -0.12870262933E+01  0.62729349508E+01  0.51100000000E-03 0. -1.
        -11    1    3    3    0    0  0.29753140114E+02 -0.22685014862E+02 -0.21568056977E+01  0.37476806921E+02  0.51100000000E-03 0.  1.
        -12    1    3    3    0    0 -0.23062833693E+01 -0.25019495793E+01 -0.21732320718E+01  0.40375279956E+01  0.00000000000E+00 0.  1.
</event>
<event>
 7    1  0.2642243E-009  0.4778727E+02  0.7816164E-02  0.1312668E+00
        -11   -1    0    0    0    0  0.00000000000E+00  0.00000000000E+00  0.45593999997E+02  0.45594000000E+02  0.51100000000E-03 0. -1.
         11   -1    0    0    0    0 -0.00000000000E+00 -0.00000000000E+00 -0.45593999997E+02  0.45594000000E+02  0.51100000000E-03 0.  1.
    9900012    2    1    2    0    0  0.25611947178E+00  0.10826867347E+02  0.42027805896E+02  0.47787272792E+02  0.20000007968E+02 0.  0.
        -12    1    1    2    0    0 -0.25611947178E+00 -0.10826867347E+02 -0.42027805896E+02  0.43400727208E+02  0.00000000000E+00 0.  1.
         11    1    3    3    0    0 -0.23609059275E+00  0.10073325650E+02  0.68059480703E+01  0.12159299232E+02  0.51100000000E-03 0. -1.
        -11    1    3    3    0    0 -0.83859578345E+00 -0.17054301985E+01  0.23522683609E+02  0.23599330065E+02  0.51100000000E-03 0.  1.
         12    1    3    3    0    0  0.13308058480E+01  0.24589718957E+01  0.11699174216E+02  0.12028643495E+02  0.00000000000E+00 0. -1.
</event>
<event>
 7    1  0.2642243E-009  0.4778727E+02  0.7816164E-02  0.1312668E+00
        -11   -1    0    0    0    0  0.00000000000E+00  0.00000000000E+00  0.45593999997E+02  0.45594000000E+02  0.51100000000E-03 0.  1.
         11   -1    0    0    0    0 -0.00000000000E+00 -0.00000000000E+00 -0.45593999997E+02  0.45594000000E+02  0.51100000000E-03 0. -1.
    9900012    2    1    2    0    0  0.18609971154E+02 -0.26703449342E+02 -0.28709201274E+02  0.47787268775E+02  0.19999989652E+02 0.  0.
        -12    1    1    2    0    0 -0.18609971154E+02  0.26703449342E+02  0.28709201274E+02  0.43400731225E+02  0.00000000000E+00 0.  1.
         11    1    3    3    0    0  0.11466980897E+02 -0.14684890309E+02 -0.78604125914E+01  0.20221862937E+02  0.51100000000E-03 0. -1.
        -11    1    3    3    0    0 -0.68585712548E+00 -0.13535024663E+01 -0.10917883711E+02  0.11022819690E+02  0.51100000000E-03 0.  1.
        -12    1    3    3    0    0  0.78288473830E+01 -0.10665056566E+02 -0.99309049711E+01  0.16542586148E+02  0.00000000000E+00 0.  1.
</event>
<event>
 7    1  0.2642243E-009  0.4778728E+02  0.7816164E-02  0.1312668E+00
        -11   -1    0    0    0    0  0.00000000000E+00  0.00000000000E+00  0.45593999997E+02  0.45594000000E+02  0.51100000000E-03 0. -1.
         11   -1    0    0    0    0 -0.00000000000E+00 -0.00000000000E+00 -0.45593999997E+02  0.45594000000E+02  0.51100000000E-03 0.  1.
    9900012    2    1    2    0    0 -0.18338038648E+02 -0.39200271430E+02 -0.32676237007E+01  0.47787282191E+02  0.20000050824E+02 0.  0.
        -12    1    1    2    0    0  0.18338038648E+02  0.39200271430E+02  0.32676237007E+01  0.43400717809E+02  0.00000000000E+00 0.  1.
         11    1    3    3    0    0  0.20309484216E+01 -0.73939369240E+01  0.37691212897E+01  0.85440815940E+01  0.51100000000E-03 0. -1.
        -11    1    3    3    0    0 -0.11581949907E+02 -0.12800001250E+02 -0.36239486794E+00  0.17265947004E+02  0.51100000000E-03 0.  1.
         12    1    3    3    0    0 -0.87870371622E+01 -0.19006333256E+02 -0.66743501225E+01  0.21977253593E+02  0.00000000000E+00 0. -1.
</event>
<event>
 7    1  0.2642243E-009  0.4778728E+02  0.7816164E-02  0.1312668E+00
        -11   -1    0    0    0    0  0.00000000000E+00  0.00000000000E+00  0.45593999997E+02  0.45594000000E+02  0.51100000000E-03 0.  1.
         11   -1    0    0    0    0 -0.00000000000E+00 -0.00000000000E+00 -0.45593999997E+02  0.45594000000E+02  0.51100000000E-03 0. -1.
    9900012    2    1    2    0    0 -0.27965730684E+02  0.31122971883E+02 -0.11528274895E+02  0.47787278882E+02  0.20000035737E+02 0.  0.
        -12    1    1    2    0    0  0.27965730684E+02 -0.31122971883E+02  0.11528274895E+02  0.43400721118E+02  0.00000000000E+00 0.  1.
         11    1    3    3    0    0 -0.91636239708E+01  0.73021801082E+01 -0.71111218042E+01  0.13706272002E+02  0.51100000000E-03 0. -1.
        -11    1    3    3    0    0 -0.19773941706E+02  0.25244980833E+02 -0.42726786711E+01  0.32350789962E+02  0.51100000000E-03 0.  1.
        -12    1    3    3    0    0  0.97183499312E+00 -0.14241890588E+01 -0.14447441929E+00  0.17302169190E+01  0.00000000000E+00 0.  1.
</event>
<event>
 7    1  0.2642243E-009  0.4778727E+02  0.7816164E-02  0.1312668E+00
        -11   -1    0    0    0    0  0.00000000000E+00  0.00000000000E+00  0.45593999997E+02  0.45594000000E+02  0.51100000000E-03 0. -1.
         11   -1    0    0    0    0 -0.00000000000E+00 -0.00000000000E+00 -0.45593999997E+02  0.45594000000E+02  0.51100000000E-03 0.  1.
    9900012    2    1    2    0    0 -0.18372918274E+02  0.50522923851E+01  0.38994018864E+02  0.47787270842E+02  0.19999999079E+02 0.  0.
        -12    1    1    2    0    0  0.18372918274E+02 -0.50522923851E+01 -0.38994018864E+02  0.43400729158E+02  0.00000000000E+00 0.  1.
         11    1    3    3    0    0 -0.15839100571E+02  0.57136495666E+01  0.31675699360E+02  0.35873009749E+02  0.51100000000E-03 0. -1.
        -11    1    3    3    0    0  0.26908069889E+01 -0.26429117062E+01  0.24019776497E+01  0.44715681175E+01  0.51100000000E-03 0.  1.
        -12    1    3    3    0    0 -0.52246246915E+01  0.19815545247E+01  0.49163418543E+01  0.74426929757E+01  0.00000000000E+00 0.  1.
</event>
<event>
 7    1  0.2642243E-009  0.4778726E+02  0.7816164E-02  0.1312668E+00
        -11   -1    0    0    0    0  0.00000000000E+00  0.00000000000E+00  0.45593999997E+02  0.45594000000E+02  0.51100000000E-03 0.  1.
         11   -1    0    0    0    0 -0.00000000000E+00 -0.00000000000E+00 -0.45593999997E+02  0.45594000000E+02  0.51100000000E-03 0. -1.
    9900012    2    1    2    0    0  0.31532650956E+02  0.29802941996E+02 -0.10492788004E+01  0.47787257910E+02  0.19999940117E+02 0.  0.
        -12    1    1    2    0    0 -0.31532650956E+02 -0.29802941996E+02  0.10492788004E+01  0.43400742090E+02  0.00000000000E+00 0.  1.
         11    1    3    3    0    0  0.27292958205E+02  0.22448078083E+02 -0.51209173548E+01  0.35707780273E+02  0.51100000000E-03 0. -1.
        -11    1    3    3    0    0  0.14453901447E+01  0.79276788376E+01  0.44445636419E+01  0.92027925463E+01  0.51100000000E-03 0.  1.
        -12    1    3    3    0    0  0.27943026062E+01 -0.57281492478E+00 -0.37292508743E+00  0.28766850912E+01  0.00000000000E+00 0.  1.
</event>
<event>
 7    1  0.2642243E-009  0.4778727E+02  0.7816164E-02  0.1312668E+00
        -11   -1    0    0    0    0  0.00000000000E+00  0.00000000000E+00  0.45593999997E+02  0.45594000000E+02  0.51100000000E-03 0. -1.
         11   -1    0    0    0    0 -0.00000000000E+00 -0.00000000000E+00 -0.45593999997E+02  0.45594000000E+02  0.51100000000E-03 0.  1.
    9900012    2    1    2    0    0  0.22408898441E+02 -0.28794304056E+02  0.23502176093E+02  0.47787274701E+02  0.20000016672E+02 0.  0.
        -12    1    1    2    0    0 -0.22408898441E+02  0.28794304056E+02 -0.23502176093E+02  0.43400725299E+02  0.00000000000E+00 0.  1.
         11    1    3    3    0    0  0.13964272661E+02 -0.64262523207E+01  0.68601010074E+01  0.16833259219E+02  0.51100000000E-03 0. -1.
        -11    1    3    3    0    0  0.64859420395E+01 -0.19756113627E+02  0.17918171163E+02  0.27448721790E+02  0.51100000000E-03 0.  1.
         12    1    3    3    0    0  0.19586837400E+01 -0.26119381075E+01 -0.12760960774E+01  0.35052936923E+01  0.00000000000E+00 0. -1.
</event>
<event>
 7    1  0.2642243E-009  0.4778728E+02  0.7816164E-02  0.1312668E+00
        -11   -1    0    0    0    0  0.00000000000E+00  0.00000000000E+00  0.45593999997E+02  0.45594000000E+02  0.51100000000E-03 0.  1.
         11   -1    0    0    0    0 -0.00000000000E+00 -0.00000000000E+00 -0.45593999997E+02  0.45594000000E+02  0.51100000000E-03 0. -1.
    9900012    2    1    2    0    0  0.26293906752E+02  0.27858929097E+01 -0.34416445036E+02  0.47787280875E+02  0.20000044823E+02 0.  0.
        -12    1    1    2    0    0 -0.26293906752E+02 -0.27858929097E+01  0.34416445036E+02  0.43400719125E+02  0.00000000000E+00 0.  1.
         11    1    3    3    0    0  0.82495020753E+01  0.31854999273E+01 -0.20020732529E+01  0.90669725845E+01  0.51100000000E-03 0.  1.
        -11    1    3    3    0    0  0.13270548842E+02 -0.25447941128E+01 -0.30107661852E+02  0.33000829476E+02  0.51100000000E-03 0. -1.
         12    1    3    3    0    0  0.47738558352E+01  0.21451870953E+01 -0.23067099314E+01  0.57194788151E+01  0.00000000000E+00 0. -1.
</event>
<event>
 7    1  0.2642243E-009  0.4778728E+02  0.7816164E-02  0.1312668E+00
        -11   -1    0    0    0    0  0.00000000000E+00  0.00000000000E+00  0.45593999997E+02  0.45594000000E+02  0.51100000000E-03 0.  1.
         11   -1    0    0    0    0 -0.00000000000E+00 -0.00000000000E+00 -0.45593999997E+02  0.45594000000E+02  0.51100000000E-03 0. -1.
    9900012    2    1    2    0    0 -0.10151323617E+02 -0.55515194944E+01 -0.41830058102E+02  0.47787279952E+02  0.20000040614E+02 0.  0.
        -12    1    1    2    0    0  0.10151323617E+02  0.55515194944E+01  0.41830058102E+02  0.43400720048E+02  0.00000000000E+00 0.  1.
         11    1    3    3    0    0 -0.28282957542E+01  0.70666658719E+00 -0.34100856168E+01  0.44863480375E+01  0.51100000000E-03 0. -1.
        -11    1    3    3    0    0 -0.10669864717E+02 -0.88849180247E+01 -0.19686244509E+02  0.24090164062E+02  0.51100000000E-03 0.  1.
        -12    1    3    3    0    0  0.33468368540E+01  0.26267319431E+01 -0.18733727976E+02  0.19210767853E+02  0.00000000000E+00 0.  1.
</event>
<event>
 7    1  0.2642243E-009  0.4778733E+02  0.7816164E-02  0.1312668E+00
        -11   -1    0    0    0    0  0.00000000000E+00  0.00000000000E+00  0.45593999997E+02  0.45594000000E+02  0.51100000000E-03 0.  1.
         11   -1    0    0    0    0 -0.00000000000E+00 -0.00000000000E+00 -0.45593999997E+02  0.45594000000E+02  0.51100000000E-03 0. -1.
    9900012    2    1    2    0    0 -0.28176644482E+02  0.29524144644E+02  0.14765505529E+02  0.47787325296E+02  0.20000247354E+02 0.  0.
        -12    1    1    2    0    0  0.28176644482E+02 -0.29524144644E+02 -0.14765505529E+02  0.43400674704E+02  0.00000000000E+00 0.  1.
         11    1    3    3    0    0 -0.23409742385E+02  0.26750304242E+02  0.13279512963E+02  0.37946545039E+02  0.51100000000E-03 0. -1.
        -11    1    3    3    0    0 -0.54723844742E+01  0.68418313900E+00 -0.18713210013E+01  0.58238252852E+01  0.51100000000E-03 0.  1.
         12    1    3    3    0    0  0.70548237739E+00  0.20896572628E+01  0.33573135668E+01  0.40169549719E+01  0.00000000000E+00 0. -1.
</event>
<event>
 7    1  0.2642243E-009  0.4778727E+02  0.7816164E-02  0.1312668E+00
        -11   -1    0    0    0    0  0.00000000000E+00  0.00000000000E+00  0.45593999997E+02  0.45594000000E+02  0.51100000000E-03 0.  1.
         11   -1    0    0    0    0 -0.00000000000E+00 -0.00000000000E+00 -0.45593999997E+02  0.45594000000E+02  0.51100000000E-03 0. -1.
    9900012    2    1    2    0    0  0.29700845239E+02 -0.20233442335E+02 -0.24332917686E+02  0.47787270977E+02  0.19999999693E+02 0.  0.
        -12    1    1    2    0    0 -0.29700845239E+02  0.20233442335E+02  0.24332917686E+02  0.43400729023E+02  0.00000000000E+00 0.  1.
         11    1    3    3    0    0  0.40816938526E+01 -0.13528076559E+02 -0.69777439460E+01  0.15759377872E+02  0.51100000000E-03 0.  1.
        -11    1    3    3    0    0  0.16312609872E+02 -0.39424505574E+01 -0.81780578099E+01  0.18668818577E+02  0.51100000000E-03 0. -1.
        -12    1    3    3    0    0  0.93065415143E+01 -0.27629152186E+01 -0.91771159297E+01  0.13359074528E+02  0.00000000000E+00 0.  1.
</event>
<event>
 7    1  0.2642243E-009  0.4778721E+02  0.7816164E-02  0.1312668E+00
        -11   -1    0    0    0    0  0.00000000000E+00  0.00000000000E+00  0.45593999997E+02  0.45594000000E+02  0.51100000000E-03 0.  1.
         11   -1    0    0    0    0 -0.00000000000E+00 -0.00000000000E+00 -0.45593999997E+02  0.45594000000E+02  0.51100000000E-03 0. -1.
    9900012    2    1    2    0    0 -0.70964239795E+01  0.86550487187E+01 -0.41932800784E+02  0.47787206422E+02  0.19999705357E+02 0.  0.
        -12    1    1    2    0    0  0.70964239795E+01 -0.86550487187E+01  0.41932800784E+02  0.43400793578E+02  0.00000000000E+00 0.  1.
         11    1    3    3    0    0 -0.14292062062E+01  0.37257292249E+01 -0.30392217692E+02  0.30653068120E+02  0.51100000000E-03 0. -1.
        -11    1    3    3    0    0 -0.50546726861E+01 -0.79962182946E+00 -0.11379645446E+01  0.52425255936E+01  0.51100000000E-03 0.  1.
         12    1    3    3    0    0 -0.61254508722E+00  0.57289413232E+01 -0.10402618547E+02  0.11891612708E+02  0.00000000000E+00 0. -1.
</event>
<event>
 7    1  0.2642243E-009  0.4778727E+02  0.7816164E-02  0.1312668E+00
        -11   -1    0    0    0    0  0.00000000000E+00  0.00000000000E+00  0.45593999997E+02  0.45594000000E+02  0.51100000000E-03 0. -1.
         11   -1    0    0    0    0 -0.00000000000E+00 -0.00000000000E+00 -0.45593999997E+02  0.45594000000E+02  0.51100000000E-03 0.  1.
    9900012    2    1    2    0    0  0.52987301088E+01  0.28132611013E+02  0.32620593710E+02  0.47787268702E+02  0.19999989322E+02 0.  0.
        -12    1    1    2    0    0 -0.52987301088E+01 -0.28132611013E+02 -0.32620593710E+02  0.43400731298E+02  0.00000000000E+00 0.  1.
         11    1    3    3    0    0  0.13680526568E+01  0.53028865693E+01  0.17624532907E+01  0.57531222742E+01  0.51100000000E-03 0. -1.
        -11    1    3    3    0    0  0.17449401722E+01  0.22418561055E+02  0.17504038856E+02  0.28496106269E+02  0.51100000000E-03 0.  1.
        -12    1    3    3    0    0  0.21857372799E+01  0.41116338909E+00  0.13354101564E+02  0.13538040159E+02  0.00000000000E+00 0.  1.
</event>
<event>
 7    1  0.2642243E-009  0.4778727E+02  0.7816164E-02  0.1312668E+00
        -11   -1    0    0    0    0  0.00000000000E+00  0.00000000000E+00  0.45593999997E+02  0.45594000000E+02  0.51100000000E-03 0. -1.
         11   -1    0    0    0    0 -0.00000000000E+00 -0.00000000000E+00 -0.45593999997E+02  0.45594000000E+02  0.51100000000E-03 0.  1.
    9900012    2    1    2    0    0  0.17115257400E+02  0.36658938154E+02  0.15710314931E+02  0.47787265240E+02  0.19999973536E+02 0.  0.
        -12    1    1    2    0    0 -0.17115257400E+02 -0.36658938154E+02 -0.15710314931E+02  0.43400734760E+02  0.00000000000E+00 0.  1.
         11    1    3    3    0    0  0.42327913905E+01  0.21684209044E+02  0.31751132220E+01  0.22320456740E+02  0.51100000000E-03 0. -1.
        -11    1    3    3    0    0  0.13492579049E+02  0.14545024737E+02  0.13681075167E+02  0.24099362066E+02  0.51100000000E-03 0.  1.
         12    1    3    3    0    0 -0.61011303964E+00  0.42970437259E+00 -0.11458734583E+01  0.13674464345E+01  0.00000000000E+00 0. -1.
</event>
<event>
 7    1  0.2642243E-009  0.4778727E+02  0.7816164E-02  0.1312668E+00
        -11   -1    0    0    0    0  0.00000000000E+00  0.00000000000E+00  0.45593999997E+02  0.45594000000E+02  0.51100000000E-03 0. -1.
         11   -1    0    0    0    0 -0.00000000000E+00 -0.00000000000E+00 -0.45593999997E+02  0.45594000000E+02  0.51100000000E-03 0.  1.
    9900012    2    1    2    0    0 -0.38567776454E+02 -0.19241841341E+02 -0.50893514750E+01  0.47787270314E+02  0.19999996670E+02 0.  0.
        -12    1    1    2    0    0  0.38567776454E+02  0.19241841341E+02  0.50893514750E+01  0.43400729686E+02  0.00000000000E+00 0.  1.
         11    1    3    3    0    0 -0.20394432989E+02 -0.18738075001E+02  0.38029374153E+00  0.27698248596E+02  0.51100000000E-03 0. -1.
        -11    1    3    3    0    0 -0.10020754545E+02  0.30762310683E+00 -0.63213752035E+01  0.11852001449E+02  0.51100000000E-03 0.  1.
         12    1    3    3    0    0 -0.81525889209E+01 -0.81138944732E+00  0.85172998701E+00  0.82370202694E+01  0.00000000000E+00 0. -1.
</event>
<event>
 7    1  0.2642243E-009  0.4778727E+02  0.7816164E-02  0.1312668E+00
        -11   -1    0    0    0    0  0.00000000000E+00  0.00000000000E+00  0.45593999997E+02  0.45594000000E+02  0.51100000000E-03 0. -1.
         11   -1    0    0    0    0 -0.00000000000E+00 -0.00000000000E+00 -0.45593999997E+02  0.45594000000E+02  0.51100000000E-03 0.  1.
    9900012    2    1    2    0    0  0.31757061661E+02 -0.30177592333E+01  0.29427971831E+02  0.47787270027E+02  0.19999995360E+02 0.  0.
        -12    1    1    2    0    0 -0.31757061661E+02  0.30177592333E+01 -0.29427971831E+02  0.43400729973E+02  0.00000000000E+00 0.  1.
         11    1    3    3    0    0  0.10164789237E+02 -0.22463114097E+01  0.16314861571E+02  0.19353128003E+02  0.51100000000E-03 0. -1.
        -11    1    3    3    0    0  0.11391563746E+02  0.37082419883E+01  0.10692759909E+01  0.12027557301E+02  0.51100000000E-03 0.  1.
        -12    1    3    3    0    0  0.10200708678E+02 -0.44796898119E+01  0.12043834269E+02  0.16406584723E+02  0.00000000000E+00 0.  1.
</event>
<event>
 7    1  0.2642243E-009  0.4778727E+02  0.7816164E-02  0.1312668E+00
        -11   -1    0    0    0    0  0.00000000000E+00  0.00000000000E+00  0.45593999997E+02  0.45594000000E+02  0.51100000000E-03 0. -1.
         11   -1    0    0    0    0 -0.00000000000E+00 -0.00000000000E+00 -0.45593999997E+02  0.45594000000E+02  0.51100000000E-03 0.  1.
    9900012    2    1    2    0    0  0.34327017430E+02  0.11894257573E+02  0.23744591272E+02  0.47787273006E+02  0.20000008945E+02 0.  0.
        -12    1    1    2    0    0 -0.34327017430E+02 -0.11894257573E+02 -0.23744591272E+02  0.43400726994E+02  0.00000000000E+00 0.  1.
         11    1    3    3    0    0  0.92013017215E+01 -0.17325844892E+01  0.10348319785E+02  0.13955412033E+02  0.51100000000E-03 0. -1.
        -11    1    3    3    0    0  0.89324085087E+01  0.99729814089E+01  0.16361688937E+01  0.13487969783E+02  0.51100000000E-03 0.  1.
         12    1    3    3    0    0  0.16193307200E+02  0.36538606532E+01  0.11760102594E+02  0.20343891190E+02  0.00000000000E+00 0. -1.
</event>
<event>
 7    1  0.2642243E-009  0.4778727E+02  0.7816164E-02  0.1312668E+00
        -11   -1    0    0    0    0  0.00000000000E+00  0.00000000000E+00  0.45593999997E+02  0.45594000000E+02  0.51100000000E-03 0. -1.
         11   -1    0    0    0    0 -0.00000000000E+00 -0.00000000000E+00 -0.45593999997E+02  0.45594000000E+02  0.51100000000E-03 0.  1.
    9900012    2    1    2    0    0  0.41493982073E+02  0.78378238617E+01  0.10022042486E+02  0.47787269975E+02  0.19999995122E+02 0.  0.
        -12    1    1    2    0    0 -0.41493982073E+02 -0.78378238617E+01 -0.10022042486E+02  0.43400730025E+02  0.00000000000E+00 0.  1.
         11    1    3    3    0    0  0.22634879089E+02  0.32069546933E+01  0.96549987384E+01  0.24816150199E+02  0.51100000000E-03 0. -1.
        -11    1    3    3    0    0  0.17106830610E+02  0.61189915380E+01 -0.34713763706E+01  0.18496923126E+02  0.51100000000E-03 0.  1.
        -12    1    3    3    0    0  0.17522723734E+01 -0.14881223695E+01  0.38384201178E+01  0.44741966494E+01  0.00000000000E+00 0.  1.
</event>
<event>
 7    1  0.2642243E-009  0.4778727E+02  0.7816164E-02  0.1312668E+00
        -11   -1    0    0    0    0  0.00000000000E+00  0.00000000000E+00  0.45593999997E+02  0.45594000000E+02  0.51100000000E-03 0.  1.
         11   -1    0    0    0    0 -0.00000000000E+00 -0.00000000000E+00 -0.45593999997E+02  0.45594000000E+02  0.51100000000E-03 0. -1.
    9900012    2    1    2    0    0  0.24502121408E+02 -0.33719944861E+02 -0.12092742801E+02  0.47787273470E+02  0.20000011059E+02 0.  0.
        -12    1    1    2    0    0 -0.24502121408E+02  0.33719944861E+02  0.12092742801E+02  0.43400726530E+02  0.00000000000E+00 0.  1.
         11    1    3    3    0    0  0.32182608727E+01  0.98853593242E+00 -0.39292616021E+01  0.51743118705E+01  0.51100000000E-03 0. -1.
        -11    1    3    3    0    0  0.89580472889E+01 -0.75860220681E+01 -0.46042830984E+01  0.12609272983E+02  0.51100000000E-03 0.  1.
         12    1    3    3    0    0  0.12325813246E+02 -0.27122458725E+02 -0.35591981007E+01  0.30003688616E+02  0.00000000000E+00 0. -1.
</event>
<event>
 7    1  0.2642243E-009  0.4778727E+02  0.7816164E-02  0.1312668E+00
        -11   -1    0    0    0    0  0.00000000000E+00  0.00000000000E+00  0.45593999997E+02  0.45594000000E+02  0.51100000000E-03 0. -1.
         11   -1    0    0    0    0 -0.00000000000E+00 -0.00000000000E+00 -0.45593999997E+02  0.45594000000E+02  0.51100000000E-03 0.  1.
    9900012    2    1    2    0    0  0.23162739199E+02  0.33982042695E+02 -0.13868370059E+02  0.47787269579E+02  0.19999993320E+02 0.  0.
        -12    1    1    2    0    0 -0.23162739199E+02 -0.33982042695E+02  0.13868370059E+02  0.43400730421E+02  0.00000000000E+00 0.  1.
         11    1    3    3    0    0  0.55852028161E+01  0.10347865312E+02 -0.57674270622E+01  0.13097176115E+02  0.51100000000E-03 0. -1.
        -11    1    3    3    0    0 -0.26052855820E+01  0.25381287529E+01 -0.36574880749E+01  0.51581808623E+01  0.51100000000E-03 0.  1.
        -12    1    3    3    0    0  0.20182821965E+02  0.21096048631E+02 -0.44434549218E+01  0.29531912602E+02  0.00000000000E+00 0.  1.
</event>
<event>
 7    1  0.2642243E-009  0.4778727E+02  0.7816164E-02  0.1312668E+00
        -11   -1    0    0    0    0  0.00000000000E+00  0.00000000000E+00  0.45593999997E+02  0.45594000000E+02  0.51100000000E-03 0. -1.
         11   -1    0    0    0    0 -0.00000000000E+00 -0.00000000000E+00 -0.45593999997E+02  0.45594000000E+02  0.51100000000E-03 0.  1.
    9900012    2    1    2    0    0  0.26895459697E+02  0.28555246610E+02 -0.18570286341E+02  0.47787269636E+02  0.19999993579E+02 0.  0.
        -12    1    1    2    0    0 -0.26895459697E+02 -0.28555246610E+02  0.18570286341E+02  0.43400730364E+02  0.00000000000E+00 0.  1.
         11    1    3    3    0    0  0.24578087209E+02  0.16242697904E+02 -0.11601700227E+02  0.31662391800E+02  0.51100000000E-03 0. -1.
        -11    1    3    3    0    0  0.25843681836E+01  0.77066133206E+01 -0.79917982495E+01  0.11399109057E+02  0.51100000000E-03 0.  1.
         12    1    3    3    0    0 -0.26699569550E+00  0.46059353858E+01  0.10232121348E+01  0.47257687790E+01  0.00000000000E+00 0. -1.
</event>
<event>
 7    1  0.2642243E-009  0.4778727E+02  0.7816164E-02  0.1312668E+00
        -11   -1    0    0    0    0  0.00000000000E+00  0.00000000000E+00  0.45593999997E+02  0.45594000000E+02  0.51100000000E-03 0. -1.
         11   -1    0    0    0    0 -0.00000000000E+00 -0.00000000000E+00 -0.45593999997E+02  0.45594000000E+02  0.51100000000E-03 0.  1.
    9900012    2    1    2    0    0  0.25544205229E+00 -0.33709914768E+02  0.27334952543E+02  0.47787271494E+02  0.20000002050E+02 0.  0.
        -12    1    1    2    0    0 -0.25544205229E+00  0.33709914768E+02 -0.27334952543E+02  0.43400728506E+02  0.00000000000E+00 0.  1.
         11    1    3    3    0    0  0.39051557972E+01  0.31866116933E+00  0.27483139378E+01  0.47859185642E+01  0.51100000000E-03 0. -1.
        -11    1    3    3    0    0 -0.65796723109E+00  0.30947238700E+00  0.13125648364E+00  0.73886572604E+00  0.51100000000E-03 0.  1.
         12    1    3    3    0    0 -0.29917465139E+01 -0.34338048324E+02  0.24455382122E+02  0.42262487204E+02  0.00000000000E+00 0. -1.
</event>
<event>
 7    1  0.2642243E-009  0.4778727E+02  0.7816164E-02  0.1312668E+00
        -11   -1    0    0    0    0  0.00000000000E+00  0.00000000000E+00  0.45593999997E+02  0.45594000000E+02  0.51100000000E-03 0. -1.
         11   -1    0    0    0    0 -0.00000000000E+00 -0.00000000000E+00 -0.45593999997E+02  0.45594000000E+02  0.51100000000E-03 0.  1.
    9900012    2    1    2    0    0 -0.13422141562E+02  0.18930544146E+02  0.36675659844E+02  0.47787269468E+02  0.19999992811E+02 0.  0.
        -12    1    1    2    0    0  0.13422141562E+02 -0.18930544146E+02 -0.36675659844E+02  0.43400730532E+02  0.00000000000E+00 0.  1.
         11    1    3    3    0    0 -0.11181870118E+02  0.96162060021E+01  0.17906408108E+02  0.23197954410E+02  0.51100000000E-03 0. -1.
        -11    1    3    3    0    0 -0.27408139996E+01 -0.26937172754E+01  0.51424845286E+01  0.64197602391E+01  0.51100000000E-03 0.  1.
        -12    1    3    3    0    0  0.50054255525E+00  0.12008055419E+02  0.13626767207E+02  0.18169554819E+02  0.00000000000E+00 0.  1.
</event>
<event>
 7    1  0.2642243E-009  0.4778727E+02  0.7816164E-02  0.1312668E+00
        -11   -1    0    0    0    0  0.00000000000E+00  0.00000000000E+00  0.45593999997E+02  0.45594000000E+02  0.51100000000E-03 0. -1.
         11   -1    0    0    0    0 -0.00000000000E+00 -0.00000000000E+00 -0.45593999997E+02  0.45594000000E+02  0.51100000000E-03 0.  1.
    9900012    2    1    2    0    0  0.25890051804E+02  0.11350636222E+02  0.32931623914E+02  0.47787267533E+02  0.19999983988E+02 0.  0.
        -12    1    1    2    0    0 -0.25890051804E+02 -0.11350636222E+02 -0.32931623914E+02  0.43400732467E+02  0.00000000000E+00 0.  1.
         11    1    3    3    0    0  0.13940929250E+02  0.53040062706E+01  0.16198228165E+02  0.22019640933E+02  0.51100000000E-03 0. -1.
        -11    1    3    3    0    0 -0.13310815164E+01 -0.27485622169E+01  0.54507435943E+01  0.62479579268E+01  0.51100000000E-03 0.  1.
        -12    1    3    3    0    0  0.13280204070E+02  0.87951921687E+01  0.11282652155E+02  0.19519668673E+02  0.00000000000E+00 0.  1.
</event>
<event>
 7    1  0.2642243E-009  0.4778729E+02  0.7816164E-02  0.1312668E+00
        -11   -1    0    0    0    0  0.00000000000E+00  0.00000000000E+00  0.45593999997E+02  0.45594000000E+02  0.51100000000E-03 0. -1.
         11   -1    0    0    0    0 -0.00000000000E+00 -0.00000000000E+00 -0.45593999997E+02  0.45594000000E+02  0.51100000000E-03 0.  1.
    9900012    2    1    2    0    0 -0.12354818427E+02 -0.34298738359E+02  0.23549444384E+02  0.47787293529E+02  0.20000102518E+02 0.  0.
        -12    1    1    2    0    0  0.12354818427E+02  0.34298738359E+02 -0.23549444384E+02  0.43400706471E+02  0.00000000000E+00 0.  1.
         11    1    3    3    0    0 -0.80759347780E+01 -0.19555032794E+02  0.21414598770E+02  0.30103240205E+02  0.51100000000E-03 0. -1.
        -11    1    3    3    0    0  0.60073083347E+00 -0.60828587010E+01 -0.26372303376E+01  0.66571038466E+01  0.51100000000E-03 0.  1.
        -12    1    3    3    0    0 -0.48796144827E+01 -0.86608468639E+01  0.47720759514E+01  0.11026949478E+02  0.00000000000E+00 0.  1.
</event>
<event>
 7    1  0.2642243E-009  0.4778727E+02  0.7816164E-02  0.1312668E+00
        -11   -1    0    0    0    0  0.00000000000E+00  0.00000000000E+00  0.45593999997E+02  0.45594000000E+02  0.51100000000E-03 0.  1.
         11   -1    0    0    0    0 -0.00000000000E+00 -0.00000000000E+00 -0.45593999997E+02  0.45594000000E+02  0.51100000000E-03 0. -1.
    9900012    2    1    2    0    0 -0.22830071768E+02 -0.32233471390E+02 -0.17983718663E+02  0.47787274294E+02  0.20000014818E+02 0.  0.
        -12    1    1    2    0    0  0.22830071768E+02  0.32233471390E+02  0.17983718663E+02  0.43400725706E+02  0.00000000000E+00 0.  1.
         11    1    3    3    0    0 -0.12157785547E+02 -0.16275779461E+02 -0.13771856032E+02  0.24543364995E+02  0.51100000000E-03 0. -1.
        -11    1    3    3    0    0  0.18130147976E+01 -0.72689698345E+01 -0.12219479060E+00  0.74926548659E+01  0.51100000000E-03 0.  1.
        -12    1    3    3    0    0 -0.12485301019E+02 -0.86887220954E+01 -0.40896678407E+01  0.15751254434E+02  0.00000000000E+00 0.  1.
</event>
<event>
 7    1  0.2642243E-009  0.4778727E+02  0.7816164E-02  0.1312668E+00
        -11   -1    0    0    0    0  0.00000000000E+00  0.00000000000E+00  0.45593999997E+02  0.45594000000E+02  0.51100000000E-03 0.  1.
         11   -1    0    0    0    0 -0.00000000000E+00 -0.00000000000E+00 -0.45593999997E+02  0.45594000000E+02  0.51100000000E-03 0. -1.
    9900012    2    1    2    0    0 -0.29239643267E+02  0.15918194127E+02 -0.27843802900E+02  0.47787274170E+02  0.20000014251E+02 0.  0.
        -12    1    1    2    0    0  0.29239643267E+02 -0.15918194127E+02  0.27843802900E+02  0.43400725830E+02  0.00000000000E+00 0.  1.
         11    1    3    3    0    0 -0.10851719595E+02  0.81068497597E+01 -0.17730147649E+02  0.22312305285E+02  0.51100000000E-03 0. -1.
        -11    1    3    3    0    0 -0.20060485402E+01  0.56658369983E+01  0.17230352526E+00  0.60129550475E+01  0.51100000000E-03 0.  1.
        -12    1    3    3    0    0 -0.16381875131E+02  0.21455073689E+01 -0.10285958776E+02  0.19462013838E+02  0.00000000000E+00 0.  1.
</event>
<event>
 7    1  0.2642243E-009  0.4778727E+02  0.7816164E-02  0.1312668E+00
        -11   -1    0    0    0    0  0.00000000000E+00  0.00000000000E+00  0.45593999997E+02  0.45594000000E+02  0.51100000000E-03 0.  1.
         11   -1    0    0    0    0 -0.00000000000E+00 -0.00000000000E+00 -0.45593999997E+02  0.45594000000E+02  0.51100000000E-03 0. -1.
    9900012    2    1    2    0    0  0.22475945645E+02 -0.25689520860E+02 -0.26804918397E+02  0.47787271148E+02  0.20000000470E+02 0.  0.
        -12    1    1    2    0    0 -0.22475945645E+02  0.25689520860E+02  0.26804918397E+02  0.43400728852E+02  0.00000000000E+00 0.  1.
         11    1    3    3    0    0  0.57682114899E+01 -0.17494142493E+02 -0.21692871870E+02  0.28458706499E+02  0.51100000000E-03 0. -1.
        -11    1    3    3    0    0  0.10079051778E+02 -0.53164476222E+01 -0.35427429589E+01  0.11933269794E+02  0.51100000000E-03 0.  1.
         12    1    3    3    0    0  0.66286823776E+01 -0.28789307448E+01 -0.15693035684E+01  0.73952948546E+01  0.00000000000E+00 0. -1.
</event>
<event>
 7    1  0.2642243E-009  0.4778727E+02  0.7816164E-02  0.1312668E+00
        -11   -1    0    0    0    0  0.00000000000E+00  0.00000000000E+00  0.45593999997E+02  0.45594000000E+02  0.51100000000E-03 0. -1.
         11   -1    0    0    0    0 -0.00000000000E+00 -0.00000000000E+00 -0.45593999997E+02  0.45594000000E+02  0.51100000000E-03 0.  1.
    9900012    2    1    2    0    0  0.31923933771E+01 -0.23342491305E+02  0.36449417432E+02  0.47787270664E+02  0.19999998265E+02 0.  0.
        -12    1    1    2    0    0 -0.31923933771E+01  0.23342491305E+02 -0.36449417432E+02  0.43400729336E+02  0.00000000000E+00 0.  1.
         11    1    3    3    0    0 -0.40306891864E+01 -0.37553835395E+01  0.11080945016E+01  0.56193624667E+01  0.51100000000E-03 0. -1.
        -11    1    3    3    0    0 -0.17224758537E+01 -0.67534754378E+01  0.75425750157E+01  0.10269702609E+02  0.51100000000E-03 0.  1.
         12    1    3    3    0    0  0.89455584172E+01 -0.12833632327E+02  0.27798747915E+02  0.31898205588E+02  0.00000000000E+00 0. -1.
</event>
<event>
 7    1  0.2642243E-009  0.4778727E+02  0.7816164E-02  0.1312668E+00
        -11   -1    0    0    0    0  0.00000000000E+00  0.00000000000E+00  0.45593999997E+02  0.45594000000E+02  0.51100000000E-03 0.  1.
         11   -1    0    0    0    0 -0.00000000000E+00 -0.00000000000E+00 -0.45593999997E+02  0.45594000000E+02  0.51100000000E-03 0. -1.
    9900012    2    1    2    0    0  0.93763382828E+01  0.49125744801E+01 -0.42090072108E+02  0.47787271000E+02  0.19999999799E+02 0.  0.
        -12    1    1    2    0    0 -0.93763382828E+01 -0.49125744801E+01  0.42090072108E+02  0.43400729000E+02  0.00000000000E+00 0.  1.
         11    1    3    3    0    0 -0.31237567627E+01  0.22812743110E+01 -0.95525961315E+01  0.10306025515E+02  0.51100000000E-03 0. -1.
        -11    1    3    3    0    0  0.13018484344E+02  0.64323398782E+01 -0.27984456629E+02  0.31527539454E+02  0.51100000000E-03 0.  1.
        -12    1    3    3    0    0 -0.51838929840E+00 -0.38010397091E+01 -0.45530193475E+01  0.59537060318E+01  0.00000000000E+00 0.  1.
</event>
<event>
 7    1  0.2642243E-009  0.4778726E+02  0.7816164E-02  0.1312668E+00
        -11   -1    0    0    0    0  0.00000000000E+00  0.00000000000E+00  0.45593999997E+02  0.45594000000E+02  0.51100000000E-03 0.  1.
         11   -1    0    0    0    0 -0.00000000000E+00 -0.00000000000E+00 -0.45593999997E+02  0.45594000000E+02  0.51100000000E-03 0. -1.
    9900012    2    1    2    0    0 -0.29084495082E+02 -0.29155218366E+02 -0.13699978347E+02  0.47787262462E+02  0.19999960868E+02 0.  0.
        -12    1    1    2    0    0  0.29084495082E+02  0.29155218366E+02  0.13699978347E+02  0.43400737538E+02  0.00000000000E+00 0.  1.
         11    1    3    3    0    0 -0.11696463467E+02 -0.19162160552E+02 -0.12123979709E+02  0.25514437851E+02  0.51100000000E-03 0. -1.
        -11    1    3    3    0    0 -0.16018747051E+02 -0.95394983536E+01 -0.43512288580E+01  0.19145116316E+02  0.51100000000E-03 0.  1.
         12    1    3    3    0    0 -0.13692845640E+01 -0.45355946124E+00  0.27752302195E+01  0.31277082942E+01  0.00000000000E+00 0. -1.
</event>
<event>
 7    1  0.2642243E-009  0.4778729E+02  0.7816164E-02  0.1312668E+00
        -11   -1    0    0    0    0  0.00000000000E+00  0.00000000000E+00  0.45593999997E+02  0.45594000000E+02  0.51100000000E-03 0.  1.
         11   -1    0    0    0    0 -0.00000000000E+00 -0.00000000000E+00 -0.45593999997E+02  0.45594000000E+02  0.51100000000E-03 0. -1.
    9900012    2    1    2    0    0  0.35209238342E+02 -0.22175397295E+02 -0.12336240574E+02  0.47787291004E+02  0.20000091005E+02 0.  0.
        -12    1    1    2    0    0 -0.35209238342E+02  0.22175397295E+02  0.12336240574E+02  0.43400708996E+02  0.00000000000E+00 0.  1.
         11    1    3    3    0    0  0.14490541724E+02 -0.36486102539E+01 -0.10541517611E+02  0.18286928393E+02  0.51100000000E-03 0. -1.
        -11    1    3    3    0    0  0.48678341298E+01 -0.79654286954E+00 -0.28456650342E+01  0.56945675346E+01  0.51100000000E-03 0.  1.
         12    1    3    3    0    0  0.15850862489E+02 -0.17730244171E+02  0.10509420717E+01  0.23805795077E+02  0.00000000000E+00 0. -1.
</event>
<event>
 7    1  0.2642243E-009  0.4778727E+02  0.7816164E-02  0.1312668E+00
        -11   -1    0    0    0    0  0.00000000000E+00  0.00000000000E+00  0.45593999997E+02  0.45594000000E+02  0.51100000000E-03 0.  1.
         11   -1    0    0    0    0 -0.00000000000E+00 -0.00000000000E+00 -0.45593999997E+02  0.45594000000E+02  0.51100000000E-03 0. -1.
    9900012    2    1    2    0    0 -0.11154509175E+02  0.26490626478E+02 -0.32518409801E+02  0.47787270258E+02  0.19999996416E+02 0.  0.
        -12    1    1    2    0    0  0.11154509175E+02 -0.26490626478E+02  0.32518409801E+02  0.43400729742E+02  0.00000000000E+00 0.  1.
         11    1    3    3    0    0 -0.25248202953E+01  0.13673651853E+02 -0.25910802614E+02  0.29406005592E+02  0.51100000000E-03 0. -1.
        -11    1    3    3    0    0 -0.10262801955E+01  0.25877328350E+01  0.16103612219E+01  0.32160341713E+01  0.51100000000E-03 0.  1.
         12    1    3    3    0    0 -0.76034086837E+01  0.10229241789E+02 -0.82179684094E+01  0.15165230495E+02  0.00000000000E+00 0. -1.
</event>
<event>
 7    1  0.2642243E-009  0.4778727E+02  0.7816164E-02  0.1312668E+00
        -11   -1    0    0    0    0  0.00000000000E+00  0.00000000000E+00  0.45593999997E+02  0.45594000000E+02  0.51100000000E-03 0.  1.
         11   -1    0    0    0    0 -0.00000000000E+00 -0.00000000000E+00 -0.45593999997E+02  0.45594000000E+02  0.51100000000E-03 0. -1.
    9900012    2    1    2    0    0 -0.39843172301E+02 -0.37732847233E+01 -0.16790092298E+02  0.47787271251E+02  0.20000000940E+02 0.  0.
        -12    1    1    2    0    0  0.39843172301E+02  0.37732847233E+01  0.16790092298E+02  0.43400728749E+02  0.00000000000E+00 0.  1.
         11    1    3    3    0    0 -0.12033519082E+02 -0.91454628118E+01 -0.62952534044E+01  0.16373004832E+02  0.51100000000E-03 0.  1.
        -11    1    3    3    0    0 -0.14641378746E+02  0.64440160651E+01 -0.82985549629E+01  0.18021135630E+02  0.51100000000E-03 0. -1.
        -12    1    3    3    0    0 -0.13168274472E+02 -0.10718379766E+01 -0.21962839311E+01  0.13393130789E+02  0.00000000000E+00 0.  1.
</event>
<event>
 7    1  0.2642243E-009  0.4778728E+02  0.7816164E-02  0.1312668E+00
        -11   -1    0    0    0    0  0.00000000000E+00  0.00000000000E+00  0.45593999997E+02  0.45594000000E+02  0.51100000000E-03 0.  1.
         11   -1    0    0    0    0 -0.00000000000E+00 -0.00000000000E+00 -0.45593999997E+02  0.45594000000E+02  0.51100000000E-03 0. -1.
    9900012    2    1    2    0    0  0.40670475182E+02 -0.13394411432E+02 -0.70799047388E+01  0.47787275809E+02  0.20000021725E+02 0.  0.
        -12    1    1    2    0    0 -0.40670475182E+02  0.13394411432E+02  0.70799047388E+01  0.43400724191E+02  0.00000000000E+00 0.  1.
         11    1    3    3    0    0  0.99468011221E+01 -0.82915820995E+00 -0.10062796692E+02  0.14173434073E+02  0.51100000000E-03 0. -1.
        -11    1    3    3    0    0  0.17605393554E+02 -0.52538586484E+01  0.28687152277E+01  0.18595226275E+02  0.51100000000E-03 0.  1.
         12    1    3    3    0    0  0.13118280506E+02 -0.73113945739E+01  0.11417672566E+00  0.15018615461E+02  0.00000000000E+00 0. -1.
</event>
<event>
 7    1  0.2642243E-009  0.4778727E+02  0.7816164E-02  0.1312668E+00
        -11   -1    0    0    0    0  0.00000000000E+00  0.00000000000E+00  0.45593999997E+02  0.45594000000E+02  0.51100000000E-03 0.  1.
         11   -1    0    0    0    0 -0.00000000000E+00 -0.00000000000E+00 -0.45593999997E+02  0.45594000000E+02  0.51100000000E-03 0. -1.
    9900012    2    1    2    0    0 -0.11679388320E+02  0.37864700305E+02 -0.17705352389E+02  0.47787272542E+02  0.20000006827E+02 0.  0.
        -12    1    1    2    0    0  0.11679388320E+02 -0.37864700305E+02  0.17705352389E+02  0.43400727458E+02  0.00000000000E+00 0.  1.
         11    1    3    3    0    0 -0.17974116228E+01  0.19104025287E+02 -0.49847102565E+00  0.19194867656E+02  0.51100000000E-03 0. -1.
        -11    1    3    3    0    0 -0.49689968536E+01  0.15888152264E+02 -0.15244309785E+02  0.22572401139E+02  0.51100000000E-03 0.  1.
        -12    1    3    3    0    0 -0.49129798432E+01  0.28725227532E+01 -0.19625715787E+01  0.60200037466E+01  0.00000000000E+00 0.  1.
</event>
<event>
 7    1  0.2642243E-009  0.4778728E+02  0.7816164E-02  0.1312668E+00
        -11   -1    0    0    0    0  0.00000000000E+00  0.00000000000E+00  0.45593999997E+02  0.45594000000E+02  0.51100000000E-03 0.  1.
         11   -1    0    0    0    0 -0.00000000000E+00 -0.00000000000E+00 -0.45593999997E+02  0.45594000000E+02  0.51100000000E-03 0. -1.
    9900012    2    1    2    0    0 -0.13048498405E+02  0.20646956699E+02 -0.35875655429E+02  0.47787276688E+02  0.20000025730E+02 0.  0.
        -12    1    1    2    0    0  0.13048498405E+02 -0.20646956699E+02  0.35875655429E+02  0.43400723312E+02  0.00000000000E+00 0.  1.
         11    1    3    3    0    0  0.12763155072E+01  0.13731307603E+02 -0.20621784499E+02  0.24807978273E+02  0.51100000000E-03 0. -1.
        -11    1    3    3    0    0 -0.31952903253E+01 -0.92770625156E+00 -0.15823062403E+01  0.36843198085E+01  0.51100000000E-03 0.  1.
         12    1    3    3    0    0 -0.11129523587E+02  0.78433553476E+01 -0.13671564689E+02  0.19294978606E+02  0.00000000000E+00 0. -1.
</event>
<event>
 7    1  0.2642243E-009  0.4778727E+02  0.7816164E-02  0.1312668E+00
        -11   -1    0    0    0    0  0.00000000000E+00  0.00000000000E+00  0.45593999997E+02  0.45594000000E+02  0.51100000000E-03 0. -1.
         11   -1    0    0    0    0 -0.00000000000E+00 -0.00000000000E+00 -0.45593999997E+02  0.45594000000E+02  0.51100000000E-03 0.  1.
    9900012    2    1    2    0    0 -0.26179525724E+02 -0.34447047979E+02  0.34141471266E+01  0.47787273253E+02  0.20000010069E+02 0.  0.
        -12    1    1    2    0    0  0.26179525724E+02  0.34447047979E+02 -0.34141471266E+01  0.43400726747E+02  0.00000000000E+00 0.  1.
         11    1    3    3    0    0  0.54908210230E+00 -0.43027400646E+01 -0.49615600335E+01  0.65903066276E+01  0.51100000000E-03 0. -1.
        -11    1    3    3    0    0 -0.20429084578E+02 -0.21803856001E+02  0.64999715036E+01  0.30577855762E+02  0.51100000000E-03 0.  1.
         12    1    3    3    0    0 -0.62995232477E+01 -0.83404519133E+01  0.18757356565E+01  0.10619110863E+02  0.00000000000E+00 0. -1.
</event>
<event>
 7    1  0.2642243E-009  0.4778728E+02  0.7816164E-02  0.1312668E+00
        -11   -1    0    0    0    0  0.00000000000E+00  0.00000000000E+00  0.45593999997E+02  0.45594000000E+02  0.51100000000E-03 0. -1.
         11   -1    0    0    0    0 -0.00000000000E+00 -0.00000000000E+00 -0.45593999997E+02  0.45594000000E+02  0.51100000000E-03 0.  1.
    9900012    2    1    2    0    0  0.38274046244E+02  0.78367288734E+01  0.18902525401E+02  0.47787281091E+02  0.20000045805E+02 0.  0.
        -12    1    1    2    0    0 -0.38274046244E+02 -0.78367288734E+01 -0.18902525401E+02  0.43400718909E+02  0.00000000000E+00 0.  1.
         11    1    3    3    0    0  0.28171120122E+01 -0.31027526583E+01  0.23923494584E+01  0.48256119135E+01  0.51100000000E-03 0. -1.
        -11    1    3    3    0    0  0.19224401517E+02  0.13084588296E+02  0.10563673399E+02  0.25541637780E+02  0.51100000000E-03 0.  1.
        -12    1    3    3    0    0  0.16232532715E+02 -0.21451067644E+01  0.59465025439E+01  0.17420031397E+02  0.00000000000E+00 0.  1.
</event>
<event>
 7    1  0.2642243E-009  0.4778726E+02  0.7816164E-02  0.1312668E+00
        -11   -1    0    0    0    0  0.00000000000E+00  0.00000000000E+00  0.45593999997E+02  0.45594000000E+02  0.51100000000E-03 0. -1.
         11   -1    0    0    0    0 -0.00000000000E+00 -0.00000000000E+00 -0.45593999997E+02  0.45594000000E+02  0.51100000000E-03 0.  1.
    9900012    2    1    2    0    0 -0.59406545602E+01 -0.25278042870E+02  0.34775757115E+02  0.47787261402E+02  0.19999956037E+02 0.  0.
        -12    1    1    2    0    0  0.59406545602E+01  0.25278042870E+02 -0.34775757115E+02  0.43400738598E+02  0.00000000000E+00 0.  1.
         11    1    3    3    0    0 -0.80049284688E+01 -0.19724055288E+02  0.17547197689E+02  0.27586616026E+02  0.51100000000E-03 0. -1.
        -11    1    3    3    0    0  0.50426559319E+01 -0.47821042144E+01  0.87055025421E+01  0.11139240294E+02  0.51100000000E-03 0.  1.
        -12    1    3    3    0    0 -0.29783820234E+01 -0.77188336750E+00  0.85230568838E+01  0.90614050817E+01  0.00000000000E+00 0.  1.
</event>
<event>
 7    1  0.2642243E-009  0.4778726E+02  0.7816164E-02  0.1312668E+00
        -11   -1    0    0    0    0  0.00000000000E+00  0.00000000000E+00  0.45593999997E+02  0.45594000000E+02  0.51100000000E-03 0.  1.
         11   -1    0    0    0    0 -0.00000000000E+00 -0.00000000000E+00 -0.45593999997E+02  0.45594000000E+02  0.51100000000E-03 0. -1.
    9900012    2    1    2    0    0 -0.35520991088E+02 -0.21907849602E+02 -0.11913416823E+02  0.47787260577E+02  0.19999952275E+02 0.  0.
        -12    1    1    2    0    0  0.35520991088E+02  0.21907849602E+02  0.11913416823E+02  0.43400739423E+02  0.00000000000E+00 0.  1.
         11    1    3    3    0    0 -0.21619179152E+02 -0.17880623534E+02 -0.12333274887E+02  0.30646619306E+02  0.51100000000E-03 0. -1.
        -11    1    3    3    0    0 -0.59359024999E+00 -0.18869883582E+01  0.28247980666E+01  0.34485589493E+01  0.51100000000E-03 0.  1.
         12    1    3    3    0    0 -0.13308221686E+02 -0.21402377100E+01 -0.24049400023E+01  0.13692082322E+02  0.00000000000E+00 0. -1.
</event>
<event>
 7    1  0.2642243E-009  0.4778726E+02  0.7816164E-02  0.1312668E+00
        -11   -1    0    0    0    0  0.00000000000E+00  0.00000000000E+00  0.45593999997E+02  0.45594000000E+02  0.51100000000E-03 0. -1.
         11   -1    0    0    0    0 -0.00000000000E+00 -0.00000000000E+00 -0.45593999997E+02  0.45594000000E+02  0.51100000000E-03 0.  1.
    9900012    2    1    2    0    0 -0.41178747875E+02 -0.54466972238E+01  0.12580471158E+02  0.47787262198E+02  0.19999959667E+02 0.  0.
        -12    1    1    2    0    0  0.41178747875E+02  0.54466972238E+01 -0.12580471158E+02  0.43400737802E+02  0.00000000000E+00 0.  1.
         11    1    3    3    0    0 -0.21188517394E+02 -0.14306554751E+01  0.16480067948E+02  0.26881084135E+02  0.51100000000E-03 0. -1.
        -11    1    3    3    0    0 -0.78419451892E+01 -0.27342914188E+01 -0.11424531502E+01  0.83831768068E+01  0.51100000000E-03 0.  1.
         12    1    3    3    0    0 -0.12148285291E+02 -0.12817503300E+01 -0.27571436390E+01  0.12523001257E+02  0.00000000000E+00 0. -1.
</event>
<event>
 7    1  0.2642243E-009  0.4778727E+02  0.7816164E-02  0.1312668E+00
        -11   -1    0    0    0    0  0.00000000000E+00  0.00000000000E+00  0.45593999997E+02  0.45594000000E+02  0.51100000000E-03 0. -1.
         11   -1    0    0    0    0 -0.00000000000E+00 -0.00000000000E+00 -0.45593999997E+02  0.45594000000E+02  0.51100000000E-03 0.  1.
    9900012    2    1    2    0    0  0.36167896127E+02  0.11334768325E+02  0.21143075050E+02  0.47787270676E+02  0.19999998322E+02 0.  0.
        -12    1    1    2    0    0 -0.36167896127E+02 -0.11334768325E+02 -0.21143075050E+02  0.43400729324E+02  0.00000000000E+00 0.  1.
         11    1    3    3    0    0  0.10432150272E+02 -0.39380164659E+01  0.87064241823E+01  0.14147068788E+02  0.51100000000E-03 0.  1.
        -11    1    3    3    0    0  0.25760016092E+02  0.14402001464E+02  0.10176358583E+02  0.31217853057E+02  0.51100000000E-03 0. -1.
        -12    1    3    3    0    0 -0.24270237201E-01  0.87078332765E+00  0.22602922849E+01  0.24223488315E+01  0.00000000000E+00 0.  1.
</event>
<event>
 7    1  0.2642243E-009  0.4778727E+02  0.7816164E-02  0.1312668E+00
        -11   -1    0    0    0    0  0.00000000000E+00  0.00000000000E+00  0.45593999997E+02  0.45594000000E+02  0.51100000000E-03 0. -1.
         11   -1    0    0    0    0 -0.00000000000E+00 -0.00000000000E+00 -0.45593999997E+02  0.45594000000E+02  0.51100000000E-03 0.  1.
    9900012    2    1    2    0    0  0.35704798766E+02  0.24221431557E+02  0.47024356693E+01  0.47787270711E+02  0.19999998481E+02 0.  0.
        -12    1    1    2    0    0 -0.35704798766E+02 -0.24221431557E+02 -0.47024356693E+01  0.43400729289E+02  0.00000000000E+00 0.  1.
         11    1    3    3    0    0  0.17880408923E+02  0.87457749937E+01  0.94271183182E+01  0.22024263065E+02  0.51100000000E-03 0. -1.
        -11    1    3    3    0    0  0.17851339649E+02  0.15851272907E+02 -0.30745372282E+01  0.24070437459E+02  0.51100000000E-03 0.  1.
         12    1    3    3    0    0 -0.26949806511E-01 -0.37561634411E+00 -0.16501454207E+01  0.16925701875E+01  0.00000000000E+00 0. -1.
</event>
<event>
 7    1  0.2642243E-009  0.4778727E+02  0.7816164E-02  0.1312668E+00
        -11   -1    0    0    0    0  0.00000000000E+00  0.00000000000E+00  0.45593999997E+02  0.45594000000E+02  0.51100000000E-03 0.  1.
         11   -1    0    0    0    0 -0.00000000000E+00 -0.00000000000E+00 -0.45593999997E+02  0.45594000000E+02  0.51100000000E-03 0. -1.
    9900012    2    1    2    0    0  0.66984833091E+01 -0.18874790369E+02 -0.38503192783E+02  0.47787271382E+02  0.20000001537E+02 0.  0.
        -12    1    1    2    0    0 -0.66984833091E+01  0.18874790369E+02  0.38503192783E+02  0.43400728618E+02  0.00000000000E+00 0.  1.
         11    1    3    3    0    0 -0.35394903468E+01 -0.13374684424E+02 -0.15715921821E+02  0.20938012664E+02  0.51100000000E-03 0. -1.
        -11    1    3    3    0    0  0.82536001246E+01  0.97105912284E-01 -0.13656648233E+02  0.15957298825E+02  0.51100000000E-03 0.  1.
        -12    1    3    3    0    0  0.19843735313E+01 -0.55972118579E+01 -0.91306227290E+01  0.10891959893E+02  0.00000000000E+00 0.  1.
</event>
<event>
 7    1  0.2642243E-009  0.4778727E+02  0.7816164E-02  0.1312668E+00
        -11   -1    0    0    0    0  0.00000000000E+00  0.00000000000E+00  0.45593999997E+02  0.45594000000E+02  0.51100000000E-03 0.  1.
         11   -1    0    0    0    0 -0.00000000000E+00 -0.00000000000E+00 -0.45593999997E+02  0.45594000000E+02  0.51100000000E-03 0. -1.
    9900012    2    1    2    0    0 -0.12565467950E+02 -0.27969456286E+02 -0.30715498326E+02  0.47787270661E+02  0.19999998252E+02 0.  0.
        -12    1    1    2    0    0  0.12565467950E+02  0.27969456286E+02  0.30715498326E+02  0.43400729339E+02  0.00000000000E+00 0.  1.
         11    1    3    3    0    0 -0.60994418327E+01 -0.47000136797E+01 -0.17351550695E+02  0.18983404095E+02  0.51100000000E-03 0. -1.
        -11    1    3    3    0    0 -0.50977903646E+01 -0.23176755999E+02 -0.13687007051E+02  0.27394956608E+02  0.51100000000E-03 0.  1.
         12    1    3    3    0    0 -0.13682357530E+01 -0.92686606531E-01  0.32305941954E+00  0.14089099585E+01  0.00000000000E+00 0. -1.
</event>
<event>
 7    1  0.2642243E-009  0.4778729E+02  0.7816164E-02  0.1312668E+00
        -11   -1    0    0    0    0  0.00000000000E+00  0.00000000000E+00  0.45593999997E+02  0.45594000000E+02  0.51100000000E-03 0.  1.
         11   -1    0    0    0    0 -0.00000000000E+00 -0.00000000000E+00 -0.45593999997E+02  0.45594000000E+02  0.51100000000E-03 0. -1.
    9900012    2    1    2    0    0  0.64504479551E+01  0.68671739662E+01 -0.42365730222E+02  0.47787292006E+02  0.20000095573E+02 0.  0.
        -12    1    1    2    0    0 -0.64504479551E+01 -0.68671739662E+01  0.42365730222E+02  0.43400707994E+02  0.00000000000E+00 0.  1.
         11    1    3    3    0    0 -0.32684925402E+01 -0.50841691453E+01 -0.73121438612E+01  0.94867943739E+01  0.51100000000E-03 0. -1.
        -11    1    3    3    0    0  0.83934682396E+01  0.98266281714E+01 -0.29725359085E+02  0.32413113138E+02  0.51100000000E-03 0.  1.
         12    1    3    3    0    0  0.13254722558E+01  0.21247149401E+01 -0.53282272756E+01  0.58873844938E+01  0.00000000000E+00 0. -1.
</event>
<event>
 7    1  0.2642243E-009  0.4778727E+02  0.7816164E-02  0.1312668E+00
        -11   -1    0    0    0    0  0.00000000000E+00  0.00000000000E+00  0.45593999997E+02  0.45594000000E+02  0.51100000000E-03 0.  1.
         11   -1    0    0    0    0 -0.00000000000E+00 -0.00000000000E+00 -0.45593999997E+02  0.45594000000E+02  0.51100000000E-03 0. -1.
    9900012    2    1    2    0    0  0.22780201922E+02 -0.36644276083E+02 -0.46779074233E+01  0.47787269740E+02  0.19999994052E+02 0.  0.
        -12    1    1    2    0    0 -0.22780201922E+02  0.36644276083E+02  0.46779074233E+01  0.43400730260E+02  0.00000000000E+00 0.  1.
         11    1    3    3    0    0  0.65499153711E+01 -0.49667837603E+01  0.50036620530E+01  0.96232513473E+01  0.51100000000E-03 0.  1.
        -11    1    3    3    0    0  0.10722623346E+02 -0.15136782731E+02 -0.92425912667E+01  0.20724920662E+02  0.51100000000E-03 0. -1.
        -12    1    3    3    0    0  0.55076632044E+01 -0.16540709592E+02 -0.43897820972E+00  0.17439097731E+02  0.00000000000E+00 0.  1.
</event>
<event>
 7    1  0.2642243E-009  0.4778727E+02  0.7816164E-02  0.1312668E+00
        -11   -1    0    0    0    0  0.00000000000E+00  0.00000000000E+00  0.45593999997E+02  0.45594000000E+02  0.51100000000E-03 0.  1.
         11   -1    0    0    0    0 -0.00000000000E+00 -0.00000000000E+00 -0.45593999997E+02  0.45594000000E+02  0.51100000000E-03 0. -1.
    9900012    2    1    2    0    0  0.69288945172E+01  0.15878159555E+02 -0.39793186091E+02  0.47787272018E+02  0.20000004438E+02 0.  0.
        -12    1    1    2    0    0 -0.69288945172E+01 -0.15878159555E+02  0.39793186091E+02  0.43400727982E+02  0.00000000000E+00 0.  1.
         11    1    3    3    0    0 -0.67662393920E+01  0.34455375940E+01 -0.87973344885E+01  0.11620964641E+02  0.51100000000E-03 0. -1.
        -11    1    3    3    0    0  0.10292747534E+02  0.84215940107E+01 -0.23629953315E+02  0.27115283355E+02  0.51100000000E-03 0.  1.
         12    1    3    3    0    0  0.34023863754E+01  0.40110279507E+01 -0.73658982877E+01  0.90510240224E+01  0.00000000000E+00 0. -1.
</event>
<event>
 7    1  0.2642243E-009  0.4778727E+02  0.7816164E-02  0.1312668E+00
        -11   -1    0    0    0    0  0.00000000000E+00  0.00000000000E+00  0.45593999997E+02  0.45594000000E+02  0.51100000000E-03 0. -1.
         11   -1    0    0    0    0 -0.00000000000E+00 -0.00000000000E+00 -0.45593999997E+02  0.45594000000E+02  0.51100000000E-03 0.  1.
    9900012    2    1    2    0    0 -0.23302164593E+02  0.17736043529E+02  0.32032251227E+02  0.47787271510E+02  0.20000002123E+02 0.  0.
        -12    1    1    2    0    0  0.23302164593E+02 -0.17736043529E+02 -0.32032251227E+02  0.43400728490E+02  0.00000000000E+00 0.  1.
         11    1    3    3    0    0 -0.13975763851E+02  0.10500872010E+02  0.21758558067E+02  0.27911021794E+02  0.51100000000E-03 0. -1.
        -11    1    3    3    0    0 -0.28426856762E+01  0.74288009510E+01  0.10749350069E+02  0.13372227660E+02  0.51100000000E-03 0.  1.
         12    1    3    3    0    0 -0.64837150655E+01 -0.19362943145E+00 -0.47565690888E+00  0.65040220558E+01  0.00000000000E+00 0. -1.
</event>
<event>
 7    1  0.2642243E-009  0.4778722E+02  0.7816164E-02  0.1312668E+00
        -11   -1    0    0    0    0  0.00000000000E+00  0.00000000000E+00  0.45593999997E+02  0.45594000000E+02  0.51100000000E-03 0.  1.
         11   -1    0    0    0    0 -0.00000000000E+00 -0.00000000000E+00 -0.45593999997E+02  0.45594000000E+02  0.51100000000E-03 0. -1.
    9900012    2    1    2    0    0  0.11552329376E+02 -0.39733547361E+02 -0.13092605228E+02  0.47787223376E+02  0.19999782660E+02 0.  0.
        -12    1    1    2    0    0 -0.11552329376E+02  0.39733547361E+02  0.13092605228E+02  0.43400776624E+02  0.00000000000E+00 0.  1.
         11    1    3    3    0    0 -0.28840140414E+00 -0.24912272788E+02 -0.10310907258E+02  0.26963295785E+02  0.51100000000E-03 0. -1.
        -11    1    3    3    0    0  0.16699470697E-01 -0.39092782186E+01  0.14788153774E+01  0.41796686764E+01  0.51100000000E-03 0.  1.
         12    1    3    3    0    0  0.11824031309E+02 -0.10911996354E+02 -0.42605133475E+01  0.16644258915E+02  0.00000000000E+00 0. -1.
</event>
<event>
 7    1  0.2642243E-009  0.4778727E+02  0.7816164E-02  0.1312668E+00
        -11   -1    0    0    0    0  0.00000000000E+00  0.00000000000E+00  0.45593999997E+02  0.45594000000E+02  0.51100000000E-03 0. -1.
         11   -1    0    0    0    0 -0.00000000000E+00 -0.00000000000E+00 -0.45593999997E+02  0.45594000000E+02  0.51100000000E-03 0.  1.
    9900012    2    1    2    0    0  0.18633608840E+02 -0.19093672401E+02  0.34232202638E+02  0.47787269573E+02  0.19999993290E+02 0.  0.
        -12    1    1    2    0    0 -0.18633608840E+02  0.19093672401E+02 -0.34232202638E+02  0.43400730427E+02  0.00000000000E+00 0.  1.
         11    1    3    3    0    0  0.17944483609E+02 -0.19361271449E+02  0.28421005234E+02  0.38789391113E+02  0.51100000000E-03 0. -1.
        -11    1    3    3    0    0 -0.27351512193E+01 -0.13704528323E+01  0.28846146159E+01  0.42047823846E+01  0.51100000000E-03 0.  1.
         12    1    3    3    0    0  0.34242764507E+01  0.16380518804E+01  0.29265827882E+01  0.47930960756E+01  0.00000000000E+00 0. -1.
</event>
<event>
 7    1  0.2642243E-009  0.4778726E+02  0.7816164E-02  0.1312668E+00
        -11   -1    0    0    0    0  0.00000000000E+00  0.00000000000E+00  0.45593999997E+02  0.45594000000E+02  0.51100000000E-03 0.  1.
         11   -1    0    0    0    0 -0.00000000000E+00 -0.00000000000E+00 -0.45593999997E+02  0.45594000000E+02  0.51100000000E-03 0. -1.
    9900012    2    1    2    0    0 -0.17074404367E+02 -0.19156854022E+02 -0.35001482286E+02  0.47787261495E+02  0.19999956462E+02 0.  0.
        -12    1    1    2    0    0  0.17074404367E+02  0.19156854022E+02  0.35001482286E+02  0.43400738505E+02  0.00000000000E+00 0.  1.
         11    1    3    3    0    0 -0.15527395982E+02 -0.85504222616E+01 -0.15896870664E+02  0.23810087022E+02  0.51100000000E-03 0. -1.
        -11    1    3    3    0    0  0.70315994805E+00 -0.11479170493E+02 -0.12702888164E+02  0.17135610788E+02  0.51100000000E-03 0.  1.
         12    1    3    3    0    0 -0.22501683332E+01  0.87273873236E+00 -0.64017234581E+01  0.68415636851E+01  0.00000000000E+00 0. -1.
</event>
<event>
 7    1  0.2642243E-009  0.4778727E+02  0.7816164E-02  0.1312668E+00
        -11   -1    0    0    0    0  0.00000000000E+00  0.00000000000E+00  0.45593999997E+02  0.45594000000E+02  0.51100000000E-03 0.  1.
         11   -1    0    0    0    0 -0.00000000000E+00 -0.00000000000E+00 -0.45593999997E+02  0.45594000000E+02  0.51100000000E-03 0. -1.
    9900012    2    1    2    0    0 -0.25768882510E+02 -0.17158746957E+02 -0.30416533396E+02  0.47787269513E+02  0.19999993019E+02 0.  0.
        -12    1    1    2    0    0  0.25768882510E+02  0.17158746957E+02  0.30416533396E+02  0.43400730487E+02  0.00000000000E+00 0.  1.
         11    1    3    3    0    0 -0.14221993662E+02 -0.33604588488E+00 -0.12449011919E+02  0.18903860150E+02  0.51100000000E-03 0. -1.
        -11    1    3    3    0    0  0.13755320045E+00 -0.57527330305E+01 -0.17032275000E+01  0.60011534209E+01  0.51100000000E-03 0.  1.
         12    1    3    3    0    0 -0.11684442048E+02 -0.11069968042E+02 -0.16264293978E+02  0.22882255942E+02  0.00000000000E+00 0. -1.
</event>
<event>
 7    1  0.2642243E-009  0.4778727E+02  0.7816164E-02  0.1312668E+00
        -11   -1    0    0    0    0  0.00000000000E+00  0.00000000000E+00  0.45593999997E+02  0.45594000000E+02  0.51100000000E-03 0. -1.
         11   -1    0    0    0    0 -0.00000000000E+00 -0.00000000000E+00 -0.45593999997E+02  0.45594000000E+02  0.51100000000E-03 0.  1.
    9900012    2    1    2    0    0  0.15993688350E+02  0.34493136589E+02  0.20929622278E+02  0.47787266971E+02  0.19999981428E+02 0.  0.
        -12    1    1    2    0    0 -0.15993688350E+02 -0.34493136589E+02 -0.20929622278E+02  0.43400733029E+02  0.00000000000E+00 0.  1.
         11    1    3    3    0    0  0.40427377471E+01  0.17799574777E+02  0.82277483566E+01  0.20021599187E+02  0.51100000000E-03 0. -1.
        -11    1    3    3    0    0  0.45604301691E+01 -0.11709800058E+01  0.14080640907E+00  0.47104717606E+01  0.51100000000E-03 0.  1.
        -12    1    3    3    0    0  0.73905204334E+01  0.17864541818E+02  0.12561067512E+02  0.23055196024E+02  0.00000000000E+00 0.  1.
</event>
<event>
 7    1  0.2642243E-009  0.4778727E+02  0.7816164E-02  0.1312668E+00
        -11   -1    0    0    0    0  0.00000000000E+00  0.00000000000E+00  0.45593999997E+02  0.45594000000E+02  0.51100000000E-03 0.  1.
         11   -1    0    0    0    0 -0.00000000000E+00 -0.00000000000E+00 -0.45593999997E+02  0.45594000000E+02  0.51100000000E-03 0. -1.
    9900012    2    1    2    0    0 -0.16562680622E+02  0.37050016485E+02 -0.15381712588E+02  0.47787271975E+02  0.20000004245E+02 0.  0.
        -12    1    1    2    0    0  0.16562680622E+02 -0.37050016485E+02  0.15381712588E+02  0.43400728025E+02  0.00000000000E+00 0.  1.
         11    1    3    3    0    0 -0.14024166531E+02  0.15630552315E+02 -0.15483073683E+02  0.26090553530E+02  0.51100000000E-03 0. -1.
        -11    1    3    3    0    0 -0.23578845117E+01  0.12049699633E+02 -0.64788733761E+00  0.12295309629E+02  0.51100000000E-03 0.  1.
         12    1    3    3    0    0 -0.18062957985E+00  0.93697645369E+01  0.74924843262E+00  0.94014088165E+01  0.00000000000E+00 0. -1.
</event>
<event>
 7    1  0.2642243E-009  0.4778727E+02  0.7816164E-02  0.1312668E+00
        -11   -1    0    0    0    0  0.00000000000E+00  0.00000000000E+00  0.45593999997E+02  0.45594000000E+02  0.51100000000E-03 0.  1.
         11   -1    0    0    0    0 -0.00000000000E+00 -0.00000000000E+00 -0.45593999997E+02  0.45594000000E+02  0.51100000000E-03 0. -1.
    9900012    2    1    2    0    0  0.34640210937E+02 -0.51545732530E+01 -0.25634143462E+02  0.47787272469E+02  0.20000006494E+02 0.  0.
        -12    1    1    2    0    0 -0.34640210937E+02  0.51545732530E+01  0.25634143462E+02  0.43400727531E+02  0.00000000000E+00 0.  1.
         11    1    3    3    0    0  0.70096943231E+01 -0.15906371999E+01 -0.74068285255E+01  0.10321194227E+02  0.51100000000E-03 0. -1.
        -11    1    3    3    0    0  0.13906290167E+02 -0.10199492695E+02 -0.73905512794E+01  0.18762590597E+02  0.51100000000E-03 0.  1.
        -12    1    3    3    0    0  0.13724226447E+02  0.66355566415E+01 -0.10836763657E+02  0.18703487645E+02  0.00000000000E+00 0.  1.
</event>
<event>
 7    1  0.2642243E-009  0.4778727E+02  0.7816164E-02  0.1312668E+00
        -11   -1    0    0    0    0  0.00000000000E+00  0.00000000000E+00  0.45593999997E+02  0.45594000000E+02  0.51100000000E-03 0.  1.
         11   -1    0    0    0    0 -0.00000000000E+00 -0.00000000000E+00 -0.45593999997E+02  0.45594000000E+02  0.51100000000E-03 0. -1.
    9900012    2    1    2    0    0 -0.47131189344E+01  0.15395513721E+02 -0.40303696574E+02  0.47787270854E+02  0.19999999133E+02 0.  0.
        -12    1    1    2    0    0  0.47131189344E+01 -0.15395513721E+02  0.40303696574E+02  0.43400729146E+02  0.00000000000E+00 0.  1.
         11    1    3    3    0    0 -0.91460189964E+01  0.10504806691E+02 -0.23429440752E+02  0.27256913275E+02  0.51100000000E-03 0. -1.
        -11    1    3    3    0    0 -0.17842677861E+01  0.49629385380E+01 -0.96649253985E+01  0.11010229502E+02  0.51100000000E-03 0.  1.
         12    1    3    3    0    0  0.62171678482E+01 -0.72231507711E-01 -0.72093304241E+01  0.95201280772E+01  0.00000000000E+00 0. -1.
</event>
<event>
 7    1  0.2642243E-009  0.4778727E+02  0.7816164E-02  0.1312668E+00
        -11   -1    0    0    0    0  0.00000000000E+00  0.00000000000E+00  0.45593999997E+02  0.45594000000E+02  0.51100000000E-03 0.  1.
         11   -1    0    0    0    0 -0.00000000000E+00 -0.00000000000E+00 -0.45593999997E+02  0.45594000000E+02  0.51100000000E-03 0. -1.
    9900012    2    1    2    0    0  0.33978301653E+02  0.17737869277E+02  0.20358444484E+02  0.47787271302E+02  0.20000001176E+02 0.  0.
        -12    1    1    2    0    0 -0.33978301653E+02 -0.17737869277E+02 -0.20358444484E+02  0.43400728698E+02  0.00000000000E+00 0.  1.
         11    1    3    3    0    0  0.10413241552E+02  0.13309434329E+02  0.13016234761E+02  0.21330705788E+02  0.51100000000E-03 0. -1.
        -11    1    3    3    0    0  0.25475369908E+01 -0.10820557390E+01 -0.13189661212E+01  0.30660171610E+01  0.51100000000E-03 0.  1.
         12    1    3    3    0    0  0.21017523110E+02  0.55104906866E+01  0.86611758440E+01  0.23390548354E+02  0.00000000000E+00 0. -1.
</event>
<event>
 7    1  0.2642243E-009  0.4778727E+02  0.7816164E-02  0.1312668E+00
        -11   -1    0    0    0    0  0.00000000000E+00  0.00000000000E+00  0.45593999997E+02  0.45594000000E+02  0.51100000000E-03 0.  1.
         11   -1    0    0    0    0 -0.00000000000E+00 -0.00000000000E+00 -0.45593999997E+02  0.45594000000E+02  0.51100000000E-03 0. -1.
    9900012    2    1    2    0    0 -0.96198024792E+01 -0.42300890338E+02 -0.13103582032E+01  0.47787274640E+02  0.20000016393E+02 0.  0.
        -12    1    1    2    0    0  0.96198024792E+01  0.42300890338E+02  0.13103582032E+01  0.43400725360E+02  0.00000000000E+00 0.  1.
         11    1    3    3    0    0 -0.21609529750E+01 -0.10853514105E+02  0.20092504390E+01  0.11247469661E+02  0.51100000000E-03 0. -1.
        -11    1    3    3    0    0 -0.10342081917E+01  0.10043692837E+01 -0.31428680565E+01  0.34577397420E+01  0.51100000000E-03 0.  1.
        -12    1    3    3    0    0 -0.64246413125E+01 -0.32451745517E+02 -0.17674058568E+00  0.33082065237E+02  0.00000000000E+00 0.  1.
</event>
<event>
 7    1  0.2642243E-009  0.4778727E+02  0.7816164E-02  0.1312668E+00
        -11   -1    0    0    0    0  0.00000000000E+00  0.00000000000E+00  0.45593999997E+02  0.45594000000E+02  0.51100000000E-03 0.  1.
         11   -1    0    0    0    0 -0.00000000000E+00 -0.00000000000E+00 -0.45593999997E+02  0.45594000000E+02  0.51100000000E-03 0. -1.
    9900012    2    1    2    0    0 -0.16021173729E+02  0.39838333637E+02 -0.63128913554E+01  0.47787269223E+02  0.19999991697E+02 0.  0.
        -12    1    1    2    0    0  0.16021173729E+02 -0.39838333637E+02  0.63128913554E+01  0.43400730777E+02  0.00000000000E+00 0.  1.
         11    1    3    3    0    0  0.13113184881E+01  0.86095864593E+01  0.16407810870E+01  0.88620933201E+01  0.51100000000E-03 0. -1.
        -11    1    3    3    0    0 -0.19134803088E+02  0.24584513823E+02 -0.56219716278E+01  0.31656682934E+02  0.51100000000E-03 0.  1.
        -12    1    3    3    0    0  0.18023108708E+01  0.66442333557E+01 -0.23317008147E+01  0.72684929696E+01  0.00000000000E+00 0.  1.
</event>
<event>
 7    1  0.2642243E-009  0.4778727E+02  0.7816164E-02  0.1312668E+00
        -11   -1    0    0    0    0  0.00000000000E+00  0.00000000000E+00  0.45593999997E+02  0.45594000000E+02  0.51100000000E-03 0.  1.
         11   -1    0    0    0    0 -0.00000000000E+00 -0.00000000000E+00 -0.45593999997E+02  0.45594000000E+02  0.51100000000E-03 0. -1.
    9900012    2    1    2    0    0 -0.25114508461E+02 -0.10636586960E+00 -0.35395950466E+02  0.47787272376E+02  0.20000006070E+02 0.  0.
        -12    1    1    2    0    0  0.25114508461E+02  0.10636586960E+00  0.35395950466E+02  0.43400727624E+02  0.00000000000E+00 0.  1.
         11    1    3    3    0    0 -0.10073936265E+02 -0.62709637036E+01 -0.21082981254E+02  0.24193000568E+02  0.51100000000E-03 0. -1.
        -11    1    3    3    0    0 -0.75647064935E-01  0.30080908394E+01 -0.63350457093E+00  0.30750058990E+01  0.51100000000E-03 0.  1.
         12    1    3    3    0    0 -0.14964925131E+02  0.31565069947E+01 -0.13679464641E+02  0.20519265909E+02  0.00000000000E+00 0. -1.
</event>
<event>
 7    1  0.2642243E-009  0.4778728E+02  0.7816164E-02  0.1312668E+00
        -11   -1    0    0    0    0  0.00000000000E+00  0.00000000000E+00  0.45593999997E+02  0.45594000000E+02  0.51100000000E-03 0.  1.
         11   -1    0    0    0    0 -0.00000000000E+00 -0.00000000000E+00 -0.45593999997E+02  0.45594000000E+02  0.51100000000E-03 0. -1.
    9900012    2    1    2    0    0  0.16708517382E+02  0.13374936828E+02 -0.37756579941E+02  0.47787276307E+02  0.20000023993E+02 0.  0.
        -12    1    1    2    0    0 -0.16708517382E+02 -0.13374936828E+02  0.37756579941E+02  0.43400723693E+02  0.00000000000E+00 0.  1.
         11    1    3    3    0    0  0.13667361318E+02  0.79174911690E+01 -0.20144275032E+02  0.25598344646E+02  0.51100000000E-03 0. -1.
        -11    1    3    3    0    0 -0.29735974860E+01 -0.12442666208E+01 -0.11458624886E+01  0.34210353018E+01  0.51100000000E-03 0.  1.
        -12    1    3    3    0    0  0.60147535499E+01  0.67017122796E+01 -0.16466442421E+02  0.18767896359E+02  0.00000000000E+00 0.  1.
</event>
<event>
 7    1  0.2642243E-009  0.4778727E+02  0.7816164E-02  0.1312668E+00
        -11   -1    0    0    0    0  0.00000000000E+00  0.00000000000E+00  0.45593999997E+02  0.45594000000E+02  0.51100000000E-03 0. -1.
         11   -1    0    0    0    0 -0.00000000000E+00 -0.00000000000E+00 -0.45593999997E+02  0.45594000000E+02  0.51100000000E-03 0.  1.
    9900012    2    1    2    0    0 -0.40485871452E+02 -0.11524511980E+01 -0.15594523420E+02  0.47787273143E+02  0.20000009570E+02 0.  0.
        -12    1    1    2    0    0  0.40485871452E+02  0.11524511980E+01  0.15594523420E+02  0.43400726857E+02  0.00000000000E+00 0.  1.
         11    1    3    3    0    0 -0.23299235512E+02 -0.71900646320E+00 -0.17363061022E+02  0.29066255935E+02  0.51100000000E-03 0. -1.
        -11    1    3    3    0    0 -0.84669256008E+01 -0.32633224474E+01  0.27988669914E+01  0.94958811714E+01  0.51100000000E-03 0.  1.
        -12    1    3    3    0    0 -0.87197103386E+01  0.28298777126E+01 -0.10303293900E+01  0.92251360374E+01  0.00000000000E+00 0.  1.
</event>
<event>
 7    1  0.2642243E-009  0.4778727E+02  0.7816164E-02  0.1312668E+00
        -11   -1    0    0    0    0  0.00000000000E+00  0.00000000000E+00  0.45593999997E+02  0.45594000000E+02  0.51100000000E-03 0.  1.
         11   -1    0    0    0    0 -0.00000000000E+00 -0.00000000000E+00 -0.45593999997E+02  0.45594000000E+02  0.51100000000E-03 0. -1.
    9900012    2    1    2    0    0 -0.29604100054E+02  0.31731075964E+02 -0.59957658004E+00  0.47787269431E+02  0.19999992645E+02 0.  0.
        -12    1    1    2    0    0  0.29604100054E+02 -0.31731075964E+02  0.59957658004E+00  0.43400730569E+02  0.00000000000E+00 0.  1.
         11    1    3    3    0    0 -0.55603669060E+01  0.22569693063E+01  0.13512938957E+01  0.61512263844E+01  0.51100000000E-03 0. -1.
        -11    1    3    3    0    0 -0.16240485086E+02  0.22160689844E+02  0.62289542133E+01  0.28171783775E+02  0.51100000000E-03 0.  1.
        -12    1    3    3    0    0 -0.78032480618E+01  0.73134168139E+01 -0.81798246890E+01  0.13464259272E+02  0.00000000000E+00 0.  1.
</event>
<event>
 7    1  0.2642243E-009  0.4778729E+02  0.7816164E-02  0.1312668E+00
        -11   -1    0    0    0    0  0.00000000000E+00  0.00000000000E+00  0.45593999997E+02  0.45594000000E+02  0.51100000000E-03 0. -1.
         11   -1    0    0    0    0 -0.00000000000E+00 -0.00000000000E+00 -0.45593999997E+02  0.45594000000E+02  0.51100000000E-03 0.  1.
    9900012    2    1    2    0    0  0.30834112666E+02  0.25126557752E+02  0.17364780923E+02  0.47787285434E+02  0.20000065607E+02 0.  0.
        -12    1    1    2    0    0 -0.30834112666E+02 -0.25126557752E+02 -0.17364780923E+02  0.43400714566E+02  0.00000000000E+00 0.  1.
         11    1    3    3    0    0  0.13894905598E+02  0.19971900925E+02  0.15552563686E+02  0.28876070813E+02  0.51100000000E-03 0. -1.
        -11    1    3    3    0    0  0.98650464589E+01 -0.28478164107E+00  0.14967279329E+01  0.99820056594E+01  0.51100000000E-03 0.  1.
         12    1    3    3    0    0  0.70741606097E+01  0.54394384674E+01  0.31548930373E+00  0.89292089612E+01  0.00000000000E+00 0. -1.
</event>
<event>
 7    1  0.2642243E-009  0.4778726E+02  0.7816164E-02  0.1312668E+00
        -11   -1    0    0    0    0  0.00000000000E+00  0.00000000000E+00  0.45593999997E+02  0.45594000000E+02  0.51100000000E-03 0. -1.
         11   -1    0    0    0    0 -0.00000000000E+00 -0.00000000000E+00 -0.45593999997E+02  0.45594000000E+02  0.51100000000E-03 0.  1.
    9900012    2    1    2    0    0 -0.40083557563E+02 -0.15605267059E+02  0.57800265049E+01  0.47787255152E+02  0.19999927542E+02 0.  0.
        -12    1    1    2    0    0  0.40083557563E+02  0.15605267059E+02 -0.57800265049E+01  0.43400744848E+02  0.00000000000E+00 0.  1.
         11    1    3    3    0    0 -0.11660848927E+02 -0.47639622092E+01 -0.25292424629E+01  0.12847871470E+02  0.51100000000E-03 0. -1.
        -11    1    3    3    0    0 -0.23767319872E+02 -0.14250269584E+02  0.89795044794E+01  0.29130519702E+02  0.51100000000E-03 0.  1.
        -12    1    3    3    0    0 -0.46553887644E+01  0.34089647338E+01 -0.67023551164E+00  0.58088639806E+01  0.00000000000E+00 0.  1.
</event>
<event>
 7    1  0.5167192E-009  0.4778728E+02  0.7816164E-02  0.1312668E+00
        -11   -1    0    0    0    0  0.00000000000E+00  0.00000000000E+00  0.45593999997E+02  0.45594000000E+02  0.51100000000E-03 0.  1.
         11   -1    0    0    0    0 -0.00000000000E+00 -0.00000000000E+00 -0.45593999997E+02  0.45594000000E+02  0.51100000000E-03 0. -1.
    9900012    2    1    2    0    0 -0.34156312610E+02  0.18806401672E+02 -0.19060127822E+02  0.47787275264E+02  0.20000019240E+02 0.  0.
        -12    1    1    2    0    0  0.34156312610E+02 -0.18806401672E+02  0.19060127822E+02  0.43400724736E+02  0.00000000000E+00 0.  1.
         11    1    3    3    0    0 -0.89015726469E+01  0.78680430392E+01 -0.18934845515E+01  0.12030352483E+02  0.51100000000E-03 0. -1.
        -11    1    3    3    0    0 -0.21996074121E+02  0.34803281306E+01 -0.84173370253E+01  0.23807383802E+02  0.51100000000E-03 0.  1.
        -12    1    3    3    0    0 -0.32586658423E+01  0.74580305026E+01 -0.87493062452E+01  0.11949538980E+02  0.00000000000E+00 0.  1.
</event>
<event>
 7    1  0.2760317E-009  0.4778727E+02  0.7816164E-02  0.1312668E+00
        -11   -1    0    0    0    0  0.00000000000E+00  0.00000000000E+00  0.45593999997E+02  0.45594000000E+02  0.51100000000E-03 0. -1.
         11   -1    0    0    0    0 -0.00000000000E+00 -0.00000000000E+00 -0.45593999997E+02  0.45594000000E+02  0.51100000000E-03 0.  1.
    9900012    2    1    2    0    0  0.22183086538E+02  0.32516458191E+02  0.18281531842E+02  0.47787265120E+02  0.19999972988E+02 0.  0.
        -12    1    1    2    0    0 -0.22183086538E+02 -0.32516458191E+02 -0.18281531842E+02  0.43400734880E+02  0.00000000000E+00 0.  1.
         11    1    3    3    0    0  0.13777895616E+02  0.19506532156E+02  0.55866407845E+01  0.24526429823E+02  0.51100000000E-03 0. -1.
        -11    1    3    3    0    0  0.37532038143E+01 -0.95052736397E+00  0.58897193300E+01  0.70483214448E+01  0.51100000000E-03 0.  1.
        -12    1    3    3    0    0  0.46519871075E+01  0.13960453399E+02  0.68051717276E+01  0.16212513852E+02  0.00000000000E+00 0.  1.
</event>
<event>
 7    1  0.2642243E-009  0.4778726E+02  0.7816164E-02  0.1312668E+00
        -11   -1    0    0    0    0  0.00000000000E+00  0.00000000000E+00  0.45593999997E+02  0.45594000000E+02  0.51100000000E-03 0.  1.
         11   -1    0    0    0    0 -0.00000000000E+00 -0.00000000000E+00 -0.45593999997E+02  0.45594000000E+02  0.51100000000E-03 0. -1.
    9900012    2    1    2    0    0 -0.38051021141E+02  0.20348570546E+02  0.46561016639E+01  0.47787264801E+02  0.19999971532E+02 0.  0.
        -12    1    1    2    0    0  0.38051021141E+02 -0.20348570546E+02 -0.46561016639E+01  0.43400735199E+02  0.00000000000E+00 0.  1.
         11    1    3    3    0    0 -0.16498163828E+02  0.64272622170E+01 -0.17928740573E+01  0.17796446469E+02  0.51100000000E-03 0. -1.
        -11    1    3    3    0    0  0.11421496571E+01  0.27087315346E+01 -0.17023711815E+01  0.33970281521E+01  0.51100000000E-03 0.  1.
        -12    1    3    3    0    0 -0.22695006970E+02  0.11212576795E+02  0.81513469027E+01  0.26593790179E+02  0.00000000000E+00 0.  1.
</event>
<event>
 7    1  0.2642243E-009  0.4778727E+02  0.7816164E-02  0.1312668E+00
        -11   -1    0    0    0    0  0.00000000000E+00  0.00000000000E+00  0.45593999997E+02  0.45594000000E+02  0.51100000000E-03 0. -1.
         11   -1    0    0    0    0 -0.00000000000E+00 -0.00000000000E+00 -0.45593999997E+02  0.45594000000E+02  0.51100000000E-03 0.  1.
    9900012    2    1    2    0    0 -0.43731340070E+01 -0.12920502344E+02  0.41201452223E+02  0.47787270200E+02  0.19999996151E+02 0.  0.
        -12    1    1    2    0    0  0.43731340070E+01  0.12920502344E+02 -0.41201452223E+02  0.43400729800E+02  0.00000000000E+00 0.  1.
         11    1    3    3    0    0 -0.83876704436E+01 -0.54085456941E+01  0.12549422406E+02  0.16034131874E+02  0.51100000000E-03 0. -1.
        -11    1    3    3    0    0  0.36690804416E+01 -0.62252684973E+01  0.29365748729E+02  0.30241747929E+02  0.51100000000E-03 0.  1.
        -12    1    3    3    0    0  0.34545599494E+00 -0.12866881528E+01 -0.71371891130E+00  0.15113903967E+01  0.00000000000E+00 0.  1.
</event>
<event>
 7    1  0.2642243E-009  0.4778727E+02  0.7816164E-02  0.1312668E+00
        -11   -1    0    0    0    0  0.00000000000E+00  0.00000000000E+00  0.45593999997E+02  0.45594000000E+02  0.51100000000E-03 0.  1.
         11   -1    0    0    0    0 -0.00000000000E+00 -0.00000000000E+00 -0.45593999997E+02  0.45594000000E+02  0.51100000000E-03 0. -1.
    9900012    2    1    2    0    0 -0.96081764744E+01 -0.42304680654E+02  0.12728735391E+01  0.47787271119E+02  0.20000000338E+02 0.  0.
        -12    1    1    2    0    0  0.96081764744E+01  0.42304680654E+02 -0.12728735391E+01  0.43400728881E+02  0.00000000000E+00 0.  1.
         11    1    3    3    0    0 -0.12252853364E+01  0.13642728855E+01  0.17098447923E+01  0.25072164120E+01  0.51100000000E-03 0.  1.
        -11    1    3    3    0    0 -0.76335109779E+01 -0.43835932757E+02 -0.57843945090E+00  0.44499371714E+02  0.51100000000E-03 0. -1.
         12    1    3    3    0    0 -0.74938016014E+00  0.16697921745E+00  0.14146819768E+00  0.78068299227E+00  0.00000000000E+00 0. -1.
</event>
<event>
 7    1  0.2642243E-009  0.4778727E+02  0.7816164E-02  0.1312668E+00
        -11   -1    0    0    0    0  0.00000000000E+00  0.00000000000E+00  0.45593999997E+02  0.45594000000E+02  0.51100000000E-03 0. -1.
         11   -1    0    0    0    0 -0.00000000000E+00 -0.00000000000E+00 -0.45593999997E+02  0.45594000000E+02  0.51100000000E-03 0.  1.
    9900012    2    1    2    0    0 -0.11122968622E+02 -0.28286194610E+02  0.30980545412E+02  0.47787269240E+02  0.19999991773E+02 0.  0.
        -12    1    1    2    0    0  0.11122968622E+02  0.28286194610E+02 -0.30980545412E+02  0.43400730760E+02  0.00000000000E+00 0.  1.
         11    1    3    3    0    0  0.26141980863E+01 -0.12785705704E+01  0.92738091083E+01  0.97196867221E+01  0.51100000000E-03 0. -1.
        -11    1    3    3    0    0 -0.68556405319E+01 -0.20937846885E+02  0.14189760161E+02  0.26205772894E+02  0.51100000000E-03 0.  1.
        -12    1    3    3    0    0 -0.68815261765E+01 -0.60697771544E+01  0.75169761422E+01  0.11861809623E+02  0.00000000000E+00 0.  1.
</event>
<event>
 7    1  0.2642243E-009  0.4778727E+02  0.7816164E-02  0.1312668E+00
        -11   -1    0    0    0    0  0.00000000000E+00  0.00000000000E+00  0.45593999997E+02  0.45594000000E+02  0.51100000000E-03 0.  1.
         11   -1    0    0    0    0 -0.00000000000E+00 -0.00000000000E+00 -0.45593999997E+02  0.45594000000E+02  0.51100000000E-03 0. -1.
    9900012    2    1    2    0    0 -0.25629382008E+02  0.26668728550E+02 -0.22705440703E+02  0.47787270258E+02  0.19999996416E+02 0.  0.
        -12    1    1    2    0    0  0.25629382008E+02 -0.26668728550E+02  0.22705440703E+02  0.43400729742E+02  0.00000000000E+00 0.  1.
         11    1    3    3    0    0 -0.41220983930E+01 -0.20066232867E+01 -0.11603434244E+01  0.47291256380E+01  0.51100000000E-03 0.  1.
        -11    1    3    3    0    0 -0.76688887122E+01  0.18228715489E+02 -0.94534735420E+01  0.21919536599E+02  0.51100000000E-03 0. -1.
        -12    1    3    3    0    0 -0.13838394903E+02  0.10446636348E+02 -0.12091623737E+02  0.21138608021E+02  0.00000000000E+00 0.  1.
</event>
<event>
 7    1  0.2642243E-009  0.4778727E+02  0.7816164E-02  0.1312668E+00
        -11   -1    0    0    0    0  0.00000000000E+00  0.00000000000E+00  0.45593999997E+02  0.45594000000E+02  0.51100000000E-03 0.  1.
         11   -1    0    0    0    0 -0.00000000000E+00 -0.00000000000E+00 -0.45593999997E+02  0.45594000000E+02  0.51100000000E-03 0. -1.
    9900012    2    1    2    0    0 -0.20833349107E+02  0.26286739045E+02 -0.27542735566E+02  0.47787269970E+02  0.19999995103E+02 0.  0.
        -12    1    1    2    0    0  0.20833349107E+02 -0.26286739045E+02  0.27542735566E+02  0.43400730030E+02  0.00000000000E+00 0.  1.
         11    1    3    3    0    0 -0.11424545256E+02  0.18436637948E+02 -0.16507891506E+02  0.27256931877E+02  0.51100000000E-03 0. -1.
        -11    1    3    3    0    0 -0.49171614230E+01  0.10766709012E+01  0.17939352135E+01  0.53437721229E+01  0.51100000000E-03 0.  1.
        -12    1    3    3    0    0 -0.44916424283E+01  0.67734301965E+01 -0.12828779274E+02  0.15186565971E+02  0.00000000000E+00 0.  1.
</event>
<event>
 7    1  0.2642243E-009  0.4778727E+02  0.7816164E-02  0.1312668E+00
        -11   -1    0    0    0    0  0.00000000000E+00  0.00000000000E+00  0.45593999997E+02  0.45594000000E+02  0.51100000000E-03 0.  1.
         11   -1    0    0    0    0 -0.00000000000E+00 -0.00000000000E+00 -0.45593999997E+02  0.45594000000E+02  0.51100000000E-03 0. -1.
    9900012    2    1    2    0    0 -0.40011352442E+02 -0.16758398202E+02  0.13679244981E+01  0.47787268993E+02  0.19999990644E+02 0.  0.
        -12    1    1    2    0    0  0.40011352442E+02  0.16758398202E+02 -0.13679244981E+01  0.43400731007E+02  0.00000000000E+00 0.  1.
         11    1    3    3    0    0 -0.19336187319E+02 -0.14755889565E+02 -0.47757104080E+01  0.24787735416E+02  0.51100000000E-03 0. -1.
        -11    1    3    3    0    0 -0.98588740099E+01  0.28112277241E+01  0.37818517949E+01  0.10927158886E+02  0.51100000000E-03 0.  1.
         12    1    3    3    0    0 -0.10816291114E+02 -0.48137363603E+01  0.23617831112E+01  0.12072374690E+02  0.00000000000E+00 0. -1.
</event>
<event>
 7    1  0.2642243E-009  0.4778727E+02  0.7816164E-02  0.1312668E+00
        -11   -1    0    0    0    0  0.00000000000E+00  0.00000000000E+00  0.45593999997E+02  0.45594000000E+02  0.51100000000E-03 0.  1.
         11   -1    0    0    0    0 -0.00000000000E+00 -0.00000000000E+00 -0.45593999997E+02  0.45594000000E+02  0.51100000000E-03 0. -1.
    9900012    2    1    2    0    0  0.39068553684E+02  0.13995626470E+02 -0.12704091750E+02  0.47787269656E+02  0.19999993668E+02 0.  0.
        -12    1    1    2    0    0 -0.39068553684E+02 -0.13995626470E+02  0.12704091750E+02  0.43400730344E+02  0.00000000000E+00 0.  1.
         11    1    3    3    0    0  0.23287692243E+02  0.15353924238E+02 -0.93894914900E+01  0.29431652182E+02  0.51100000000E-03 0. -1.
        -11    1    3    3    0    0  0.16369974575E+02 -0.25202217827E+01 -0.37499917646E+01  0.16982050051E+02  0.51100000000E-03 0.  1.
         12    1    3    3    0    0 -0.58911313403E+00  0.11619240152E+01  0.43539150473E+00  0.13735674225E+01  0.00000000000E+00 0. -1.
</event>
<event>
 7    1  0.2642243E-009  0.4778727E+02  0.7816164E-02  0.1312668E+00
        -11   -1    0    0    0    0  0.00000000000E+00  0.00000000000E+00  0.45593999997E+02  0.45594000000E+02  0.51100000000E-03 0.  1.
         11   -1    0    0    0    0 -0.00000000000E+00 -0.00000000000E+00 -0.45593999997E+02  0.45594000000E+02  0.51100000000E-03 0. -1.
    9900012    2    1    2    0    0  0.28593770434E+01 -0.12329788681E+01 -0.43288879001E+02  0.47787270523E+02  0.19999997622E+02 0.  0.
        -12    1    1    2    0    0 -0.28593770434E+01  0.12329788681E+01  0.43288879001E+02  0.43400729477E+02  0.00000000000E+00 0.  1.
         11    1    3    3    0    0  0.86697606162E+01 -0.48817832473E+01 -0.16318758128E+02  0.19112781689E+02  0.51100000000E-03 0. -1.
        -11    1    3    3    0    0 -0.30145729852E+01  0.53254656126E+01 -0.20985593808E+02  0.21859629046E+02  0.51100000000E-03 0.  1.
         12    1    3    3    0    0 -0.27958105875E+01 -0.16766612333E+01 -0.59845270653E+01  0.68148597879E+01  0.00000000000E+00 0. -1.
</event>
<event>
 7    1  0.2642243E-009  0.4778727E+02  0.7816164E-02  0.1312668E+00
        -11   -1    0    0    0    0  0.00000000000E+00  0.00000000000E+00  0.45593999997E+02  0.45594000000E+02  0.51100000000E-03 0. -1.
         11   -1    0    0    0    0 -0.00000000000E+00 -0.00000000000E+00 -0.45593999997E+02  0.45594000000E+02  0.51100000000E-03 0.  1.
    9900012    2    1    2    0    0  0.25066280235E+02 -0.22669054087E+02 -0.27229016054E+02  0.47787265752E+02  0.19999975869E+02 0.  0.
        -12    1    1    2    0    0 -0.25066280235E+02  0.22669054087E+02  0.27229016054E+02  0.43400734248E+02  0.00000000000E+00 0.  1.
         11    1    3    3    0    0  0.12990195315E+02 -0.14130869462E+02 -0.21079855852E+02  0.28509418953E+02  0.51100000000E-03 0. -1.
        -11    1    3    3    0    0  0.35606780962E+01  0.23736046235E+01 -0.25301488529E+01  0.49713258687E+01  0.51100000000E-03 0.  1.
         12    1    3    3    0    0  0.85154068241E+01 -0.10911789248E+02 -0.36190113495E+01  0.14306520930E+02  0.00000000000E+00 0. -1.
</event>
<event>
 7    1  0.2642243E-009  0.4778727E+02  0.7816164E-02  0.1312668E+00
        -11   -1    0    0    0    0  0.00000000000E+00  0.00000000000E+00  0.45593999997E+02  0.45594000000E+02  0.51100000000E-03 0. -1.
         11   -1    0    0    0    0 -0.00000000000E+00 -0.00000000000E+00 -0.45593999997E+02  0.45594000000E+02  0.51100000000E-03 0.  1.
    9900012    2    1    2    0    0  0.99611817990E+01  0.35538522880E+02  0.22834436885E+02  0.47787271214E+02  0.20000000773E+02 0.  0.
        -12    1    1    2    0    0 -0.99611817990E+01 -0.35538522880E+02 -0.22834436885E+02  0.43400728786E+02  0.00000000000E+00 0.  1.
         11    1    3    3    0    0  0.84859530624E+01  0.13033504108E+02  0.18452998434E+02  0.24132898296E+02  0.51100000000E-03 0. -1.
        -11    1    3    3    0    0  0.32960109171E+01  0.10932467979E+02  0.10053569527E+01  0.11462691087E+02  0.51100000000E-03 0.  1.
         12    1    3    3    0    0 -0.18207821805E+01  0.11572550793E+02  0.33760814984E+01  0.12191681832E+02  0.00000000000E+00 0. -1.
</event>
<event>
 7    1  0.2642243E-009  0.4778727E+02  0.7816164E-02  0.1312668E+00
        -11   -1    0    0    0    0  0.00000000000E+00  0.00000000000E+00  0.45593999997E+02  0.45594000000E+02  0.51100000000E-03 0.  1.
         11   -1    0    0    0    0 -0.00000000000E+00 -0.00000000000E+00 -0.45593999997E+02  0.45594000000E+02  0.51100000000E-03 0. -1.
    9900012    2    1    2    0    0 -0.26882033978E+02  0.94481232319E-01 -0.34073017127E+02  0.47787272199E+02  0.20000005264E+02 0.  0.
        -12    1    1    2    0    0  0.26882033978E+02 -0.94481232319E-01  0.34073017127E+02  0.43400727801E+02  0.00000000000E+00 0.  1.
         11    1    3    3    0    0 -0.52367695529E+01 -0.42525956757E+01 -0.58918149964E+01  0.89566628576E+01  0.51100000000E-03 0. -1.
        -11    1    3    3    0    0 -0.93815207832E+01  0.34601640334E+01 -0.24237440724E+01  0.10288838755E+02  0.51100000000E-03 0.  1.
        -12    1    3    3    0    0 -0.12263743642E+02  0.88691287462E+00 -0.25757458058E+02  0.28541770586E+02  0.00000000000E+00 0.  1.
</event>
<event>
 7    1  0.2642243E-009  0.4778727E+02  0.7816164E-02  0.1312668E+00
        -11   -1    0    0    0    0  0.00000000000E+00  0.00000000000E+00  0.45593999997E+02  0.45594000000E+02  0.51100000000E-03 0.  1.
         11   -1    0    0    0    0 -0.00000000000E+00 -0.00000000000E+00 -0.45593999997E+02  0.45594000000E+02  0.51100000000E-03 0. -1.
    9900012    2    1    2    0    0 -0.14554991193E+02  0.28014914072E+02 -0.29781539596E+02  0.47787270977E+02  0.19999999691E+02 0.  0.
        -12    1    1    2    0    0  0.14554991193E+02 -0.28014914072E+02  0.29781539596E+02  0.43400729023E+02  0.00000000000E+00 0.  1.
         11    1    3    3    0    0 -0.17690027884E+01  0.69953155506E+01 -0.39642166473E+01  0.82327895883E+01  0.51100000000E-03 0. -1.
        -11    1    3    3    0    0  0.29846119271E+01  0.97293766629E+01 -0.12034453299E+02  0.15760607382E+02  0.51100000000E-03 0.  1.
        -12    1    3    3    0    0 -0.15770600331E+02  0.11290221858E+02 -0.13782869650E+02  0.23793874006E+02  0.00000000000E+00 0.  1.
</event>
<event>
 7    1  0.2642243E-009  0.4778727E+02  0.7816164E-02  0.1312668E+00
        -11   -1    0    0    0    0  0.00000000000E+00  0.00000000000E+00  0.45593999997E+02  0.45594000000E+02  0.51100000000E-03 0. -1.
         11   -1    0    0    0    0 -0.00000000000E+00 -0.00000000000E+00 -0.45593999997E+02  0.45594000000E+02  0.51100000000E-03 0.  1.
    9900012    2    1    2    0    0  0.39619890207E+02 -0.81765548557E+00  0.17697998286E+02  0.47787269547E+02  0.19999993173E+02 0.  0.
        -12    1    1    2    0    0 -0.39619890207E+02  0.81765548557E+00 -0.17697998286E+02  0.43400730453E+02  0.00000000000E+00 0.  1.
         11    1    3    3    0    0  0.16092833961E+02 -0.73227287452E+01  0.12553986430E+02  0.21684193245E+02  0.51100000000E-03 0. -1.
        -11    1    3    3    0    0  0.18167102077E+02  0.78444648371E+01  0.55830852744E+01  0.20560886846E+02  0.51100000000E-03 0.  1.
        -12    1    3    3    0    0  0.53599541689E+01 -0.13393915775E+01 -0.43907341780E+00  0.55421894552E+01  0.00000000000E+00 0.  1.
</event>
<event>
 7    1  0.2642243E-009  0.4778727E+02  0.7816164E-02  0.1312668E+00
        -11   -1    0    0    0    0  0.00000000000E+00  0.00000000000E+00  0.45593999997E+02  0.45594000000E+02  0.51100000000E-03 0.  1.
         11   -1    0    0    0    0 -0.00000000000E+00 -0.00000000000E+00 -0.45593999997E+02  0.45594000000E+02  0.51100000000E-03 0. -1.
    9900012    2    1    2    0    0  0.69860621692E+01  0.11008715541E+02 -0.41395974686E+02  0.47787267256E+02  0.19999982727E+02 0.  0.
        -12    1    1    2    0    0 -0.69860621692E+01 -0.11008715541E+02  0.41395974686E+02  0.43400732744E+02  0.00000000000E+00 0.  1.
         11    1    3    3    0    0  0.24396403452E+01  0.17443165505E+01 -0.66032651227E+01  0.72524199950E+01  0.51100000000E-03 0. -1.
        -11    1    3    3    0    0  0.35135606614E+01  0.11308296624E+02 -0.36034135182E+02  0.37929956230E+02  0.51100000000E-03 0.  1.
        -12    1    3    3    0    0  0.10328611626E+01 -0.20438976330E+01  0.12414256186E+01  0.26048910307E+01  0.00000000000E+00 0.  1.
</event>
<event>
 7    1  0.2642243E-009  0.4778727E+02  0.7816164E-02  0.1312668E+00
        -11   -1    0    0    0    0  0.00000000000E+00  0.00000000000E+00  0.45593999997E+02  0.45594000000E+02  0.51100000000E-03 0.  1.
         11   -1    0    0    0    0 -0.00000000000E+00 -0.00000000000E+00 -0.45593999997E+02  0.45594000000E+02  0.51100000000E-03 0. -1.
    9900012    2    1    2    0    0  0.85985677251E+01  0.38768302972E+02 -0.17513047492E+02  0.47787268270E+02  0.19999987349E+02 0.  0.
        -12    1    1    2    0    0 -0.85985677251E+01 -0.38768302972E+02  0.17513047492E+02  0.43400731730E+02  0.00000000000E+00 0.  1.
         11    1    3    3    0    0  0.76686113599E+01  0.12529083711E+02 -0.91013557189E+01  0.17280631210E+02  0.51100000000E-03 0. -1.
        -11    1    3    3    0    0 -0.54260113134E+01  0.59311080010E+01 -0.25795568819E+01  0.84423785074E+01  0.51100000000E-03 0.  1.
        -12    1    3    3    0    0  0.63559676786E+01  0.20308111260E+02 -0.58321348909E+01  0.22064258552E+02  0.00000000000E+00 0.  1.
</event>
<event>
 7    1  0.2642243E-009  0.4778726E+02  0.7816164E-02  0.1312668E+00
        -11   -1    0    0    0    0  0.00000000000E+00  0.00000000000E+00  0.45593999997E+02  0.45594000000E+02  0.51100000000E-03 0. -1.
         11   -1    0    0    0    0 -0.00000000000E+00 -0.00000000000E+00 -0.45593999997E+02  0.45594000000E+02  0.51100000000E-03 0.  1.
    9900012    2    1    2    0    0  0.15771019073E+02 -0.64464479830E+00  0.40428743930E+02  0.47787263309E+02  0.19999964732E+02 0.  0.
        -12    1    1    2    0    0 -0.15771019073E+02  0.64464479830E+00 -0.40428743930E+02  0.43400736691E+02  0.00000000000E+00 0.  1.
         11    1    3    3    0    0  0.15207607392E+01  0.78969604311E+01  0.11721676285E+02  0.14215216933E+02  0.51100000000E-03 0.  1.
        -11    1    3    3    0    0  0.35785919858E+01 -0.21486414538E+00  0.87674527176E+01  0.94721019113E+01  0.51100000000E-03 0. -1.
         12    1    3    3    0    0  0.10671666348E+02 -0.83267410841E+01  0.19939614928E+02  0.24099944465E+02  0.00000000000E+00 0. -1.
</event>
<event>
 7    1  0.2642243E-009  0.4778727E+02  0.7816164E-02  0.1312668E+00
        -11   -1    0    0    0    0  0.00000000000E+00  0.00000000000E+00  0.45593999997E+02  0.45594000000E+02  0.51100000000E-03 0.  1.
         11   -1    0    0    0    0 -0.00000000000E+00 -0.00000000000E+00 -0.45593999997E+02  0.45594000000E+02  0.51100000000E-03 0. -1.
    9900012    2    1    2    0    0  0.17939139359E+02  0.13713268451E+01 -0.39495951037E+02  0.47787269515E+02  0.19999993028E+02 0.  0.
        -12    1    1    2    0    0 -0.17939139359E+02 -0.13713268451E+01  0.39495951037E+02  0.43400730485E+02  0.00000000000E+00 0.  1.
         11    1    3    3    0    0  0.72618585844E+01  0.45715346897E+01 -0.21021099461E+02  0.22705068649E+02  0.51100000000E-03 0. -1.
        -11    1    3    3    0    0  0.78185380193E+01 -0.74507739905E+01 -0.16216962972E+02  0.19484184821E+02  0.51100000000E-03 0.  1.
        -12    1    3    3    0    0  0.28587427553E+01  0.42505661459E+01 -0.22578886037E+01  0.55980160457E+01  0.00000000000E+00 0.  1.
</event>
<event>
 7    1  0.2642243E-009  0.4778726E+02  0.7816164E-02  0.1312668E+00
        -11   -1    0    0    0    0  0.00000000000E+00  0.00000000000E+00  0.45593999997E+02  0.45594000000E+02  0.51100000000E-03 0.  1.
         11   -1    0    0    0    0 -0.00000000000E+00 -0.00000000000E+00 -0.45593999997E+02  0.45594000000E+02  0.51100000000E-03 0. -1.
    9900012    2    1    2    0    0  0.34496712055E+02 -0.13512714568E+02 -0.22605481224E+02  0.47787258313E+02  0.19999941952E+02 0.  0.
        -12    1    1    2    0    0 -0.34496712055E+02  0.13512714568E+02  0.22605481224E+02  0.43400741687E+02  0.00000000000E+00 0.  1.
         11    1    3    3    0    0  0.21361372555E+02 -0.28845773739E+01 -0.20207395962E+02  0.29546029782E+02  0.51100000000E-03 0. -1.
        -11    1    3    3    0    0  0.13286139423E+02 -0.10196811509E+02 -0.10084080013E+01  0.16778359654E+02  0.51100000000E-03 0.  1.
        -12    1    3    3    0    0 -0.15079992257E+00 -0.43132568566E+00 -0.13896772603E+01  0.14628688771E+01  0.00000000000E+00 0.  1.
</event>
<event>
 7    1  0.2642243E-009  0.4778727E+02  0.7816164E-02  0.1312668E+00
        -11   -1    0    0    0    0  0.00000000000E+00  0.00000000000E+00  0.45593999997E+02  0.45594000000E+02  0.51100000000E-03 0.  1.
         11   -1    0    0    0    0 -0.00000000000E+00 -0.00000000000E+00 -0.45593999997E+02  0.45594000000E+02  0.51100000000E-03 0. -1.
    9900012    2    1    2    0    0  0.22918521700E+02 -0.28593124100E+02 -0.23255060111E+02  0.47787271855E+02  0.20000003696E+02 0.  0.
        -12    1    1    2    0    0 -0.22918521700E+02  0.28593124100E+02  0.23255060111E+02  0.43400728145E+02  0.00000000000E+00 0.  1.
         11    1    3    3    0    0  0.11082240897E+02 -0.20544084962E+02 -0.18900559354E+02  0.30035090051E+02  0.51100000000E-03 0. -1.
        -11    1    3    3    0    0  0.63955473118E+01  0.61871316932E+00  0.46112706691E+00  0.64419305985E+01  0.51100000000E-03 0.  1.
        -12    1    3    3    0    0  0.54407334916E+01 -0.86677523079E+01 -0.48156278239E+01  0.11310251206E+02  0.00000000000E+00 0.  1.
</event>
<event>
 7    1  0.2642243E-009  0.4778728E+02  0.7816164E-02  0.1312668E+00
        -11   -1    0    0    0    0  0.00000000000E+00  0.00000000000E+00  0.45593999997E+02  0.45594000000E+02  0.51100000000E-03 0. -1.
         11   -1    0    0    0    0 -0.00000000000E+00 -0.00000000000E+00 -0.45593999997E+02  0.45594000000E+02  0.51100000000E-03 0.  1.
    9900012    2    1    2    0    0 -0.24944730298E+02 -0.20109159655E+02  0.29274647923E+02  0.47787275551E+02  0.20000020548E+02 0.  0.
        -12    1    1    2    0    0  0.24944730298E+02  0.20109159655E+02 -0.29274647923E+02  0.43400724449E+02  0.00000000000E+00 0.  1.
         11    1    3    3    0    0 -0.93272124642E+01 -0.16667970750E+02  0.20192967766E+02  0.27795217012E+02  0.51100000000E-03 0. -1.
        -11    1    3    3    0    0 -0.37495660869E+01  0.67755296180E+00 -0.93708343776E+00  0.39238309707E+01  0.51100000000E-03 0.  1.
         12    1    3    3    0    0 -0.11867951747E+02 -0.41187418669E+01  0.10018763594E+02  0.16068227568E+02  0.00000000000E+00 0. -1.
</event>
<event>
 7    1  0.2642243E-009  0.4778727E+02  0.7816164E-02  0.1312668E+00
        -11   -1    0    0    0    0  0.00000000000E+00  0.00000000000E+00  0.45593999997E+02  0.45594000000E+02  0.51100000000E-03 0.  1.
         11   -1    0    0    0    0 -0.00000000000E+00 -0.00000000000E+00 -0.45593999997E+02  0.45594000000E+02  0.51100000000E-03 0. -1.
    9900012    2    1    2    0    0 -0.61276179767E+01  0.17181749092E+02 -0.39380995439E+02  0.47787274134E+02  0.20000014088E+02 0.  0.
        -12    1    1    2    0    0  0.61276179767E+01 -0.17181749092E+02  0.39380995439E+02  0.43400725866E+02  0.00000000000E+00 0.  1.
         11    1    3    3    0    0 -0.17561030611E+00  0.14604383725E+02 -0.18867995193E+02  0.23860429708E+02  0.51100000000E-03 0. -1.
        -11    1    3    3    0    0 -0.80614019732E+01  0.25475521704E+01 -0.95151244469E+01  0.12728464846E+02  0.51100000000E-03 0.  1.
        -12    1    3    3    0    0  0.21093943026E+01  0.29813196593E-01 -0.10997875798E+02  0.11198379580E+02  0.00000000000E+00 0.  1.
</event>
<event>
 7    1  0.2642243E-009  0.4778727E+02  0.7816164E-02  0.1312668E+00
        -11   -1    0    0    0    0  0.00000000000E+00  0.00000000000E+00  0.45593999997E+02  0.45594000000E+02  0.51100000000E-03 0.  1.
         11   -1    0    0    0    0 -0.00000000000E+00 -0.00000000000E+00 -0.45593999997E+02  0.45594000000E+02  0.51100000000E-03 0. -1.
    9900012    2    1    2    0    0 -0.26601273164E+02  0.30257599962E+02 -0.16139173192E+02  0.47787274191E+02  0.20000014348E+02 0.  0.
        -12    1    1    2    0    0  0.26601273164E+02 -0.30257599962E+02  0.16139173192E+02  0.43400725809E+02  0.00000000000E+00 0.  1.
         11    1    3    3    0    0 -0.18051388362E+02  0.24614130963E+02 -0.42229846435E+01  0.30814633933E+02  0.51100000000E-03 0. -1.
        -11    1    3    3    0    0 -0.15452318562E+01  0.40297461578E+01 -0.71378692612E+01  0.83412093510E+01  0.51100000000E-03 0.  1.
         12    1    3    3    0    0 -0.70046529462E+01  0.16137228411E+01 -0.47783192870E+01  0.86314309077E+01  0.00000000000E+00 0. -1.
</event>
<event>
 7    1  0.2642243E-009  0.4778728E+02  0.7816164E-02  0.1312668E+00
        -11   -1    0    0    0    0  0.00000000000E+00  0.00000000000E+00  0.45593999997E+02  0.45594000000E+02  0.51100000000E-03 0. -1.
         11   -1    0    0    0    0 -0.00000000000E+00 -0.00000000000E+00 -0.45593999997E+02  0.45594000000E+02  0.51100000000E-03 0.  1.
    9900012    2    1    2    0    0 -0.13991669615E+02 -0.20681855836E+02  0.35498119540E+02  0.47787280302E+02  0.20000042208E+02 0.  0.
        -12    1    1    2    0    0  0.13991669615E+02  0.20681855836E+02 -0.35498119540E+02  0.43400719698E+02  0.00000000000E+00 0.  1.
         11    1    3    3    0    0 -0.11794569636E+02 -0.18203780697E+02  0.27998599942E+02  0.35417666545E+02  0.51100000000E-03 0. -1.
        -11    1    3    3    0    0 -0.18996848971E+01  0.29660676825E+01  0.59541269967E+00  0.35722369391E+01  0.51100000000E-03 0.  1.
        -12    1    3    3    0    0 -0.29741508159E+00 -0.54441428216E+01  0.69041068990E+01  0.87973768173E+01  0.00000000000E+00 0.  1.
</event>
<event>
 7    1  0.2642243E-009  0.4778727E+02  0.7816164E-02  0.1312668E+00
        -11   -1    0    0    0    0  0.00000000000E+00  0.00000000000E+00  0.45593999997E+02  0.45594000000E+02  0.51100000000E-03 0. -1.
         11   -1    0    0    0    0 -0.00000000000E+00 -0.00000000000E+00 -0.45593999997E+02  0.45594000000E+02  0.51100000000E-03 0.  1.
    9900012    2    1    2    0    0  0.26832363825E+02 -0.25238448839E+02  0.22949253379E+02  0.47787270987E+02  0.19999999738E+02 0.  0.
        -12    1    1    2    0    0 -0.26832363825E+02  0.25238448839E+02 -0.22949253379E+02  0.43400729013E+02  0.00000000000E+00 0.  1.
         11    1    3    3    0    0  0.14468059555E+02 -0.40863445048E+01  0.10751259982E+02  0.18482763597E+02  0.51100000000E-03 0. -1.
        -11    1    3    3    0    0  0.17770767471E+00 -0.88989163626E+01  0.16328199170E+01  0.90492206067E+01  0.51100000000E-03 0.  1.
         12    1    3    3    0    0  0.12186596595E+02 -0.12253187971E+02  0.10565173479E+02  0.20255286784E+02  0.00000000000E+00 0. -1.
</event>
<event>
 7    1  0.2646230E-009  0.4778727E+02  0.7816164E-02  0.1312668E+00
        -11   -1    0    0    0    0  0.00000000000E+00  0.00000000000E+00  0.45593999997E+02  0.45594000000E+02  0.51100000000E-03 0. -1.
         11   -1    0    0    0    0 -0.00000000000E+00 -0.00000000000E+00 -0.45593999997E+02  0.45594000000E+02  0.51100000000E-03 0.  1.
    9900012    2    1    2    0    0  0.26689529740E+01 -0.42260835604E+00  0.43316522786E+02  0.47787273576E+02  0.20000011545E+02 0.  0.
        -12    1    1    2    0    0 -0.26689529740E+01  0.42260835604E+00 -0.43316522786E+02  0.43400726424E+02  0.00000000000E+00 0.  1.
         11    1    3    3    0    0 -0.18714811371E+01 -0.47698849038E+01  0.28766206053E+02  0.29218981067E+02  0.51100000000E-03 0. -1.
        -11    1    3    3    0    0  0.47793816141E+01 -0.95128362082E+00  0.26674119415E+01  0.55554042038E+01  0.51100000000E-03 0.  1.
         12    1    3    3    0    0 -0.23894750298E+00  0.52985601686E+01  0.11882904792E+02  0.13012888306E+02  0.00000000000E+00 0. -1.
</event>
<event>
 7    1  0.2642243E-009  0.4778728E+02  0.7816164E-02  0.1312668E+00
        -11   -1    0    0    0    0  0.00000000000E+00  0.00000000000E+00  0.45593999997E+02  0.45594000000E+02  0.51100000000E-03 0. -1.
         11   -1    0    0    0    0 -0.00000000000E+00 -0.00000000000E+00 -0.45593999997E+02  0.45594000000E+02  0.51100000000E-03 0.  1.
    9900012    2    1    2    0    0  0.33202564871E+02 -0.27949441383E+02  0.20307455572E+00  0.47787276194E+02  0.20000023477E+02 0.  0.
        -12    1    1    2    0    0 -0.33202564871E+02  0.27949441383E+02 -0.20307455572E+00  0.43400723806E+02  0.00000000000E+00 0.  1.
         11    1    3    3    0    0  0.25548695272E+02 -0.12431618764E+02  0.19397458599E+00  0.28413352523E+02  0.51100000000E-03 0. -1.
        -11    1    3    3    0    0 -0.14444956912E+01 -0.30822114516E+01  0.18189161509E+01  0.38594107658E+01  0.51100000000E-03 0.  1.
         12    1    3    3    0    0  0.90983652904E+01 -0.12435611167E+02 -0.18098161812E+01  0.15514512905E+02  0.00000000000E+00 0. -1.
</event>
<event>
 7    1  0.2642243E-009  0.4778727E+02  0.7816164E-02  0.1312668E+00
        -11   -1    0    0    0    0  0.00000000000E+00  0.00000000000E+00  0.45593999997E+02  0.45594000000E+02  0.51100000000E-03 0.  1.
         11   -1    0    0    0    0 -0.00000000000E+00 -0.00000000000E+00 -0.45593999997E+02  0.45594000000E+02  0.51100000000E-03 0. -1.
    9900012    2    1    2    0    0 -0.63270853502E+01  0.38709171121E+02 -0.18579328454E+02  0.47787269779E+02  0.19999994231E+02 0.  0.
        -12    1    1    2    0    0  0.63270853502E+01 -0.38709171121E+02  0.18579328454E+02  0.43400730221E+02  0.00000000000E+00 0.  1.
         11    1    3    3    0    0 -0.24874743549E+01 -0.18989777890E+00  0.20952347435E+00  0.25034955922E+01  0.51100000000E-03 0.  1.
        -11    1    3    3    0    0  0.46976172581E+01  0.18526818191E+02 -0.87611706797E+01  0.21025430129E+02  0.51100000000E-03 0. -1.
        -12    1    3    3    0    0 -0.85372282535E+01  0.20372250709E+02 -0.10027681249E+02  0.24258344058E+02  0.00000000000E+00 0.  1.
</event>
<event>
 7    1  0.2642243E-009  0.4778727E+02  0.7816164E-02  0.1312668E+00
        -11   -1    0    0    0    0  0.00000000000E+00  0.00000000000E+00  0.45593999997E+02  0.45594000000E+02  0.51100000000E-03 0.  1.
         11   -1    0    0    0    0 -0.00000000000E+00 -0.00000000000E+00 -0.45593999997E+02  0.45594000000E+02  0.51100000000E-03 0. -1.
    9900012    2    1    2    0    0 -0.28600542898E+02 -0.25230081250E+02 -0.20714127351E+02  0.47787272750E+02  0.20000007775E+02 0.  0.
        -12    1    1    2    0    0  0.28600542898E+02  0.25230081250E+02  0.20714127351E+02  0.43400727250E+02  0.00000000000E+00 0.  1.
         11    1    3    3    0    0 -0.23523222512E+02 -0.18888983513E+02 -0.92801613299E+01  0.31563540519E+02  0.51100000000E-03 0. -1.
        -11    1    3    3    0    0 -0.24179275252E+01 -0.69072191593E+01 -0.11348385727E+02  0.13503403604E+02  0.51100000000E-03 0.  1.
        -12    1    3    3    0    0 -0.26593928603E+01  0.56612142224E+00 -0.85580294178E-01  0.27203286266E+01  0.00000000000E+00 0.  1.
</event>
<event>
 7    1  0.2642243E-009  0.4778727E+02  0.7816164E-02  0.1312668E+00
        -11   -1    0    0    0    0  0.00000000000E+00  0.00000000000E+00  0.45593999997E+02  0.45594000000E+02  0.51100000000E-03 0.  1.
         11   -1    0    0    0    0 -0.00000000000E+00 -0.00000000000E+00 -0.45593999997E+02  0.45594000000E+02  0.51100000000E-03 0. -1.
    9900012    2    1    2    0    0 -0.16960915816E+02  0.11631813009E+02 -0.38218468625E+02  0.47787273241E+02  0.20000010014E+02 0.  0.
        -12    1    1    2    0    0  0.16960915816E+02 -0.11631813009E+02  0.38218468625E+02  0.43400726759E+02  0.00000000000E+00 0.  1.
         11    1    3    3    0    0 -0.15715573005E+02  0.16958290603E+01 -0.16167270933E+02  0.22610522346E+02  0.51100000000E-03 0. -1.
        -11    1    3    3    0    0 -0.33875576206E+00  0.71263050395E+01 -0.75876453305E+01  0.10414957557E+02  0.51100000000E-03 0.  1.
         12    1    3    3    0    0 -0.90658704871E+00  0.28096789096E+01 -0.14463552361E+02  0.14761793338E+02  0.00000000000E+00 0. -1.
</event>
<event>
 7    1  0.2642243E-009  0.4778727E+02  0.7816164E-02  0.1312668E+00
        -11   -1    0    0    0    0  0.00000000000E+00  0.00000000000E+00  0.45593999997E+02  0.45594000000E+02  0.51100000000E-03 0.  1.
         11   -1    0    0    0    0 -0.00000000000E+00 -0.00000000000E+00 -0.45593999997E+02  0.45594000000E+02  0.51100000000E-03 0. -1.
    9900012    2    1    2    0    0  0.14255880994E+01 -0.27168705041E+02 -0.33814969988E+02  0.47787273850E+02  0.20000012794E+02 0.  0.
        -12    1    1    2    0    0 -0.14255880994E+01  0.27168705041E+02  0.33814969988E+02  0.43400726150E+02  0.00000000000E+00 0.  1.
         11    1    3    3    0    0  0.40537721406E+01 -0.21254038399E+02 -0.29607028667E+02  0.36670742611E+02  0.51100000000E-03 0. -1.
        -11    1    3    3    0    0 -0.14520360559E+01 -0.16714919597E+01 -0.59749860225E+01  0.63720289005E+01  0.51100000000E-03 0.  1.
         12    1    3    3    0    0 -0.11761479853E+01 -0.42431746824E+01  0.17670447023E+01  0.47445023394E+01  0.00000000000E+00 0. -1.
</event>
<event>
 7    1  0.2642243E-009  0.4778726E+02  0.7816164E-02  0.1312668E+00
        -11   -1    0    0    0    0  0.00000000000E+00  0.00000000000E+00  0.45593999997E+02  0.45594000000E+02  0.51100000000E-03 0.  1.
         11   -1    0    0    0    0 -0.00000000000E+00 -0.00000000000E+00 -0.45593999997E+02  0.45594000000E+02  0.51100000000E-03 0. -1.
    9900012    2    1    2    0    0  0.35670989715E+02  0.44724428411E+01 -0.24314646701E+02  0.47787259265E+02  0.19999946290E+02 0.  0.
        -12    1    1    2    0    0 -0.35670989715E+02 -0.44724428411E+01  0.24314646701E+02  0.43400740735E+02  0.00000000000E+00 0.  1.
         11    1    3    3    0    0  0.29682447943E+02  0.30424322769E+01 -0.21185071348E+02  0.36593870502E+02  0.51100000000E-03 0. -1.
        -11    1    3    3    0    0  0.82976245292E+01  0.14405421944E+01 -0.27056341348E+01  0.88456877050E+01  0.51100000000E-03 0.  1.
         12    1    3    3    0    0 -0.23090827577E+01 -0.10531630207E-01 -0.42394121789E+00  0.23477010570E+01  0.00000000000E+00 0. -1.
</event>
<event>
 7    1  0.2642243E-009  0.4778727E+02  0.7816164E-02  0.1312668E+00
        -11   -1    0    0    0    0  0.00000000000E+00  0.00000000000E+00  0.45593999997E+02  0.45594000000E+02  0.51100000000E-03 0. -1.
         11   -1    0    0    0    0 -0.00000000000E+00 -0.00000000000E+00 -0.45593999997E+02  0.45594000000E+02  0.51100000000E-03 0.  1.
    9900012    2    1    2    0    0  0.69532128963E+00 -0.39024431465E+02 -0.18979817865E+02  0.47787271791E+02  0.20000003402E+02 0.  0.
        -12    1    1    2    0    0 -0.69532128963E+00  0.39024431465E+02  0.18979817865E+02  0.43400728209E+02  0.00000000000E+00 0.  1.
         11    1    3    3    0    0 -0.33781822334E+01 -0.32477249331E+02 -0.12586563175E+02  0.34994362576E+02  0.51100000000E-03 0. -1.
        -11    1    3    3    0    0  0.46066985789E+01 -0.73488956942E+01 -0.73990067021E+01  0.11400580694E+02  0.51100000000E-03 0.  1.
         12    1    3    3    0    0 -0.53319505588E+00  0.80171355953E+00  0.10057520120E+01  0.13923285204E+01  0.00000000000E+00 0. -1.
</event>
<event>
 7    1  0.2642243E-009  0.4778728E+02  0.7816164E-02  0.1312668E+00
        -11   -1    0    0    0    0  0.00000000000E+00  0.00000000000E+00  0.45593999997E+02  0.45594000000E+02  0.51100000000E-03 0. -1.
         11   -1    0    0    0    0 -0.00000000000E+00 -0.00000000000E+00 -0.45593999997E+02  0.45594000000E+02  0.51100000000E-03 0.  1.
    9900012    2    1    2    0    0 -0.37015364818E+02  0.99671899254E+01 -0.20350450081E+02  0.47787275051E+02  0.20000018268E+02 0.  0.
        -12    1    1    2    0    0  0.37015364818E+02 -0.99671899254E+01  0.20350450081E+02  0.43400724949E+02  0.00000000000E+00 0.  1.
         11    1    3    3    0    0 -0.81704751105E+01  0.48792240061E+01  0.20384675801E+01  0.97323604932E+01  0.51100000000E-03 0. -1.
        -11    1    3    3    0    0  0.74844147940E+00  0.29171997929E-01 -0.57266910751E+00  0.94284984031E+00  0.51100000000E-03 0.  1.
         12    1    3    3    0    0 -0.29593331187E+02  0.50587939214E+01 -0.21816248553E+02  0.37112064718E+02  0.00000000000E+00 0. -1.
</event>
<event>
 7    1  0.2642243E-009  0.4778727E+02  0.7816164E-02  0.1312668E+00
        -11   -1    0    0    0    0  0.00000000000E+00  0.00000000000E+00  0.45593999997E+02  0.45594000000E+02  0.51100000000E-03 0.  1.
         11   -1    0    0    0    0 -0.00000000000E+00 -0.00000000000E+00 -0.45593999997E+02  0.45594000000E+02  0.51100000000E-03 0. -1.
    9900012    2    1    2    0    0 -0.42062708589E+00  0.17872374924E+02 -0.39547749087E+02  0.47787272237E+02  0.20000005436E+02 0.  0.
        -12    1    1    2    0    0  0.42062708589E+00 -0.17872374924E+02  0.39547749087E+02  0.43400727763E+02  0.00000000000E+00 0.  1.
         11    1    3    3    0    0  0.61520503925E+01  0.78351420996E+01 -0.86772413699E+01  0.13211044387E+02  0.51100000000E-03 0. -1.
        -11    1    3    3    0    0 -0.59579762984E+01  0.11191156936E+01 -0.81264611905E+01  0.10138504488E+02  0.51100000000E-03 0.  1.
        -12    1    3    3    0    0 -0.61470118001E+00  0.89181171306E+01 -0.22744046526E+02  0.24437723361E+02  0.00000000000E+00 0.  1.
</event>
<event>
 7    1  0.2642243E-009  0.4778727E+02  0.7816164E-02  0.1312668E+00
        -11   -1    0    0    0    0  0.00000000000E+00  0.00000000000E+00  0.45593999997E+02  0.45594000000E+02  0.51100000000E-03 0.  1.
         11   -1    0    0    0    0 -0.00000000000E+00 -0.00000000000E+00 -0.45593999997E+02  0.45594000000E+02  0.51100000000E-03 0. -1.
    9900012    2    1    2    0    0 -0.31343736052E+02  0.23074307300E+02 -0.19203379586E+02  0.47787271497E+02  0.20000002065E+02 0.  0.
        -12    1    1    2    0    0  0.31343736052E+02 -0.23074307300E+02  0.19203379586E+02  0.43400728503E+02  0.00000000000E+00 0.  1.
         11    1    3    3    0    0 -0.21132273201E+02  0.23047372419E+02 -0.81200118477E+01  0.32306174932E+02  0.51100000000E-03 0. -1.
        -11    1    3    3    0    0 -0.65818313256E+01 -0.16564197082E+01 -0.74270907345E+01  0.10061108631E+02  0.51100000000E-03 0.  1.
         12    1    3    3    0    0 -0.36296315255E+01  0.16833545890E+01 -0.36562770034E+01  0.54199879344E+01  0.00000000000E+00 0. -1.
</event>
<event>
 7    1  0.2642243E-009  0.4778727E+02  0.7816164E-02  0.1312668E+00
        -11   -1    0    0    0    0  0.00000000000E+00  0.00000000000E+00  0.45593999997E+02  0.45594000000E+02  0.51100000000E-03 0.  1.
         11   -1    0    0    0    0 -0.00000000000E+00 -0.00000000000E+00 -0.45593999997E+02  0.45594000000E+02  0.51100000000E-03 0. -1.
    9900012    2    1    2    0    0 -0.35387949816E+02  0.12135275945E+02 -0.22001163122E+02  0.47787273127E+02  0.20000009494E+02 0.  0.
        -12    1    1    2    0    0  0.35387949816E+02 -0.12135275945E+02  0.22001163122E+02  0.43400726873E+02  0.00000000000E+00 0.  1.
         11    1    3    3    0    0 -0.24240573425E+01 -0.39619181539E+01 -0.30610327183E+01  0.55626226747E+01  0.51100000000E-03 0. -1.
        -11    1    3    3    0    0 -0.41661255695E+01  0.10969259772E+01  0.56700397481E+00  0.43452666925E+01  0.51100000000E-03 0.  1.
         12    1    3    3    0    0 -0.28797766904E+02  0.15000268121E+02 -0.19507134379E+02  0.37879383760E+02  0.00000000000E+00 0. -1.
</event>
<event>
 7    1  0.2642243E-009  0.4778727E+02  0.7816164E-02  0.1312668E+00
        -11   -1    0    0    0    0  0.00000000000E+00  0.00000000000E+00  0.45593999997E+02  0.45594000000E+02  0.51100000000E-03 0.  1.
         11   -1    0    0    0    0 -0.00000000000E+00 -0.00000000000E+00 -0.45593999997E+02  0.45594000000E+02  0.51100000000E-03 0. -1.
    9900012    2    1    2    0    0 -0.50185147905E+01  0.18349738268E+02 -0.39009291430E+02  0.47787271860E+02  0.20000003719E+02 0.  0.
        -12    1    1    2    0    0  0.50185147905E+01 -0.18349738268E+02  0.39009291430E+02  0.43400728140E+02  0.00000000000E+00 0.  1.
         11    1    3    3    0    0  0.55040825174E+01  0.39147846538E+01 -0.13070983928E+02  0.14712956343E+02  0.51100000000E-03 0. -1.
        -11    1    3    3    0    0 -0.69163971929E+01  0.58287955032E+01 -0.54470487988E+01  0.10558491750E+02  0.51100000000E-03 0.  1.
         12    1    3    3    0    0 -0.36062001150E+01  0.86061581109E+01 -0.20491258704E+02  0.22515823768E+02  0.00000000000E+00 0. -1.
</event>
<event>
 7    1  0.2642243E-009  0.4778727E+02  0.7816164E-02  0.1312668E+00
        -11   -1    0    0    0    0  0.00000000000E+00  0.00000000000E+00  0.45593999997E+02  0.45594000000E+02  0.51100000000E-03 0.  1.
         11   -1    0    0    0    0 -0.00000000000E+00 -0.00000000000E+00 -0.45593999997E+02  0.45594000000E+02  0.51100000000E-03 0. -1.
    9900012    2    1    2    0    0 -0.38486149865E+02 -0.12530807902E+01 -0.20021724977E+02  0.47787269430E+02  0.19999992641E+02 0.  0.
        -12    1    1    2    0    0  0.38486149865E+02  0.12530807902E+01  0.20021724977E+02  0.43400730570E+02  0.00000000000E+00 0.  1.
         11    1    3    3    0    0 -0.79443240807E+01 -0.66897113654E+01 -0.88654737883E+01  0.13655077774E+02  0.51100000000E-03 0. -1.
        -11    1    3    3    0    0 -0.13027824447E+02  0.64936105708E+01 -0.33991986838E+01  0.14948101552E+02  0.51100000000E-03 0.  1.
        -12    1    3    3    0    0 -0.17514001338E+02 -0.10569799956E+01 -0.77570525046E+01  0.19184090105E+02  0.00000000000E+00 0.  1.
</event>
<event>
 7    1  0.2642243E-009  0.4778727E+02  0.7816164E-02  0.1312668E+00
        -11   -1    0    0    0    0  0.00000000000E+00  0.00000000000E+00  0.45593999997E+02  0.45594000000E+02  0.51100000000E-03 0. -1.
         11   -1    0    0    0    0 -0.00000000000E+00 -0.00000000000E+00 -0.45593999997E+02  0.45594000000E+02  0.51100000000E-03 0.  1.
    9900012    2    1    2    0    0 -0.26694247873E+01 -0.18942917350E+02  0.38957194719E+02  0.47787274582E+02  0.20000016127E+02 0.  0.
        -12    1    1    2    0    0  0.26694247873E+01  0.18942917350E+02 -0.38957194719E+02  0.43400725418E+02  0.00000000000E+00 0.  1.
         11    1    3    3    0    0  0.45575516794E+01 -0.16318764545E+02  0.29808529491E+02  0.34287341458E+02  0.51100000000E-03 0. -1.
        -11    1    3    3    0    0 -0.39431752841E+01  0.18613764798E+01  0.37579844827E+01  0.57563705018E+01  0.51100000000E-03 0.  1.
         12    1    3    3    0    0 -0.32838011826E+01 -0.44855292852E+01  0.53906807461E+01  0.77435626221E+01  0.00000000000E+00 0. -1.
</event>
<event>
 7    1  0.2642243E-009  0.4778727E+02  0.7816164E-02  0.1312668E+00
        -11   -1    0    0    0    0  0.00000000000E+00  0.00000000000E+00  0.45593999997E+02  0.45594000000E+02  0.51100000000E-03 0. -1.
         11   -1    0    0    0    0 -0.00000000000E+00 -0.00000000000E+00 -0.45593999997E+02  0.45594000000E+02  0.51100000000E-03 0.  1.
    9900012    2    1    2    0    0 -0.38210304519E+02 -0.19848301523E+02  0.54443279054E+01  0.47787272458E+02  0.20000006447E+02 0.  0.
        -12    1    1    2    0    0  0.38210304519E+02  0.19848301523E+02 -0.54443279054E+01  0.43400727542E+02  0.00000000000E+00 0.  1.
         11    1    3    3    0    0 -0.22142020735E+02 -0.16958753843E+02 -0.28215509153E+00  0.27891719665E+02  0.51100000000E-03 0. -1.
        -11    1    3    3    0    0 -0.16741132318E+02 -0.76830128220E+00  0.55880667418E+01  0.17665850909E+02  0.51100000000E-03 0.  1.
         12    1    3    3    0    0  0.67284853440E+00 -0.21212463988E+01  0.13841625510E+00  0.22297018846E+01  0.00000000000E+00 0. -1.
</event>
<event>
 7    1  0.2642243E-009  0.4778727E+02  0.7816164E-02  0.1312668E+00
        -11   -1    0    0    0    0  0.00000000000E+00  0.00000000000E+00  0.45593999997E+02  0.45594000000E+02  0.51100000000E-03 0. -1.
         11   -1    0    0    0    0 -0.00000000000E+00 -0.00000000000E+00 -0.45593999997E+02  0.45594000000E+02  0.51100000000E-03 0.  1.
    9900012    2    1    2    0    0 -0.35770148792E+02  0.65167038923E+01  0.23699204010E+02  0.47787271377E+02  0.20000001518E+02 0.  0.
        -12    1    1    2    0    0  0.35770148792E+02 -0.65167038923E+01 -0.23699204010E+02  0.43400728623E+02  0.00000000000E+00 0.  1.
         11    1    3    3    0    0 -0.58172097825E+01  0.40867444307E+01  0.77241457055E+01  0.10497801524E+02  0.51100000000E-03 0. -1.
        -11    1    3    3    0    0 -0.17371595463E+02 -0.60074482216E+01  0.69177154656E+01  0.19639667782E+02  0.51100000000E-03 0.  1.
        -12    1    3    3    0    0 -0.12581343547E+02  0.84374076832E+01  0.90573428391E+01  0.17649802071E+02  0.00000000000E+00 0.  1.
</event>
<event>
 7    1  0.2642243E-009  0.4778727E+02  0.7816164E-02  0.1312668E+00
        -11   -1    0    0    0    0  0.00000000000E+00  0.00000000000E+00  0.45593999997E+02  0.45594000000E+02  0.51100000000E-03 0. -1.
         11   -1    0    0    0    0 -0.00000000000E+00 -0.00000000000E+00 -0.45593999997E+02  0.45594000000E+02  0.51100000000E-03 0.  1.
    9900012    2    1    2    0    0 -0.30421262540E+01 -0.38228678575E+02  0.20320851729E+02  0.47787269444E+02  0.19999992705E+02 0.  0.
        -12    1    1    2    0    0  0.30421262540E+01  0.38228678575E+02 -0.20320851729E+02  0.43400730556E+02  0.00000000000E+00 0.  1.
         11    1    3    3    0    0 -0.25377020719E+01 -0.20762476797E+02  0.19074384814E+02  0.28308170744E+02  0.51100000000E-03 0. -1.
        -11    1    3    3    0    0 -0.36608161384E+01 -0.91897292609E+01 -0.19115671735E+01  0.10075057717E+02  0.51100000000E-03 0.  1.
        -12    1    3    3    0    0  0.31563919563E+01 -0.82764725171E+01  0.31580340882E+01  0.94040409830E+01  0.00000000000E+00 0.  1.
</event>
<event>
 7    1  0.2642243E-009  0.4778728E+02  0.7816164E-02  0.1312668E+00
        -11   -1    0    0    0    0  0.00000000000E+00  0.00000000000E+00  0.45593999997E+02  0.45594000000E+02  0.51100000000E-03 0.  1.
         11   -1    0    0    0    0 -0.00000000000E+00 -0.00000000000E+00 -0.45593999997E+02  0.45594000000E+02  0.51100000000E-03 0. -1.
    9900012    2    1    2    0    0 -0.11539078913E+01 -0.38474302759E+02 -0.20050416241E+02  0.47787278029E+02  0.20000031844E+02 0.  0.
        -12    1    1    2    0    0  0.11539078913E+01  0.38474302759E+02  0.20050416241E+02  0.43400721971E+02  0.00000000000E+00 0.  1.
         11    1    3    3    0    0  0.54798013166E+01 -0.18981824505E+01 -0.23897995564E+01  0.62723569147E+01  0.51100000000E-03 0. -1.
        -11    1    3    3    0    0 -0.66187441001E+01 -0.24779031589E+02 -0.10493992014E+02  0.27711586902E+02  0.51100000000E-03 0.  1.
         12    1    3    3    0    0 -0.14965107769E-01 -0.11797088719E+02 -0.71666246706E+01  0.13803334212E+02  0.00000000000E+00 0. -1.
</event>
<event>
 7    1  0.2642243E-009  0.4778727E+02  0.7816164E-02  0.1312668E+00
        -11   -1    0    0    0    0  0.00000000000E+00  0.00000000000E+00  0.45593999997E+02  0.45594000000E+02  0.51100000000E-03 0. -1.
         11   -1    0    0    0    0 -0.00000000000E+00 -0.00000000000E+00 -0.45593999997E+02  0.45594000000E+02  0.51100000000E-03 0.  1.
    9900012    2    1    2    0    0  0.31849862712E+02 -0.13519661585E+02  0.26199770490E+02  0.47787274454E+02  0.20000015547E+02 0.  0.
        -12    1    1    2    0    0 -0.31849862712E+02  0.13519661585E+02 -0.26199770490E+02  0.43400725546E+02  0.00000000000E+00 0.  1.
         11    1    3    3    0    0  0.16472650006E+02 -0.18460514514E+01  0.15515884732E+02  0.22704598289E+02  0.51100000000E-03 0. -1.
        -11    1    3    3    0    0  0.11590274976E+02 -0.13514600253E+02  0.60079835877E+01  0.18790283688E+02  0.51100000000E-03 0.  1.
        -12    1    3    3    0    0  0.37869377307E+01  0.18409901190E+01  0.46759021702E+01  0.62923924782E+01  0.00000000000E+00 0.  1.
</event>
<event>
 7    1  0.2642243E-009  0.4778728E+02  0.7816164E-02  0.1312668E+00
        -11   -1    0    0    0    0  0.00000000000E+00  0.00000000000E+00  0.45593999997E+02  0.45594000000E+02  0.51100000000E-03 0.  1.
         11   -1    0    0    0    0 -0.00000000000E+00 -0.00000000000E+00 -0.45593999997E+02  0.45594000000E+02  0.51100000000E-03 0. -1.
    9900012    2    1    2    0    0 -0.29805852290E+02  0.23931254073E+02  0.20555512895E+02  0.47787275782E+02  0.20000021602E+02 0.  0.
        -12    1    1    2    0    0  0.29805852290E+02 -0.23931254073E+02 -0.20555512895E+02  0.43400724218E+02  0.00000000000E+00 0.  1.
         11    1    3    3    0    0 -0.19768235047E+02  0.10826911810E+02  0.18229474385E+02  0.28988254049E+02  0.51100000000E-03 0. -1.
        -11    1    3    3    0    0  0.74893247940E+00  0.33004146147E+01 -0.15408583945E+01  0.37185859330E+01  0.51100000000E-03 0.  1.
         12    1    3    3    0    0 -0.10786549722E+02  0.98039276486E+01  0.38668969042E+01  0.15080435800E+02  0.00000000000E+00 0. -1.
</event>
<event>
 7    1  0.2642243E-009  0.4778727E+02  0.7816164E-02  0.1312668E+00
        -11   -1    0    0    0    0  0.00000000000E+00  0.00000000000E+00  0.45593999997E+02  0.45594000000E+02  0.51100000000E-03 0.  1.
         11   -1    0    0    0    0 -0.00000000000E+00 -0.00000000000E+00 -0.45593999997E+02  0.45594000000E+02  0.51100000000E-03 0. -1.
    9900012    2    1    2    0    0 -0.45116449264E+01  0.38857833516E+01 -0.42990338164E+02  0.47787269273E+02  0.19999991921E+02 0.  0.
        -12    1    1    2    0    0  0.45116449264E+01 -0.38857833516E+01  0.42990338164E+02  0.43400730727E+02  0.00000000000E+00 0.  1.
         11    1    3    3    0    0  0.61861191469E+00  0.46272138437E+00 -0.98319816916E+01  0.98622845237E+01  0.51100000000E-03 0. -1.
        -11    1    3    3    0    0  0.35186031626E+01 -0.37654404314E+01 -0.19815984337E+02  0.20475164111E+02  0.51100000000E-03 0.  1.
        -12    1    3    3    0    0 -0.86488600037E+01  0.71885023986E+01 -0.13342372136E+02  0.17449820638E+02  0.00000000000E+00 0.  1.
</event>
<event>
 7    1  0.2642243E-009  0.4778727E+02  0.7816164E-02  0.1312668E+00
        -11   -1    0    0    0    0  0.00000000000E+00  0.00000000000E+00  0.45593999997E+02  0.45594000000E+02  0.51100000000E-03 0.  1.
         11   -1    0    0    0    0 -0.00000000000E+00 -0.00000000000E+00 -0.45593999997E+02  0.45594000000E+02  0.51100000000E-03 0. -1.
    9900012    2    1    2    0    0  0.36364714337E+02  0.15037638726E+02 -0.18305745647E+02  0.47787270156E+02  0.19999995951E+02 0.  0.
        -12    1    1    2    0    0 -0.36364714337E+02 -0.15037638726E+02  0.18305745647E+02  0.43400729844E+02  0.00000000000E+00 0.  1.
         11    1    3    3    0    0  0.15567756974E+02  0.49599453514E+01 -0.12807148391E+02  0.20760037699E+02  0.51100000000E-03 0. -1.
        -11    1    3    3    0    0  0.18331072230E+02  0.78211138565E+01  0.74657580600E+00  0.19943806225E+02  0.51100000000E-03 0.  1.
        -12    1    3    3    0    0  0.24658851325E+01  0.22565795181E+01 -0.62451730622E+01  0.70834262321E+01  0.00000000000E+00 0.  1.
</event>
<event>
 7    1  0.2642243E-009  0.4778727E+02  0.7816164E-02  0.1312668E+00
        -11   -1    0    0    0    0  0.00000000000E+00  0.00000000000E+00  0.45593999997E+02  0.45594000000E+02  0.51100000000E-03 0. -1.
         11   -1    0    0    0    0 -0.00000000000E+00 -0.00000000000E+00 -0.45593999997E+02  0.45594000000E+02  0.51100000000E-03 0.  1.
    9900012    2    1    2    0    0 -0.13935999642E+02  0.22120235572E+02  0.34642553944E+02  0.47787268997E+02  0.19999990667E+02 0.  0.
        -12    1    1    2    0    0  0.13935999642E+02 -0.22120235572E+02 -0.34642553944E+02  0.43400731003E+02  0.00000000000E+00 0.  1.
         11    1    3    3    0    0 -0.45123912168E+01  0.14617488003E+02  0.75909970209E+01  0.17077935063E+02  0.51100000000E-03 0. -1.
        -11    1    3    3    0    0 -0.26562626614E+01  0.25777409143E+01  0.18018533755E+02  0.18394782915E+02  0.51100000000E-03 0.  1.
        -12    1    3    3    0    0 -0.67673457638E+01  0.49250066551E+01  0.90330231678E+01  0.12314551019E+02  0.00000000000E+00 0.  1.
</event>
<event>
 7    1  0.2642243E-009  0.4778729E+02  0.7816164E-02  0.1312668E+00
        -11   -1    0    0    0    0  0.00000000000E+00  0.00000000000E+00  0.45593999997E+02  0.45594000000E+02  0.51100000000E-03 0.  1.
         11   -1    0    0    0    0 -0.00000000000E+00 -0.00000000000E+00 -0.45593999997E+02  0.45594000000E+02  0.51100000000E-03 0. -1.
    9900012    2    1    2    0    0  0.26524059625E+02  0.28037419085E+02 -0.19849416149E+02  0.47787286533E+02  0.20000070621E+02 0.  0.
        -12    1    1    2    0    0 -0.26524059625E+02 -0.28037419085E+02  0.19849416149E+02  0.43400713467E+02  0.00000000000E+00 0.  1.
         11    1    3    3    0    0  0.78986322759E+01  0.99935248668E+01 -0.11914428405E+02  0.17441689585E+02  0.51100000000E-03 0. -1.
        -11    1    3    3    0    0  0.11111565609E+02  0.14366697492E+02  0.89223110997E+00  0.18184195438E+02  0.51100000000E-03 0.  1.
        -12    1    3    3    0    0  0.75138617396E+01  0.36771967266E+01 -0.88272188540E+01  0.12161401511E+02  0.00000000000E+00 0.  1.
</event>
<event>
 7    1  0.2642243E-009  0.4778727E+02  0.7816164E-02  0.1312668E+00
        -11   -1    0    0    0    0  0.00000000000E+00  0.00000000000E+00  0.45593999997E+02  0.45594000000E+02  0.51100000000E-03 0. -1.
         11   -1    0    0    0    0 -0.00000000000E+00 -0.00000000000E+00 -0.45593999997E+02  0.45594000000E+02  0.51100000000E-03 0.  1.
    9900012    2    1    2    0    0 -0.29712127651E+02 -0.17317836657E+02  0.26474611499E+02  0.47787273623E+02  0.20000011756E+02 0.  0.
        -12    1    1    2    0    0  0.29712127651E+02  0.17317836657E+02 -0.26474611499E+02  0.43400726377E+02  0.00000000000E+00 0.  1.
         11    1    3    3    0    0 -0.12530610197E+02 -0.13278758024E+01  0.11107193972E+02  0.16797297528E+02  0.51100000000E-03 0. -1.
        -11    1    3    3    0    0 -0.16540026435E+02 -0.18000904874E+02  0.15375365206E+02  0.28879177728E+02  0.51100000000E-03 0.  1.
        -12    1    3    3    0    0 -0.64149101924E+00  0.20109440197E+01 -0.79476795131E-02  0.21107983664E+01  0.00000000000E+00 0.  1.
</event>
<event>
 7    1  0.2642243E-009  0.4778728E+02  0.7816164E-02  0.1312668E+00
        -11   -1    0    0    0    0  0.00000000000E+00  0.00000000000E+00  0.45593999997E+02  0.45594000000E+02  0.51100000000E-03 0. -1.
         11   -1    0    0    0    0 -0.00000000000E+00 -0.00000000000E+00 -0.45593999997E+02  0.45594000000E+02  0.51100000000E-03 0.  1.
    9900012    2    1    2    0    0 -0.32290469496E+02  0.12604888598E+02 -0.26116367004E+02  0.47787282697E+02  0.20000053130E+02 0.  0.
        -12    1    1    2    0    0  0.32290469496E+02 -0.12604888598E+02  0.26116367004E+02  0.43400717303E+02  0.00000000000E+00 0.  1.
         11    1    3    3    0    0 -0.23649410060E+01  0.17483360615E+01  0.13213383093E+00  0.29439912630E+01  0.51100000000E-03 0. -1.
        -11    1    3    3    0    0  0.12901931784E+01  0.42409506762E+01 -0.36536040712E+01  0.57444829224E+01  0.51100000000E-03 0.  1.
        -12    1    3    3    0    0 -0.31215721669E+02  0.66156018608E+01 -0.22594896764E+02  0.39098808512E+02  0.00000000000E+00 0.  1.
</event>
<event>
 7    1  0.2642243E-009  0.4778727E+02  0.7816164E-02  0.1312668E+00
        -11   -1    0    0    0    0  0.00000000000E+00  0.00000000000E+00  0.45593999997E+02  0.45594000000E+02  0.51100000000E-03 0.  1.
         11   -1    0    0    0    0 -0.00000000000E+00 -0.00000000000E+00 -0.45593999997E+02  0.45594000000E+02  0.51100000000E-03 0. -1.
    9900012    2    1    2    0    0 -0.13009733376E+01 -0.28330275007E+02 -0.32853105913E+02  0.47787267497E+02  0.19999983827E+02 0.  0.
        -12    1    1    2    0    0  0.13009733376E+01  0.28330275007E+02  0.32853105913E+02  0.43400732503E+02  0.00000000000E+00 0.  1.
         11    1    3    3    0    0  0.10916848913E+01 -0.16142106537E+02 -0.21915385129E+02  0.27240475124E+02  0.51100000000E-03 0. -1.
        -11    1    3    3    0    0 -0.65347257968E+01 -0.57206228924E+01 -0.22916936968E+01  0.89822061754E+01  0.51100000000E-03 0.  1.
        -12    1    3    3    0    0  0.41420675679E+01 -0.64675455779E+01 -0.86460270876E+01  0.11564586198E+02  0.00000000000E+00 0.  1.
</event>
<event>
 7    1  0.2642243E-009  0.4778730E+02  0.7816164E-02  0.1312668E+00
        -11   -1    0    0    0    0  0.00000000000E+00  0.00000000000E+00  0.45593999997E+02  0.45594000000E+02  0.51100000000E-03 0.  1.
         11   -1    0    0    0    0 -0.00000000000E+00 -0.00000000000E+00 -0.45593999997E+02  0.45594000000E+02  0.51100000000E-03 0. -1.
    9900012    2    1    2    0    0 -0.99011515268E+01  0.35263745786E+02 -0.23282096748E+02  0.47787301879E+02  0.20000140585E+02 0.  0.
        -12    1    1    2    0    0  0.99011515268E+01 -0.35263745786E+02  0.23282096748E+02  0.43400698121E+02  0.00000000000E+00 0.  1.
         11    1    3    3    0    0 -0.67384491932E-01  0.25825164017E+02 -0.10615417660E+02  0.27921868303E+02  0.51100000000E-03 0. -1.
        -11    1    3    3    0    0 -0.10796357945E+02  0.75660675689E+01 -0.10617949836E+02  0.16927716394E+02  0.51100000000E-03 0.  1.
         12    1    3    3    0    0  0.96259091016E+00  0.18725142006E+01 -0.20487292522E+01  0.29377171819E+01  0.00000000000E+00 0. -1.
</event>
<event>
 7    1  0.2642243E-009  0.4778727E+02  0.7816164E-02  0.1312668E+00
        -11   -1    0    0    0    0  0.00000000000E+00  0.00000000000E+00  0.45593999997E+02  0.45594000000E+02  0.51100000000E-03 0. -1.
         11   -1    0    0    0    0 -0.00000000000E+00 -0.00000000000E+00 -0.45593999997E+02  0.45594000000E+02  0.51100000000E-03 0.  1.
    9900012    2    1    2    0    0  0.58933588121E+01  0.41366241692E+02  0.11735655178E+02  0.47787271524E+02  0.20000002184E+02 0.  0.
        -12    1    1    2    0    0 -0.58933588121E+01 -0.41366241692E+02 -0.11735655178E+02  0.43400728476E+02  0.00000000000E+00 0.  1.
         11    1    3    3    0    0 -0.51547460236E+01  0.17341088254E+02  0.77741917187E+01  0.19690678138E+02  0.51100000000E-03 0. -1.
        -11    1    3    3    0    0  0.85060343946E+01  0.87424029349E+01  0.30710625846E+01  0.12578300992E+02  0.51100000000E-03 0.  1.
         12    1    3    3    0    0  0.25420704411E+01  0.15282750504E+02  0.89040087518E+00  0.15518292393E+02  0.00000000000E+00 0. -1.
</event>
<event>
 7    1  0.2642243E-009  0.4778727E+02  0.7816164E-02  0.1312668E+00
        -11   -1    0    0    0    0  0.00000000000E+00  0.00000000000E+00  0.45593999997E+02  0.45594000000E+02  0.51100000000E-03 0. -1.
         11   -1    0    0    0    0 -0.00000000000E+00 -0.00000000000E+00 -0.45593999997E+02  0.45594000000E+02  0.51100000000E-03 0.  1.
    9900012    2    1    2    0    0  0.92582301775E+01 -0.17640177819E+02  0.38558174443E+02  0.47787268257E+02  0.19999987290E+02 0.  0.
        -12    1    1    2    0    0 -0.92582301775E+01  0.17640177819E+02 -0.38558174443E+02  0.43400731743E+02  0.00000000000E+00 0.  1.
         11    1    3    3    0    0 -0.73445546661E+00 -0.10662626693E+01  0.13031256393E+02  0.13095418449E+02  0.51100000000E-03 0. -1.
        -11    1    3    3    0    0  0.67243182901E+01 -0.12628845106E+02  0.79169718699E+01  0.16351838705E+02  0.51100000000E-03 0.  1.
         12    1    3    3    0    0  0.32683673540E+01 -0.39450700440E+01  0.17609946180E+02  0.18340011103E+02  0.00000000000E+00 0. -1.
</event>
<event>
 7    1  0.2642243E-009  0.4778727E+02  0.7816164E-02  0.1312668E+00
        -11   -1    0    0    0    0  0.00000000000E+00  0.00000000000E+00  0.45593999997E+02  0.45594000000E+02  0.51100000000E-03 0. -1.
         11   -1    0    0    0    0 -0.00000000000E+00 -0.00000000000E+00 -0.45593999997E+02  0.45594000000E+02  0.51100000000E-03 0.  1.
    9900012    2    1    2    0    0  0.16667599370E+02  0.17608410078E+02  0.35996640727E+02  0.47787272842E+02  0.20000008197E+02 0.  0.
        -12    1    1    2    0    0 -0.16667599370E+02 -0.17608410078E+02 -0.35996640727E+02  0.43400727158E+02  0.00000000000E+00 0.  1.
         11    1    3    3    0    0  0.73871902433E+00 -0.35057852152E+00  0.11216631669E+01  0.13880704657E+01  0.51100000000E-03 0. -1.
        -11    1    3    3    0    0 -0.21568734008E+01  0.10053947135E+02  0.78641703047E+01  0.12945235830E+02  0.51100000000E-03 0.  1.
        -12    1    3    3    0    0  0.18085753746E+02  0.79050414654E+01  0.27010807255E+02  0.33453966546E+02  0.00000000000E+00 0.  1.
</event>
<event>
 7    1  0.2642243E-009  0.4778727E+02  0.7816164E-02  0.1312668E+00
        -11   -1    0    0    0    0  0.00000000000E+00  0.00000000000E+00  0.45593999997E+02  0.45594000000E+02  0.51100000000E-03 0.  1.
         11   -1    0    0    0    0 -0.00000000000E+00 -0.00000000000E+00 -0.45593999997E+02  0.45594000000E+02  0.51100000000E-03 0. -1.
    9900012    2    1    2    0    0  0.49200917054E+00  0.33712375625E+02 -0.27328684862E+02  0.47787270057E+02  0.19999995497E+02 0.  0.
        -12    1    1    2    0    0 -0.49200917054E+00 -0.33712375625E+02  0.27328684862E+02  0.43400729943E+02  0.00000000000E+00 0.  1.
         11    1    3    3    0    0  0.41568158204E+01  0.24306908819E+02 -0.22225145489E+02  0.33197319566E+02  0.51100000000E-03 0. -1.
        -11    1    3    3    0    0 -0.59489088403E+01  0.88159830463E+01 -0.22202725019E+01  0.10864652949E+02  0.51100000000E-03 0.  1.
        -12    1    3    3    0    0  0.22841021905E+01  0.58948375920E+00 -0.28832668718E+01  0.37252975415E+01  0.00000000000E+00 0.  1.
</event>
<event>
 7    1  0.2642243E-009  0.4778727E+02  0.7816164E-02  0.1312668E+00
        -11   -1    0    0    0    0  0.00000000000E+00  0.00000000000E+00  0.45593999997E+02  0.45594000000E+02  0.51100000000E-03 0.  1.
         11   -1    0    0    0    0 -0.00000000000E+00 -0.00000000000E+00 -0.45593999997E+02  0.45594000000E+02  0.51100000000E-03 0. -1.
    9900012    2    1    2    0    0  0.78864958195E+01 -0.42324628716E+02  0.54820288165E+01  0.47787266686E+02  0.19999980128E+02 0.  0.
        -12    1    1    2    0    0 -0.78864958195E+01  0.42324628716E+02 -0.54820288165E+01  0.43400733314E+02  0.00000000000E+00 0.  1.
         11    1    3    3    0    0  0.59230721699E+01 -0.13518819862E+02 -0.50403071158E+01  0.15596344779E+02  0.51100000000E-03 0. -1.
        -11    1    3    3    0    0  0.32708528276E+01 -0.26248078346E+01  0.11042574437E+01  0.43367590608E+01  0.51100000000E-03 0.  1.
         12    1    3    3    0    0 -0.13074291780E+01 -0.26181001019E+02  0.94180784885E+01  0.27854162846E+02  0.00000000000E+00 0. -1.
</event>
<event>
 7    1  0.2642243E-009  0.4778727E+02  0.7816164E-02  0.1312668E+00
        -11   -1    0    0    0    0  0.00000000000E+00  0.00000000000E+00  0.45593999997E+02  0.45594000000E+02  0.51100000000E-03 0.  1.
         11   -1    0    0    0    0 -0.00000000000E+00 -0.00000000000E+00 -0.45593999997E+02  0.45594000000E+02  0.51100000000E-03 0. -1.
    9900012    2    1    2    0    0 -0.18203327798E+02 -0.58486806819E+01 -0.38962228659E+02  0.47787268776E+02  0.19999989658E+02 0.  0.
        -12    1    1    2    0    0  0.18203327798E+02  0.58486806819E+01  0.38962228659E+02  0.43400731224E+02  0.00000000000E+00 0.  1.
         11    1    3    3    0    0 -0.13331965326E+02 -0.98223074726E+01 -0.20027965299E+02  0.25987274152E+02  0.51100000000E-03 0. -1.
        -11    1    3    3    0    0 -0.69300477248E+01  0.46698043858E+01 -0.12745447522E+02  0.15240704290E+02  0.51100000000E-03 0.  1.
        -12    1    3    3    0    0  0.20586852519E+01 -0.69617759503E+00 -0.61888158383E+01  0.65592903344E+01  0.00000000000E+00 0.  1.
</event>
<event>
 7    1  0.2642243E-009  0.4778727E+02  0.7816164E-02  0.1312668E+00
        -11   -1    0    0    0    0  0.00000000000E+00  0.00000000000E+00  0.45593999997E+02  0.45594000000E+02  0.51100000000E-03 0.  1.
         11   -1    0    0    0    0 -0.00000000000E+00 -0.00000000000E+00 -0.45593999997E+02  0.45594000000E+02  0.51100000000E-03 0. -1.
    9900012    2    1    2    0    0 -0.30423989960E+02 -0.30517885404E+02 -0.51635967049E+01  0.47787271601E+02  0.20000002540E+02 0.  0.
        -12    1    1    2    0    0  0.30423989960E+02  0.30517885404E+02  0.51635967049E+01  0.43400728399E+02  0.00000000000E+00 0.  1.
         11    1    3    3    0    0 -0.18821028859E+01 -0.59448010029E+01 -0.34588315520E+01  0.71306722126E+01  0.51100000000E-03 0. -1.
        -11    1    3    3    0    0 -0.17101023611E+02 -0.15662413277E+02 -0.84263753370E+01  0.24673062230E+02  0.51100000000E-03 0.  1.
        -12    1    3    3    0    0 -0.11440863463E+02 -0.89106711239E+01  0.67216101841E+01  0.15983537159E+02  0.00000000000E+00 0.  1.
</event>
<event>
 7    1  0.2642243E-009  0.4778727E+02  0.7816164E-02  0.1312668E+00
        -11   -1    0    0    0    0  0.00000000000E+00  0.00000000000E+00  0.45593999997E+02  0.45594000000E+02  0.51100000000E-03 0.  1.
         11   -1    0    0    0    0 -0.00000000000E+00 -0.00000000000E+00 -0.45593999997E+02  0.45594000000E+02  0.51100000000E-03 0. -1.
    9900012    2    1    2    0    0 -0.22932116389E+01  0.10904172225E+02 -0.41945955430E+02  0.47787274563E+02  0.20000016043E+02 0.  0.
        -12    1    1    2    0    0  0.22932116389E+01 -0.10904172225E+02  0.41945955430E+02  0.43400725437E+02  0.00000000000E+00 0.  1.
         11    1    3    3    0    0 -0.42944479429E+01  0.64828226546E+01 -0.26708366400E+02  0.27817370629E+02  0.51100000000E-03 0. -1.
        -11    1    3    3    0    0 -0.21749261984E+00  0.83620951944E+01 -0.10420562985E+02  0.13362637175E+02  0.51100000000E-03 0.  1.
         12    1    3    3    0    0  0.22187289239E+01 -0.39407456237E+01 -0.48170260449E+01  0.66072667591E+01  0.00000000000E+00 0. -1.
</event>
<event>
 7    1  0.2642243E-009  0.4778728E+02  0.7816164E-02  0.1312668E+00
        -11   -1    0    0    0    0  0.00000000000E+00  0.00000000000E+00  0.45593999997E+02  0.45594000000E+02  0.51100000000E-03 0.  1.
         11   -1    0    0    0    0 -0.00000000000E+00 -0.00000000000E+00 -0.45593999997E+02  0.45594000000E+02  0.51100000000E-03 0. -1.
    9900012    2    1    2    0    0  0.23403365697E+02 -0.27268158584E+02 -0.24338285179E+02  0.47787284292E+02  0.20000060400E+02 0.  0.
        -12    1    1    2    0    0 -0.23403365697E+02  0.27268158584E+02  0.24338285179E+02  0.43400715708E+02  0.00000000000E+00 0.  1.
         11    1    3    3    0    0  0.13092873029E+02 -0.64669458171E+01 -0.62164808122E+01  0.15871022220E+02  0.51100000000E-03 0. -1.
        -11    1    3    3    0    0  0.10339082640E+02 -0.19346832344E+02 -0.19900826455E+02  0.29618228263E+02  0.51100000000E-03 0.  1.
        -12    1    3    3    0    0 -0.28589971778E-01 -0.14543804227E+01  0.17790220875E+01  0.22980338092E+01  0.00000000000E+00 0.  1.
</event>
<event>
 7    1  0.2642243E-009  0.4778727E+02  0.7816164E-02  0.1312668E+00
        -11   -1    0    0    0    0  0.00000000000E+00  0.00000000000E+00  0.45593999997E+02  0.45594000000E+02  0.51100000000E-03 0. -1.
         11   -1    0    0    0    0 -0.00000000000E+00 -0.00000000000E+00 -0.45593999997E+02  0.45594000000E+02  0.51100000000E-03 0.  1.
    9900012    2    1    2    0    0 -0.13213079792E+02 -0.36235064944E+02  0.19901209236E+02  0.47787268000E+02  0.19999986119E+02 0.  0.
        -12    1    1    2    0    0  0.13213079792E+02  0.36235064944E+02 -0.19901209236E+02  0.43400732000E+02  0.00000000000E+00 0.  1.
         11    1    3    3    0    0 -0.27596950664E+01 -0.23018080437E+02  0.60604663575E+01  0.23961994838E+02  0.51100000000E-03 0. -1.
        -11    1    3    3    0    0 -0.97525856117E+01 -0.11918002481E+02  0.15329481663E+02  0.21728891310E+02  0.51100000000E-03 0.  1.
        -12    1    3    3    0    0 -0.70079911373E+00 -0.12989820259E+01 -0.14887387844E+01  0.20963818520E+01  0.00000000000E+00 0.  1.
</event>
<event>
 7    1  0.2642243E-009  0.4778727E+02  0.7816164E-02  0.1312668E+00
        -11   -1    0    0    0    0  0.00000000000E+00  0.00000000000E+00  0.45593999997E+02  0.45594000000E+02  0.51100000000E-03 0. -1.
         11   -1    0    0    0    0 -0.00000000000E+00 -0.00000000000E+00 -0.45593999997E+02  0.45594000000E+02  0.51100000000E-03 0.  1.
    9900012    2    1    2    0    0 -0.20812118223E+02  0.38041848564E+02 -0.18157146804E+01  0.47787270433E+02  0.19999997214E+02 0.  0.
        -12    1    1    2    0    0  0.20812118223E+02 -0.38041848564E+02  0.18157146804E+01  0.43400729567E+02  0.00000000000E+00 0.  1.
         11    1    3    3    0    0 -0.60782007278E+01  0.27054172145E+02 -0.53770442689E+01  0.28245094439E+02  0.51100000000E-03 0. -1.
        -11    1    3    3    0    0 -0.95029722578E+01  0.65065817000E+01 -0.53285032463E+00  0.11529354574E+02  0.51100000000E-03 0.  1.
         12    1    3    3    0    0 -0.52309452377E+01  0.44810947193E+01  0.40941799131E+01  0.80128214210E+01  0.00000000000E+00 0. -1.
</event>
<event>
 7    1  0.2642243E-009  0.4778727E+02  0.7816164E-02  0.1312668E+00
        -11   -1    0    0    0    0  0.00000000000E+00  0.00000000000E+00  0.45593999997E+02  0.45594000000E+02  0.51100000000E-03 0. -1.
         11   -1    0    0    0    0 -0.00000000000E+00 -0.00000000000E+00 -0.45593999997E+02  0.45594000000E+02  0.51100000000E-03 0.  1.
    9900012    2    1    2    0    0 -0.12254664734E+02  0.24918179872E+02  0.33354622706E+02  0.47787270148E+02  0.19999995911E+02 0.  0.
        -12    1    1    2    0    0  0.12254664734E+02 -0.24918179872E+02 -0.33354622706E+02  0.43400729852E+02  0.00000000000E+00 0.  1.
         11    1    3    3    0    0 -0.38255056072E+01  0.52609959314E+01  0.10689617657E+02  0.12513212907E+02  0.51100000000E-03 0. -1.
        -11    1    3    3    0    0 -0.10918959219E+02  0.20869632703E+02  0.22379411632E+02  0.32490049320E+02  0.51100000000E-03 0.  1.
        -12    1    3    3    0    0  0.24898000930E+01 -0.12124487617E+01  0.28559341721E+00  0.27840079208E+01  0.00000000000E+00 0.  1.
</event>
<event>
 7    1  0.2642243E-009  0.4778727E+02  0.7816164E-02  0.1312668E+00
        -11   -1    0    0    0    0  0.00000000000E+00  0.00000000000E+00  0.45593999997E+02  0.45594000000E+02  0.51100000000E-03 0. -1.
         11   -1    0    0    0    0 -0.00000000000E+00 -0.00000000000E+00 -0.45593999997E+02  0.45594000000E+02  0.51100000000E-03 0.  1.
    9900012    2    1    2    0    0  0.22880025348E+01 -0.16069958353E+01  0.43310572688E+02  0.47787273073E+02  0.20000009248E+02 0.  0.
        -12    1    1    2    0    0 -0.22880025348E+01  0.16069958353E+01 -0.43310572688E+02  0.43400726927E+02  0.00000000000E+00 0.  1.
         11    1    3    3    0    0  0.51001380073E+01 -0.70559199181E+01  0.13959660932E+02  0.16452037782E+02  0.51100000000E-03 0. -1.
        -11    1    3    3    0    0  0.10599014142E+01 -0.12937501007E+01  0.10250816345E+01  0.19616250787E+01  0.51100000000E-03 0.  1.
         12    1    3    3    0    0 -0.38720368866E+01  0.67426741834E+01  0.28325830122E+02  0.29373610212E+02  0.00000000000E+00 0. -1.
</event>
<event>
 7    1  0.2642243E-009  0.4778727E+02  0.7816164E-02  0.1312668E+00
        -11   -1    0    0    0    0  0.00000000000E+00  0.00000000000E+00  0.45593999997E+02  0.45594000000E+02  0.51100000000E-03 0. -1.
         11   -1    0    0    0    0 -0.00000000000E+00 -0.00000000000E+00 -0.45593999997E+02  0.45594000000E+02  0.51100000000E-03 0.  1.
    9900012    2    1    2    0    0  0.72593057342E+01 -0.36310791793E+02  0.22637400815E+02  0.47787273784E+02  0.20000012492E+02 0.  0.
        -12    1    1    2    0    0 -0.72593057342E+01  0.36310791793E+02 -0.22637400815E+02  0.43400726216E+02  0.00000000000E+00 0.  1.
         11    1    3    3    0    0  0.67455441036E+01 -0.28449668269E+02  0.20598321733E+02  0.35765581896E+02  0.51100000000E-03 0. -1.
        -11    1    3    3    0    0  0.22533347844E+01  0.12155667282E+01  0.13011919404E-01  0.25603299968E+01  0.51100000000E-03 0.  1.
         12    1    3    3    0    0 -0.17395731538E+01 -0.90766902522E+01  0.20260671622E+01  0.94613618913E+01  0.00000000000E+00 0. -1.
</event>
<event>
 7    1  0.2642243E-009  0.4778727E+02  0.7816164E-02  0.1312668E+00
        -11   -1    0    0    0    0  0.00000000000E+00  0.00000000000E+00  0.45593999997E+02  0.45594000000E+02  0.51100000000E-03 0. -1.
         11   -1    0    0    0    0 -0.00000000000E+00 -0.00000000000E+00 -0.45593999997E+02  0.45594000000E+02  0.51100000000E-03 0.  1.
    9900012    2    1    2    0    0 -0.74087165093E+01 -0.32922455189E+02  0.27291869209E+02  0.47787271194E+02  0.20000000683E+02 0.  0.
        -12    1    1    2    0    0  0.74087165093E+01  0.32922455189E+02 -0.27291869209E+02  0.43400728806E+02  0.00000000000E+00 0.  1.
         11    1    3    3    0    0 -0.44948156398E+01 -0.13244544740E+02  0.16314096533E+01  0.14081293646E+02  0.51100000000E-03 0. -1.
        -11    1    3    3    0    0 -0.36011947548E+01 -0.19015129282E+02  0.19505550198E+02  0.27477449556E+02  0.51100000000E-03 0.  1.
        -12    1    3    3    0    0  0.68729388527E+00 -0.66278116567E+00  0.61549093577E+01  0.62285279930E+01  0.00000000000E+00 0.  1.
</event>
<event>
 7    1  0.2642243E-009  0.4778727E+02  0.7816164E-02  0.1312668E+00
        -11   -1    0    0    0    0  0.00000000000E+00  0.00000000000E+00  0.45593999997E+02  0.45594000000E+02  0.51100000000E-03 0. -1.
         11   -1    0    0    0    0 -0.00000000000E+00 -0.00000000000E+00 -0.45593999997E+02  0.45594000000E+02  0.51100000000E-03 0.  1.
    9900012    2    1    2    0    0 -0.48763082064E+01  0.37847921911E+02  0.20673161790E+02  0.47787271975E+02  0.20000004244E+02 0.  0.
        -12    1    1    2    0    0  0.48763082064E+01 -0.37847921911E+02 -0.20673161790E+02  0.43400728025E+02  0.00000000000E+00 0.  1.
         11    1    3    3    0    0 -0.86682843185E+01  0.88906178621E+01  0.27012284842E+01  0.12707433831E+02  0.51100000000E-03 0. -1.
        -11    1    3    3    0    0 -0.10355510287E+00  0.23254142132E+01  0.43037055750E+01  0.48928679586E+01  0.51100000000E-03 0.  1.
         12    1    3    3    0    0  0.38955312150E+01  0.26631889836E+02  0.13668227731E+02  0.30186970185E+02  0.00000000000E+00 0. -1.
</event>
<event>
 7    1  0.2642243E-009  0.4778732E+02  0.7816164E-02  0.1312668E+00
        -11   -1    0    0    0    0  0.00000000000E+00  0.00000000000E+00  0.45593999997E+02  0.45594000000E+02  0.51100000000E-03 0. -1.
         11   -1    0    0    0    0 -0.00000000000E+00 -0.00000000000E+00 -0.45593999997E+02  0.45594000000E+02  0.51100000000E-03 0.  1.
    9900012    2    1    2    0    0  0.30868609921E+02  0.63119530124E+01  0.29848061789E+02  0.47787324638E+02  0.20000244353E+02 0.  0.
        -12    1    1    2    0    0 -0.30868609921E+02 -0.63119530124E+01 -0.29848061789E+02  0.43400675362E+02  0.00000000000E+00 0.  1.
         11    1    3    3    0    0  0.21364605989E+02  0.74720324531E+01  0.20398061226E+02  0.30468977011E+02  0.51100000000E-03 0. -1.
        -11    1    3    3    0    0  0.19528954862E+00 -0.45795883434E+01  0.26602611056E+01  0.52997883744E+01  0.51100000000E-03 0.  1.
        -12    1    3    3    0    0  0.93087143839E+01  0.34195089026E+01  0.67897394577E+01  0.12018559253E+02  0.00000000000E+00 0.  1.
</event>
<event>
 7    1  0.2642243E-009  0.4778727E+02  0.7816164E-02  0.1312668E+00
        -11   -1    0    0    0    0  0.00000000000E+00  0.00000000000E+00  0.45593999997E+02  0.45594000000E+02  0.51100000000E-03 0.  1.
         11   -1    0    0    0    0 -0.00000000000E+00 -0.00000000000E+00 -0.45593999997E+02  0.45594000000E+02  0.51100000000E-03 0. -1.
    9900012    2    1    2    0    0  0.24740383295E+02  0.11671783670E+02 -0.33694307098E+02  0.47787269240E+02  0.19999991774E+02 0.  0.
        -12    1    1    2    0    0 -0.24740383295E+02 -0.11671783670E+02  0.33694307098E+02  0.43400730760E+02  0.00000000000E+00 0.  1.
         11    1    3    3    0    0  0.16409922238E+02 -0.25618455513E+01 -0.11925372543E+02  0.20446591673E+02  0.51100000000E-03 0. -1.
        -11    1    3    3    0    0  0.46545201188E+01  0.85391297875E+01 -0.13736126279E+02  0.16830402861E+02  0.51100000000E-03 0.  1.
         12    1    3    3    0    0  0.36759409383E+01  0.56944994338E+01 -0.80328082773E+01  0.10510274706E+02  0.00000000000E+00 0. -1.
</event>
<event>
 7    1  0.2642243E-009  0.4778726E+02  0.7816164E-02  0.1312668E+00
        -11   -1    0    0    0    0  0.00000000000E+00  0.00000000000E+00  0.45593999997E+02  0.45594000000E+02  0.51100000000E-03 0.  1.
         11   -1    0    0    0    0 -0.00000000000E+00 -0.00000000000E+00 -0.45593999997E+02  0.45594000000E+02  0.51100000000E-03 0. -1.
    9900012    2    1    2    0    0  0.99247311736E+01  0.28205878612E+02 -0.31457144257E+02  0.47787264961E+02  0.19999972261E+02 0.  0.
        -12    1    1    2    0    0 -0.99247311736E+01 -0.28205878612E+02  0.31457144257E+02  0.43400735039E+02  0.00000000000E+00 0.  1.
         11    1    3    3    0    0  0.55178904986E+01  0.15332178350E+02 -0.20788792109E+02  0.26413948704E+02  0.51100000000E-03 0. -1.
        -11    1    3    3    0    0  0.31198953812E+01  0.41689514347E+01  0.23073194351E+01  0.56954039796E+01  0.51100000000E-03 0.  1.
        -12    1    3    3    0    0  0.12869452938E+01  0.87047488273E+01 -0.12975671584E+02  0.15677912277E+02  0.00000000000E+00 0.  1.
</event>
<event>
 7    1  0.2642243E-009  0.4778727E+02  0.7816164E-02  0.1312668E+00
        -11   -1    0    0    0    0  0.00000000000E+00  0.00000000000E+00  0.45593999997E+02  0.45594000000E+02  0.51100000000E-03 0.  1.
         11   -1    0    0    0    0 -0.00000000000E+00 -0.00000000000E+00 -0.45593999997E+02  0.45594000000E+02  0.51100000000E-03 0. -1.
    9900012    2    1    2    0    0 -0.47874139319E+01 -0.75013204278E+01 -0.42478631180E+02  0.47787271351E+02  0.20000001399E+02 0.  0.
        -12    1    1    2    0    0  0.47874139319E+01  0.75013204278E+01  0.42478631180E+02  0.43400728649E+02  0.00000000000E+00 0.  1.
         11    1    3    3    0    0 -0.45362901042E+01 -0.11071254062E+02 -0.23593655054E+02  0.26453944006E+02  0.51100000000E-03 0. -1.
        -11    1    3    3    0    0 -0.11052919291E+01  0.63311772590E+01 -0.16031364475E+02  0.17271656635E+02  0.51100000000E-03 0.  1.
        -12    1    3    3    0    0  0.85416810146E+00 -0.27612436251E+01 -0.28536116511E+01  0.40616707102E+01  0.00000000000E+00 0.  1.
</event>
<event>
 7    1  0.2642243E-009  0.4778727E+02  0.7816164E-02  0.1312668E+00
        -11   -1    0    0    0    0  0.00000000000E+00  0.00000000000E+00  0.45593999997E+02  0.45594000000E+02  0.51100000000E-03 0.  1.
         11   -1    0    0    0    0 -0.00000000000E+00 -0.00000000000E+00 -0.45593999997E+02  0.45594000000E+02  0.51100000000E-03 0. -1.
    9900012    2    1    2    0    0 -0.25861058959E+02 -0.72258203818E+01 -0.34097162611E+02  0.47787270182E+02  0.19999996066E+02 0.  0.
        -12    1    1    2    0    0  0.25861058959E+02  0.72258203818E+01  0.34097162611E+02  0.43400729818E+02  0.00000000000E+00 0.  1.
         11    1    3    3    0    0 -0.13481857301E+02 -0.66086579939E+01 -0.20570954393E+02  0.25467606909E+02  0.51100000000E-03 0. -1.
        -11    1    3    3    0    0 -0.74630800503E+01  0.34242109617E+01 -0.10029825528E+01  0.82721677214E+01  0.51100000000E-03 0.  1.
        -12    1    3    3    0    0 -0.49161216075E+01 -0.40413733497E+01 -0.12523225665E+02  0.14047495551E+02  0.00000000000E+00 0.  1.
</event>
<event>
 7    1  0.2642243E-009  0.4778727E+02  0.7816164E-02  0.1312668E+00
        -11   -1    0    0    0    0  0.00000000000E+00  0.00000000000E+00  0.45593999997E+02  0.45594000000E+02  0.51100000000E-03 0. -1.
         11   -1    0    0    0    0 -0.00000000000E+00 -0.00000000000E+00 -0.45593999997E+02  0.45594000000E+02  0.51100000000E-03 0.  1.
    9900012    2    1    2    0    0 -0.29334594085E+01 -0.23208742089E+02  0.36556429174E+02  0.47787269506E+02  0.19999992986E+02 0.  0.
        -12    1    1    2    0    0  0.29334594085E+01  0.23208742089E+02 -0.36556429174E+02  0.43400730494E+02  0.00000000000E+00 0.  1.
         11    1    3    3    0    0 -0.61364228865E+00 -0.10009709810E+02  0.58733390205E+01  0.11621831132E+02  0.51100000000E-03 0. -1.
        -11    1    3    3    0    0 -0.75641422735E+01 -0.46290402282E+01  0.17187617316E+02  0.19340590762E+02  0.51100000000E-03 0.  1.
        -12    1    3    3    0    0  0.52443251536E+01 -0.85699920504E+01  0.13495472837E+02  0.16824847612E+02  0.00000000000E+00 0.  1.
</event>
<event>
 7    1  0.2642243E-009  0.4778727E+02  0.7816164E-02  0.1312668E+00
        -11   -1    0    0    0    0  0.00000000000E+00  0.00000000000E+00  0.45593999997E+02  0.45594000000E+02  0.51100000000E-03 0.  1.
         11   -1    0    0    0    0 -0.00000000000E+00 -0.00000000000E+00 -0.45593999997E+02  0.45594000000E+02  0.51100000000E-03 0. -1.
    9900012    2    1    2    0    0  0.13698998480E+02  0.11469889756E+01 -0.41166072630E+02  0.47787266379E+02  0.19999978729E+02 0.  0.
        -12    1    1    2    0    0 -0.13698998480E+02 -0.11469889756E+01  0.41166072630E+02  0.43400733621E+02  0.00000000000E+00 0.  1.
         11    1    3    3    0    0  0.63647642179E+01  0.55089728124E+01 -0.23688983301E+02  0.25140145884E+02  0.51100000000E-03 0. -1.
        -11    1    3    3    0    0  0.82082771926E+01 -0.44979259682E+01 -0.18831571348E+02  0.21029389724E+02  0.51100000000E-03 0.  1.
        -12    1    3    3    0    0 -0.87404293048E+00  0.13594213149E+00  0.13544820187E+01  0.16177307707E+01  0.00000000000E+00 0.  1.
</event>
<event>
 7    1  0.2642243E-009  0.4778727E+02  0.7816164E-02  0.1312668E+00
        -11   -1    0    0    0    0  0.00000000000E+00  0.00000000000E+00  0.45593999997E+02  0.45594000000E+02  0.51100000000E-03 0.  1.
         11   -1    0    0    0    0 -0.00000000000E+00 -0.00000000000E+00 -0.45593999997E+02  0.45594000000E+02  0.51100000000E-03 0. -1.
    9900012    2    1    2    0    0  0.19983152848E+02  0.19086659384E+02 -0.33466341709E+02  0.47787274296E+02  0.20000014827E+02 0.  0.
        -12    1    1    2    0    0 -0.19983152848E+02 -0.19086659384E+02  0.33466341709E+02  0.43400725704E+02  0.00000000000E+00 0.  1.
         11    1    3    3    0    0  0.19578211944E+02  0.11999025822E+02 -0.24323895907E+02  0.33450484540E+02  0.51100000000E-03 0. -1.
        -11    1    3    3    0    0  0.26577310595E+01  0.57108391674E+01 -0.18256442238E+01  0.65582158758E+01  0.51100000000E-03 0.  1.
         12    1    3    3    0    0 -0.22527901549E+01  0.13767943950E+01 -0.73168015778E+01  0.77785738806E+01  0.00000000000E+00 0. -1.
</event>
<event>
 7    1  0.2642243E-009  0.4778727E+02  0.7816164E-02  0.1312668E+00
        -11   -1    0    0    0    0  0.00000000000E+00  0.00000000000E+00  0.45593999997E+02  0.45594000000E+02  0.51100000000E-03 0.  1.
         11   -1    0    0    0    0 -0.00000000000E+00 -0.00000000000E+00 -0.45593999997E+02  0.45594000000E+02  0.51100000000E-03 0. -1.
    9900012    2    1    2    0    0 -0.27185304943E+02  0.23915533929E+02 -0.23929683102E+02  0.47787270728E+02  0.19999998559E+02 0.  0.
        -12    1    1    2    0    0  0.27185304943E+02 -0.23915533929E+02  0.23929683102E+02  0.43400729272E+02  0.00000000000E+00 0.  1.
         11    1    3    3    0    0 -0.24918148306E+02  0.11673293178E+02 -0.16038295268E+02  0.31849753594E+02  0.51100000000E-03 0. -1.
        -11    1    3    3    0    0  0.35551602713E+00  0.34652824761E+01 -0.54314645148E+01  0.64525484362E+01  0.51100000000E-03 0.  1.
         12    1    3    3    0    0 -0.26226726633E+01  0.87769582754E+01 -0.24599233195E+01  0.94849686981E+01  0.00000000000E+00 0. -1.
</event>
<event>
 7    1  0.2642243E-009  0.4778727E+02  0.7816164E-02  0.1312668E+00
        -11   -1    0    0    0    0  0.00000000000E+00  0.00000000000E+00  0.45593999997E+02  0.45594000000E+02  0.51100000000E-03 0.  1.
         11   -1    0    0    0    0 -0.00000000000E+00 -0.00000000000E+00 -0.45593999997E+02  0.45594000000E+02  0.51100000000E-03 0. -1.
    9900012    2    1    2    0    0 -0.27951057533E+02 -0.20034304182E+02 -0.26476180757E+02  0.47787272947E+02  0.20000008675E+02 0.  0.
        -12    1    1    2    0    0  0.27951057533E+02  0.20034304182E+02  0.26476180757E+02  0.43400727053E+02  0.00000000000E+00 0.  1.
         11    1    3    3    0    0 -0.17613770811E+02 -0.86117467385E+01 -0.90858721862E+01  0.21609261388E+02  0.51100000000E-03 0. -1.
        -11    1    3    3    0    0 -0.84254084918E+01 -0.13653733268E+02 -0.16703141136E+02  0.23160459073E+02  0.51100000000E-03 0.  1.
         12    1    3    3    0    0 -0.19118782297E+01  0.22311758244E+01 -0.68716743470E+00  0.30175524863E+01  0.00000000000E+00 0. -1.
</event>
<event>
 7    1  0.2642243E-009  0.4778727E+02  0.7816164E-02  0.1312668E+00
        -11   -1    0    0    0    0  0.00000000000E+00  0.00000000000E+00  0.45593999997E+02  0.45594000000E+02  0.51100000000E-03 0. -1.
         11   -1    0    0    0    0 -0.00000000000E+00 -0.00000000000E+00 -0.45593999997E+02  0.45594000000E+02  0.51100000000E-03 0.  1.
    9900012    2    1    2    0    0  0.12710391281E+02  0.41063491442E+02  0.59882482321E+01  0.47787268523E+02  0.19999988502E+02 0.  0.
        -12    1    1    2    0    0 -0.12710391281E+02 -0.41063491442E+02 -0.59882482321E+01  0.43400731477E+02  0.00000000000E+00 0.  1.
         11    1    3    3    0    0  0.97605332399E+01  0.15923627769E+02  0.62953508662E+01  0.19709423463E+02  0.51100000000E-03 0. -1.
        -11    1    3    3    0    0 -0.45785819060E+01  0.63076432297E+01 -0.17282093658E+00  0.77961299835E+01  0.51100000000E-03 0.  1.
        -12    1    3    3    0    0  0.75284399474E+01  0.18832220443E+02 -0.13428169748E+00  0.20281715076E+02  0.00000000000E+00 0.  1.
</event>
<event>
 7    1  0.2642243E-009  0.4778729E+02  0.7816164E-02  0.1312668E+00
        -11   -1    0    0    0    0  0.00000000000E+00  0.00000000000E+00  0.45593999997E+02  0.45594000000E+02  0.51100000000E-03 0.  1.
         11   -1    0    0    0    0 -0.00000000000E+00 -0.00000000000E+00 -0.45593999997E+02  0.45594000000E+02  0.51100000000E-03 0. -1.
    9900012    2    1    2    0    0  0.12758442875E+01  0.33505705934E+02 -0.27556520267E+02  0.47787286665E+02  0.20000071221E+02 0.  0.
        -12    1    1    2    0    0 -0.12758442875E+01 -0.33505705934E+02  0.27556520267E+02  0.43400713335E+02  0.00000000000E+00 0.  1.
         11    1    3    3    0    0  0.29846753117E+01  0.20404528800E+02 -0.14208089866E+02  0.25042422011E+02  0.51100000000E-03 0. -1.
        -11    1    3    3    0    0 -0.41038189431E+01  0.30560993125E+01 -0.11033105899E+02  0.12161846034E+02  0.51100000000E-03 0.  1.
         12    1    3    3    0    0  0.23949879189E+01  0.10045077821E+02 -0.23153245019E+01  0.10583018620E+02  0.00000000000E+00 0. -1.
</event>
<event>
 7    1  0.2642243E-009  0.4778727E+02  0.7816164E-02  0.1312668E+00
        -11   -1    0    0    0    0  0.00000000000E+00  0.00000000000E+00  0.45593999997E+02  0.45594000000E+02  0.51100000000E-03 0. -1.
         11   -1    0    0    0    0 -0.00000000000E+00 -0.00000000000E+00 -0.45593999997E+02  0.45594000000E+02  0.51100000000E-03 0.  1.
    9900012    2    1    2    0    0 -0.36919227905E+01  0.37831210724E+02  0.20947374706E+02  0.47787270677E+02  0.19999998325E+02 0.  0.
        -12    1    1    2    0    0  0.36919227905E+01 -0.37831210724E+02 -0.20947374706E+02  0.43400729323E+02  0.00000000000E+00 0.  1.
         11    1    3    3    0    0 -0.71194095337E+01  0.19450804203E+02  0.35632462189E+01  0.21017052604E+02  0.51100000000E-03 0. -1.
        -11    1    3    3    0    0  0.59649281861E+01  0.12442313725E+02  0.10562699803E+02  0.17377058626E+02  0.51100000000E-03 0.  1.
        -12    1    3    3    0    0 -0.25374414429E+01  0.59380927956E+01  0.68214286837E+01  0.93931594478E+01  0.00000000000E+00 0.  1.
</event>
<event>
 7    1  0.2642243E-009  0.4778728E+02  0.7816164E-02  0.1312668E+00
        -11   -1    0    0    0    0  0.00000000000E+00  0.00000000000E+00  0.45593999997E+02  0.45594000000E+02  0.51100000000E-03 0. -1.
         11   -1    0    0    0    0 -0.00000000000E+00 -0.00000000000E+00 -0.45593999997E+02  0.45594000000E+02  0.51100000000E-03 0.  1.
    9900012    2    1    2    0    0  0.32153091405E+01  0.32372573575E+02  0.28728054293E+02  0.47787276087E+02  0.20000022992E+02 0.  0.
        -12    1    1    2    0    0 -0.32153091405E+01 -0.32372573575E+02 -0.28728054293E+02  0.43400723913E+02  0.00000000000E+00 0.  1.
         11    1    3    3    0    0 -0.48687717598E+01  0.36698288844E+01  0.92297263796E+01  0.11061664965E+02  0.51100000000E-03 0. -1.
        -11    1    3    3    0    0 -0.45027215242E-01  0.13128706798E+02  0.53828952037E+01  0.14189451388E+02  0.51100000000E-03 0.  1.
         12    1    3    3    0    0  0.81291081156E+01  0.15574037892E+02  0.14115432709E+02  0.22536159735E+02  0.00000000000E+00 0. -1.
</event>
<event>
 7    1  0.2642243E-009  0.4778727E+02  0.7816164E-02  0.1312668E+00
        -11   -1    0    0    0    0  0.00000000000E+00  0.00000000000E+00  0.45593999997E+02  0.45594000000E+02  0.51100000000E-03 0. -1.
         11   -1    0    0    0    0 -0.00000000000E+00 -0.00000000000E+00 -0.45593999997E+02  0.45594000000E+02  0.51100000000E-03 0.  1.
    9900012    2    1    2    0    0 -0.35451164449E+02  0.17389151690E+02  0.18012649482E+02  0.47787271911E+02  0.20000003951E+02 0.  0.
        -12    1    1    2    0    0  0.35451164449E+02 -0.17389151690E+02 -0.18012649482E+02  0.43400728089E+02  0.00000000000E+00 0.  1.
         11    1    3    3    0    0 -0.14514560401E+02  0.14608379243E+02  0.32928396626E+01  0.20854735698E+02  0.51100000000E-03 0. -1.
        -11    1    3    3    0    0 -0.13585079479E+02 -0.45191774077E+00  0.53897747551E+01  0.14622184729E+02  0.51100000000E-03 0.  1.
        -12    1    3    3    0    0 -0.73515245689E+01  0.32326901879E+01  0.93300350646E+01  0.12310351483E+02  0.00000000000E+00 0.  1.
</event>
<event>
 7    1  0.2642243E-009  0.4778727E+02  0.7816164E-02  0.1312668E+00
        -11   -1    0    0    0    0  0.00000000000E+00  0.00000000000E+00  0.45593999997E+02  0.45594000000E+02  0.51100000000E-03 0.  1.
         11   -1    0    0    0    0 -0.00000000000E+00 -0.00000000000E+00 -0.45593999997E+02  0.45594000000E+02  0.51100000000E-03 0. -1.
    9900012    2    1    2    0    0  0.43170612181E+02 -0.31352066961E+01  0.31767789014E+01  0.47787271880E+02  0.20000003810E+02 0.  0.
        -12    1    1    2    0    0 -0.43170612181E+02  0.31352066961E+01 -0.31767789014E+01  0.43400728120E+02  0.00000000000E+00 0.  1.
         11    1    3    3    0    0  0.49068780016E+01 -0.31764739166E+01 -0.41709060584E+01  0.71808005038E+01  0.51100000000E-03 0. -1.
        -11    1    3    3    0    0  0.14714319474E+02 -0.16565158407E+01  0.83035821307E+01  0.16976593262E+02  0.51100000000E-03 0.  1.
        -12    1    3    3    0    0  0.23549414706E+02  0.16977830612E+01 -0.95589717090E+00  0.23629878114E+02  0.00000000000E+00 0.  1.
</event>
<event>
 7    1  0.2642243E-009  0.4778727E+02  0.7816164E-02  0.1312668E+00
        -11   -1    0    0    0    0  0.00000000000E+00  0.00000000000E+00  0.45593999997E+02  0.45594000000E+02  0.51100000000E-03 0.  1.
         11   -1    0    0    0    0 -0.00000000000E+00 -0.00000000000E+00 -0.45593999997E+02  0.45594000000E+02  0.51100000000E-03 0. -1.
    9900012    2    1    2    0    0 -0.17680686628E+02 -0.10898064319E+02 -0.38108378901E+02  0.47787273877E+02  0.20000012913E+02 0.  0.
        -12    1    1    2    0    0  0.17680686628E+02  0.10898064319E+02  0.38108378901E+02  0.43400726123E+02  0.00000000000E+00 0.  1.
         11    1    3    3    0    0  0.12712819946E+00  0.11252721184E+01 -0.22889411506E+01  0.25537522925E+01  0.51100000000E-03 0. -1.
        -11    1    3    3    0    0  0.17782719105E+01 -0.39458930705E+01 -0.14679796803E+02  0.15304533889E+02  0.51100000000E-03 0.  1.
        -12    1    3    3    0    0 -0.19586086738E+02 -0.80774433671E+01 -0.21139640948E+02  0.29928987695E+02  0.00000000000E+00 0.  1.
</event>
<event>
 7    1  0.2642243E-009  0.4778727E+02  0.7816164E-02  0.1312668E+00
        -11   -1    0    0    0    0  0.00000000000E+00  0.00000000000E+00  0.45593999997E+02  0.45594000000E+02  0.51100000000E-03 0. -1.
         11   -1    0    0    0    0 -0.00000000000E+00 -0.00000000000E+00 -0.45593999997E+02  0.45594000000E+02  0.51100000000E-03 0.  1.
    9900012    2    1    2    0    0  0.21857794436E+02  0.24301842807E+02  0.28553114197E+02  0.47787273372E+02  0.20000010614E+02 0.  0.
        -12    1    1    2    0    0 -0.21857794436E+02 -0.24301842807E+02 -0.28553114197E+02  0.43400726628E+02  0.00000000000E+00 0.  1.
         11    1    3    3    0    0  0.34258230314E+01  0.84444439910E+01  0.37799694972E+01  0.98657522481E+01  0.51100000000E-03 0. -1.
        -11    1    3    3    0    0  0.98811513489E+01  0.15304873702E+02  0.22699118373E+02  0.29105433963E+02  0.51100000000E-03 0.  1.
        -12    1    3    3    0    0  0.85508200556E+01  0.55252511423E+00  0.20740263269E+01  0.88160871610E+01  0.00000000000E+00 0.  1.
</event>
<event>
 7    1  0.2642243E-009  0.4778727E+02  0.7816164E-02  0.1312668E+00
        -11   -1    0    0    0    0  0.00000000000E+00  0.00000000000E+00  0.45593999997E+02  0.45594000000E+02  0.51100000000E-03 0. -1.
         11   -1    0    0    0    0 -0.00000000000E+00 -0.00000000000E+00 -0.45593999997E+02  0.45594000000E+02  0.51100000000E-03 0.  1.
    9900012    2    1    2    0    0  0.23109447079E+00 -0.43263665567E+02  0.34387629444E+01  0.47787271278E+02  0.20000001066E+02 0.  0.
        -12    1    1    2    0    0 -0.23109447079E+00  0.43263665567E+02 -0.34387629444E+01  0.43400728722E+02  0.00000000000E+00 0.  1.
         11    1    3    3    0    0 -0.48789651555E+01 -0.35596785456E+02  0.41930360263E+01  0.36173429298E+02  0.51100000000E-03 0. -1.
        -11    1    3    3    0    0  0.11602157260E+01  0.13288091089E+01 -0.71127764300E-01  0.17654726276E+01  0.51100000000E-03 0.  1.
         12    1    3    3    0    0  0.39498439004E+01 -0.89956892200E+01 -0.68314531760E+00  0.98483693526E+01  0.00000000000E+00 0. -1.
</event>
<event>
 7    1  0.2642243E-009  0.4778727E+02  0.7816164E-02  0.1312668E+00
        -11   -1    0    0    0    0  0.00000000000E+00  0.00000000000E+00  0.45593999997E+02  0.45594000000E+02  0.51100000000E-03 0. -1.
         11   -1    0    0    0    0 -0.00000000000E+00 -0.00000000000E+00 -0.45593999997E+02  0.45594000000E+02  0.51100000000E-03 0.  1.
    9900012    2    1    2    0    0 -0.24812446833E+02 -0.34499799333E+02  0.88164382857E+01  0.47787271251E+02  0.20000000943E+02 0.  0.
        -12    1    1    2    0    0  0.24812446833E+02  0.34499799333E+02 -0.88164382857E+01  0.43400728749E+02  0.00000000000E+00 0.  1.
         11    1    3    3    0    0 -0.11571298582E+02 -0.76556687023E+01  0.45204830652E+01  0.14592428912E+02  0.51100000000E-03 0. -1.
        -11    1    3    3    0    0 -0.30852882069E+01 -0.20847226000E+02  0.36046438394E+01  0.21380348282E+02  0.51100000000E-03 0.  1.
        -12    1    3    3    0    0 -0.10155860044E+02 -0.59969046315E+01  0.69131138101E+00  0.11814494057E+02  0.00000000000E+00 0.  1.
</event>
<event>
 7    1  0.2642243E-009  0.4778727E+02  0.7816164E-02  0.1312668E+00
        -11   -1    0    0    0    0  0.00000000000E+00  0.00000000000E+00  0.45593999997E+02  0.45594000000E+02  0.51100000000E-03 0.  1.
         11   -1    0    0    0    0 -0.00000000000E+00 -0.00000000000E+00 -0.45593999997E+02  0.45594000000E+02  0.51100000000E-03 0. -1.
    9900012    2    1    2    0    0 -0.22437471378E+01 -0.37915691933E+02 -0.20999739333E+02  0.47787272494E+02  0.20000006608E+02 0.  0.
        -12    1    1    2    0    0  0.22437471378E+01  0.37915691933E+02  0.20999739333E+02  0.43400727506E+02  0.00000000000E+00 0.  1.
         11    1    3    3    0    0  0.15292235322E+01 -0.19267802582E+02 -0.10994831813E+02  0.22236750388E+02  0.51100000000E-03 0. -1.
        -11    1    3    3    0    0 -0.23298753505E+01  0.17571632634E+01 -0.22062226583E+01  0.36583275635E+01  0.51100000000E-03 0.  1.
        -12    1    3    3    0    0 -0.14430953194E+01 -0.20405052614E+02 -0.77986848619E+01  0.21892194542E+02  0.00000000000E+00 0.  1.
</event>
<event>
 7    1  0.2642243E-009  0.4778727E+02  0.7816164E-02  0.1312668E+00
        -11   -1    0    0    0    0  0.00000000000E+00  0.00000000000E+00  0.45593999997E+02  0.45594000000E+02  0.51100000000E-03 0.  1.
         11   -1    0    0    0    0 -0.00000000000E+00 -0.00000000000E+00 -0.45593999997E+02  0.45594000000E+02  0.51100000000E-03 0. -1.
    9900012    2    1    2    0    0 -0.26042862430E+02  0.29041279193E+02 -0.19026212524E+02  0.47787270240E+02  0.19999996333E+02 0.  0.
        -12    1    1    2    0    0  0.26042862430E+02 -0.29041279193E+02  0.19026212524E+02  0.43400729760E+02  0.00000000000E+00 0.  1.
         11    1    3    3    0    0 -0.49808199395E+01  0.53483597540E+01 -0.86721422918E+01  0.11341056896E+02  0.51100000000E-03 0. -1.
        -11    1    3    3    0    0 -0.31243514590E+01  0.59199490224E+00  0.29293856336E+01  0.43235784317E+01  0.51100000000E-03 0.  1.
        -12    1    3    3    0    0 -0.17937691031E+02  0.23100924537E+02 -0.13283455865E+02  0.32122634912E+02  0.00000000000E+00 0.  1.
</event>
<event>
 7    1  0.2642243E-009  0.4778727E+02  0.7816164E-02  0.1312668E+00
        -11   -1    0    0    0    0  0.00000000000E+00  0.00000000000E+00  0.45593999997E+02  0.45594000000E+02  0.51100000000E-03 0.  1.
         11   -1    0    0    0    0 -0.00000000000E+00 -0.00000000000E+00 -0.45593999997E+02  0.45594000000E+02  0.51100000000E-03 0. -1.
    9900012    2    1    2    0    0 -0.13138879339E+02  0.90751355923E+01 -0.40356348903E+02  0.47787272667E+02  0.20000007396E+02 0.  0.
        -12    1    1    2    0    0  0.13138879339E+02 -0.90751355923E+01  0.40356348903E+02  0.43400727333E+02  0.00000000000E+00 0.  1.
         11    1    3    3    0    0 -0.11362553002E+01  0.10270453119E+02 -0.86750447926E+01  0.13491837747E+02  0.51100000000E-03 0. -1.
        -11    1    3    3    0    0 -0.33091740872E+01 -0.27251381650E+01 -0.95074323229E+01  0.10429203267E+02  0.51100000000E-03 0.  1.
         12    1    3    3    0    0 -0.86934499520E+01  0.15298206388E+01 -0.22173871787E+02  0.23866231652E+02  0.00000000000E+00 0. -1.
</event>
<event>
 7    1  0.2642243E-009  0.4778726E+02  0.7816164E-02  0.1312668E+00
        -11   -1    0    0    0    0  0.00000000000E+00  0.00000000000E+00  0.45593999997E+02  0.45594000000E+02  0.51100000000E-03 0. -1.
         11   -1    0    0    0    0 -0.00000000000E+00 -0.00000000000E+00 -0.45593999997E+02  0.45594000000E+02  0.51100000000E-03 0.  1.
    9900012    2    1    2    0    0  0.16074012936E+02 -0.24693112581E+02  0.31866916969E+02  0.47787261551E+02  0.19999956713E+02 0.  0.
        -12    1    1    2    0    0 -0.16074012936E+02  0.24693112581E+02 -0.31866916969E+02  0.43400738449E+02  0.00000000000E+00 0.  1.
         11    1    3    3    0    0  0.19224498688E+02 -0.16454563026E+02  0.28847012810E+02  0.38372961086E+02  0.51100000000E-03 0. -1.
        -11    1    3    3    0    0 -0.26422559872E+01 -0.77752064909E+01  0.29382330748E+01  0.87217295613E+01  0.51100000000E-03 0.  1.
         12    1    3    3    0    0 -0.50822976538E+00 -0.46334306477E+00  0.81671084932E-01  0.69257090338E+00  0.00000000000E+00 0. -1.
</event>
<event>
 7    1  0.2642243E-009  0.4778727E+02  0.7816164E-02  0.1312668E+00
        -11   -1    0    0    0    0  0.00000000000E+00  0.00000000000E+00  0.45593999997E+02  0.45594000000E+02  0.51100000000E-03 0.  1.
         11   -1    0    0    0    0 -0.00000000000E+00 -0.00000000000E+00 -0.45593999997E+02  0.45594000000E+02  0.51100000000E-03 0. -1.
    9900012    2    1    2    0    0  0.78324994469E+00  0.43366047008E+02 -0.15477560635E+01  0.47787273481E+02  0.20000011108E+02 0.  0.
        -12    1    1    2    0    0 -0.78324994469E+00 -0.43366047008E+02  0.15477560635E+01  0.43400726519E+02  0.00000000000E+00 0.  1.
         11    1    3    3    0    0  0.28026843308E+01  0.26028146751E+02  0.50134546506E+01  0.26654346560E+02  0.51100000000E-03 0. -1.
        -11    1    3    3    0    0  0.30459216291E+01  0.20275180611E+01  0.15831110976E+00  0.36624487337E+01  0.51100000000E-03 0.  1.
         12    1    3    3    0    0 -0.50653560152E+01  0.15310382196E+02 -0.67195218239E+01  0.17470478187E+02  0.00000000000E+00 0. -1.
</event>
<event>
 7    1  0.2642243E-009  0.4778727E+02  0.7816164E-02  0.1312668E+00
        -11   -1    0    0    0    0  0.00000000000E+00  0.00000000000E+00  0.45593999997E+02  0.45594000000E+02  0.51100000000E-03 0.  1.
         11   -1    0    0    0    0 -0.00000000000E+00 -0.00000000000E+00 -0.45593999997E+02  0.45594000000E+02  0.51100000000E-03 0. -1.
    9900012    2    1    2    0    0  0.64914549981E+01 -0.87498007418E+01 -0.42011013437E+02  0.47787271307E+02  0.20000001199E+02 0.  0.
        -12    1    1    2    0    0 -0.64914549981E+01  0.87498007418E+01  0.42011013437E+02  0.43400728693E+02  0.00000000000E+00 0.  1.
         11    1    3    3    0    0  0.20618556051E+01  0.38618335790E+01 -0.22763751334E+02  0.23180883982E+02  0.51100000000E-03 0.  1.
        -11    1    3    3    0    0  0.26613357708E+01 -0.46029385008E+01 -0.23283776432E+01  0.58044029528E+01  0.51100000000E-03 0. -1.
         12    1    3    3    0    0  0.17682636221E+01 -0.80086958200E+01 -0.16918884461E+02  0.18801984373E+02  0.00000000000E+00 0. -1.
</event>
<event>
 7    1  0.2642243E-009  0.4778727E+02  0.7816164E-02  0.1312668E+00
        -11   -1    0    0    0    0  0.00000000000E+00  0.00000000000E+00  0.45593999997E+02  0.45594000000E+02  0.51100000000E-03 0.  1.
         11   -1    0    0    0    0 -0.00000000000E+00 -0.00000000000E+00 -0.45593999997E+02  0.45594000000E+02  0.51100000000E-03 0. -1.
    9900012    2    1    2    0    0 -0.25666888415E+00 -0.31592055716E+02 -0.29757338999E+02  0.47787273191E+02  0.20000009785E+02 0.  0.
        -12    1    1    2    0    0  0.25666888415E+00  0.31592055716E+02  0.29757338999E+02  0.43400726809E+02  0.00000000000E+00 0.  1.
         11    1    3    3    0    0 -0.62960139274E+01 -0.45863995272E+01 -0.83789538189E+01  0.11440354862E+02  0.51100000000E-03 0. -1.
        -11    1    3    3    0    0  0.16276490879E+01 -0.38204979495E+01 -0.85012418937E+01  0.94613191539E+01  0.51100000000E-03 0.  1.
         12    1    3    3    0    0  0.44116959554E+01 -0.23185158240E+02 -0.12877143286E+02  0.26885599175E+02  0.00000000000E+00 0. -1.
</event>
<event>
 7    1  0.2642243E-009  0.4778727E+02  0.7816164E-02  0.1312668E+00
        -11   -1    0    0    0    0  0.00000000000E+00  0.00000000000E+00  0.45593999997E+02  0.45594000000E+02  0.51100000000E-03 0. -1.
         11   -1    0    0    0    0 -0.00000000000E+00 -0.00000000000E+00 -0.45593999997E+02  0.45594000000E+02  0.51100000000E-03 0.  1.
    9900012    2    1    2    0    0  0.25926485027E+02  0.34801675120E+02 -0.53303458202E+00  0.47787270249E+02  0.19999996373E+02 0.  0.
        -12    1    1    2    0    0 -0.25926485027E+02 -0.34801675120E+02  0.53303458202E+00  0.43400729751E+02  0.00000000000E+00 0.  1.
         11    1    3    3    0    0  0.23430500264E+02  0.20269798971E+02 -0.10091954600E+01  0.30997928458E+02  0.51100000000E-03 0. -1.
        -11    1    3    3    0    0 -0.15538405098E+01  0.99337391876E+00 -0.16797939289E+01  0.24945781161E+01  0.51100000000E-03 0.  1.
         12    1    3    3    0    0  0.40498252734E+01  0.13538502230E+02  0.21559548069E+01  0.14294763675E+02  0.00000000000E+00 0. -1.
</event>
<event>
 7    1  0.2642243E-009  0.4778727E+02  0.7816164E-02  0.1312668E+00
        -11   -1    0    0    0    0  0.00000000000E+00  0.00000000000E+00  0.45593999997E+02  0.45594000000E+02  0.51100000000E-03 0.  1.
         11   -1    0    0    0    0 -0.00000000000E+00 -0.00000000000E+00 -0.45593999997E+02  0.45594000000E+02  0.51100000000E-03 0. -1.
    9900012    2    1    2    0    0  0.91466457978E+01 -0.20364500963E+02 -0.37218940199E+02  0.47787267997E+02  0.19999986107E+02 0.  0.
        -12    1    1    2    0    0 -0.91466457978E+01  0.20364500963E+02  0.37218940199E+02  0.43400732003E+02  0.00000000000E+00 0.  1.
         11    1    3    3    0    0  0.12694214610E+02 -0.14762866917E+02 -0.26156626498E+02  0.32607582465E+02  0.51100000000E-03 0. -1.
        -11    1    3    3    0    0 -0.55764024725E+01 -0.58066753333E+01 -0.10124524307E+02  0.12935213012E+02  0.51100000000E-03 0.  1.
        -12    1    3    3    0    0  0.20288336601E+01  0.20504128688E+00 -0.93778939417E+00  0.22444725210E+01  0.00000000000E+00 0.  1.
</event>
<event>
 7    1  0.2642243E-009  0.4778727E+02  0.7816164E-02  0.1312668E+00
        -11   -1    0    0    0    0  0.00000000000E+00  0.00000000000E+00  0.45593999997E+02  0.45594000000E+02  0.51100000000E-03 0.  1.
         11   -1    0    0    0    0 -0.00000000000E+00 -0.00000000000E+00 -0.45593999997E+02  0.45594000000E+02  0.51100000000E-03 0. -1.
    9900012    2    1    2    0    0  0.30986937466E+02 -0.23548071379E+02 -0.19207323133E+02  0.47787271653E+02  0.20000002773E+02 0.  0.
        -12    1    1    2    0    0 -0.30986937466E+02  0.23548071379E+02  0.19207323133E+02  0.43400728347E+02  0.00000000000E+00 0.  1.
         11    1    3    3    0    0  0.29974746260E+02 -0.19966734372E+02 -0.20162163260E+02  0.41275522074E+02  0.51100000000E-03 0. -1.
        -11    1    3    3    0    0 -0.15012123846E+01 -0.34102371966E+01 -0.21901215817E+00  0.37324687470E+01  0.51100000000E-03 0.  1.
         12    1    3    3    0    0  0.25134035901E+01 -0.17109980981E+00  0.11738522861E+01  0.27792808316E+01  0.00000000000E+00 0. -1.
</event>
<event>
 7    1  0.2642243E-009  0.4778727E+02  0.7816164E-02  0.1312668E+00
        -11   -1    0    0    0    0  0.00000000000E+00  0.00000000000E+00  0.45593999997E+02  0.45594000000E+02  0.51100000000E-03 0. -1.
         11   -1    0    0    0    0 -0.00000000000E+00 -0.00000000000E+00 -0.45593999997E+02  0.45594000000E+02  0.51100000000E-03 0.  1.
    9900012    2    1    2    0    0 -0.26783616144E+02  0.28534304753E+02  0.18763123047E+02  0.47787269270E+02  0.19999991907E+02 0.  0.
        -12    1    1    2    0    0  0.26783616144E+02 -0.28534304753E+02 -0.18763123047E+02  0.43400730730E+02  0.00000000000E+00 0.  1.
         11    1    3    3    0    0 -0.13464828576E+02  0.19103048666E+02  0.20335807401E+02  0.30980205613E+02  0.51100000000E-03 0. -1.
        -11    1    3    3    0    0 -0.10060074802E+02  0.52135380556E+01 -0.33709424051E+00  0.11335771560E+02  0.51100000000E-03 0.  1.
        -12    1    3    3    0    0 -0.32587127662E+01  0.42177180308E+01 -0.12355901128E+01  0.54712920967E+01  0.00000000000E+00 0.  1.
</event>
<event>
 7    1  0.2642243E-009  0.4778727E+02  0.7816164E-02  0.1312668E+00
        -11   -1    0    0    0    0  0.00000000000E+00  0.00000000000E+00  0.45593999997E+02  0.45594000000E+02  0.51100000000E-03 0.  1.
         11   -1    0    0    0    0 -0.00000000000E+00 -0.00000000000E+00 -0.45593999997E+02  0.45594000000E+02  0.51100000000E-03 0. -1.
    9900012    2    1    2    0    0  0.24890489647E+01  0.25865225136E+02 -0.34762311366E+02  0.47787268121E+02  0.19999986671E+02 0.  0.
        -12    1    1    2    0    0 -0.24890489647E+01 -0.25865225136E+02  0.34762311366E+02  0.43400731879E+02  0.00000000000E+00 0.  1.
         11    1    3    3    0    0  0.63136601215E+01  0.16836066296E+02 -0.27346663618E+02  0.32728511176E+02  0.51100000000E-03 0. -1.
        -11    1    3    3    0    0 -0.27396227483E+01 -0.10422695956E+01 -0.22015324964E+01  0.36658701977E+01  0.51100000000E-03 0.  1.
         12    1    3    3    0    0 -0.10849884086E+01  0.10071428436E+02 -0.52141152514E+01  0.11392886748E+02  0.00000000000E+00 0. -1.
</event>
<event>
 7    1  0.2642243E-009  0.4778727E+02  0.7816164E-02  0.1312668E+00
        -11   -1    0    0    0    0  0.00000000000E+00  0.00000000000E+00  0.45593999997E+02  0.45594000000E+02  0.51100000000E-03 0.  1.
         11   -1    0    0    0    0 -0.00000000000E+00 -0.00000000000E+00 -0.45593999997E+02  0.45594000000E+02  0.51100000000E-03 0. -1.
    9900012    2    1    2    0    0 -0.17732912259E+02  0.29490456252E+02 -0.26447691146E+02  0.47787267816E+02  0.19999985281E+02 0.  0.
        -12    1    1    2    0    0  0.17732912259E+02 -0.29490456252E+02  0.26447691146E+02  0.43400732184E+02  0.00000000000E+00 0.  1.
         11    1    3    3    0    0 -0.49385884611E+01  0.12916978127E+02 -0.20296261504E+02  0.24559645992E+02  0.51100000000E-03 0. -1.
        -11    1    3    3    0    0 -0.45581744783E+01  0.10658812339E+01 -0.19281304598E+00  0.46851077375E+01  0.51100000000E-03 0.  1.
         12    1    3    3    0    0 -0.82361493199E+01  0.15507596890E+02 -0.59586165959E+01  0.18542514087E+02  0.00000000000E+00 0. -1.
</event>
<event>
 7    1  0.2642243E-009  0.4778728E+02  0.7816164E-02  0.1312668E+00
        -11   -1    0    0    0    0  0.00000000000E+00  0.00000000000E+00  0.45593999997E+02  0.45594000000E+02  0.51100000000E-03 0.  1.
         11   -1    0    0    0    0 -0.00000000000E+00 -0.00000000000E+00 -0.45593999997E+02  0.45594000000E+02  0.51100000000E-03 0. -1.
    9900012    2    1    2    0    0 -0.31430036138E+02 -0.14946906232E+02 -0.25930003430E+02  0.47787282778E+02  0.20000053497E+02 0.  0.
        -12    1    1    2    0    0  0.31430036138E+02  0.14946906232E+02  0.25930003430E+02  0.43400717222E+02  0.00000000000E+00 0.  1.
         11    1    3    3    0    0 -0.33950496225E+02 -0.14819680627E+02 -0.23908058216E+02  0.44089163927E+02  0.51100000000E-03 0. -1.
        -11    1    3    3    0    0  0.19286293787E+01  0.65335832291E+00 -0.95315839890E+00  0.22483326206E+01  0.51100000000E-03 0.  1.
         12    1    3    3    0    0  0.59183070916E+00 -0.78058392788E+00 -0.10687868158E+01  0.14497862306E+01  0.00000000000E+00 0. -1.
</event>
<event>
 7    1  0.2758626E-009  0.4778727E+02  0.7816164E-02  0.1312668E+00
        -11   -1    0    0    0    0  0.00000000000E+00  0.00000000000E+00  0.45593999997E+02  0.45594000000E+02  0.51100000000E-03 0.  1.
         11   -1    0    0    0    0 -0.00000000000E+00 -0.00000000000E+00 -0.45593999997E+02  0.45594000000E+02  0.51100000000E-03 0. -1.
    9900012    2    1    2    0    0  0.41381662965E+02 -0.11517729243E+02 -0.62067008326E+01  0.47787271298E+02  0.20000001155E+02 0.  0.
        -12    1    1    2    0    0 -0.41381662965E+02  0.11517729243E+02  0.62067008326E+01  0.43400728702E+02  0.00000000000E+00 0.  1.
         11    1    3    3    0    0  0.26071732886E+02 -0.42075628059E+01 -0.71413174107E+01  0.27357581309E+02  0.51100000000E-03 0. -1.
        -11    1    3    3    0    0  0.94051820783E+01 -0.86686285383E+01  0.43057525581E+01  0.13496002223E+02  0.51100000000E-03 0.  1.
        -12    1    3    3    0    0  0.59047480005E+01  0.13584621016E+01 -0.33711359800E+01  0.69336877653E+01  0.00000000000E+00 0.  1.
</event>
<event>
 7    1  0.2642243E-009  0.4778727E+02  0.7816164E-02  0.1312668E+00
        -11   -1    0    0    0    0  0.00000000000E+00  0.00000000000E+00  0.45593999997E+02  0.45594000000E+02  0.51100000000E-03 0.  1.
         11   -1    0    0    0    0 -0.00000000000E+00 -0.00000000000E+00 -0.45593999997E+02  0.45594000000E+02  0.51100000000E-03 0. -1.
    9900012    2    1    2    0    0  0.84897700550E+01 -0.37180232669E+01 -0.42399570902E+02  0.47787268378E+02  0.19999987844E+02 0.  0.
        -12    1    1    2    0    0 -0.84897700550E+01  0.37180232669E+01  0.42399570902E+02  0.43400731622E+02  0.00000000000E+00 0.  1.
         11    1    3    3    0    0  0.36041312328E+01 -0.86734951031E+01 -0.30124379601E+02  0.31554675182E+02  0.51100000000E-03 0. -1.
        -11    1    3    3    0    0  0.61166707872E+01  0.50593988197E+01 -0.12656374745E+02  0.14939712175E+02  0.51100000000E-03 0.  1.
         12    1    3    3    0    0 -0.12310319650E+01 -0.10392698347E+00  0.38118344338E+00  0.12928810209E+01  0.00000000000E+00 0. -1.
</event>
<event>
 7    1  0.2642243E-009  0.4778728E+02  0.7816164E-02  0.1312668E+00
        -11   -1    0    0    0    0  0.00000000000E+00  0.00000000000E+00  0.45593999997E+02  0.45594000000E+02  0.51100000000E-03 0.  1.
         11   -1    0    0    0    0 -0.00000000000E+00 -0.00000000000E+00 -0.45593999997E+02  0.45594000000E+02  0.51100000000E-03 0. -1.
    9900012    2    1    2    0    0  0.27762534631E+02 -0.10793158709E+02 -0.31565358263E+02  0.47787280579E+02  0.20000043471E+02 0.  0.
        -12    1    1    2    0    0 -0.27762534631E+02  0.10793158709E+02  0.31565358263E+02  0.43400719421E+02  0.00000000000E+00 0.  1.
         11    1    3    3    0    0  0.24595408257E+01  0.14937352504E+01 -0.55090691703E+01  0.62153382415E+01  0.51100000000E-03 0. -1.
        -11    1    3    3    0    0  0.11144495642E+01  0.16953295029E+01 -0.81233444196E+01  0.83728647890E+01  0.51100000000E-03 0.  1.
        -12    1    3    3    0    0  0.24188544241E+02 -0.13982223462E+02 -0.17932944673E+02  0.33199077548E+02  0.00000000000E+00 0.  1.
</event>
<event>
 7    1  0.2642243E-009  0.4778727E+02  0.7816164E-02  0.1312668E+00
        -11   -1    0    0    0    0  0.00000000000E+00  0.00000000000E+00  0.45593999997E+02  0.45594000000E+02  0.51100000000E-03 0.  1.
         11   -1    0    0    0    0 -0.00000000000E+00 -0.00000000000E+00 -0.45593999997E+02  0.45594000000E+02  0.51100000000E-03 0. -1.
    9900012    2    1    2    0    0  0.21225142055E+02 -0.36271786248E+02 -0.10838534721E+02  0.47787274571E+02  0.20000016079E+02 0.  0.
        -12    1    1    2    0    0 -0.21225142055E+02  0.36271786248E+02  0.10838534721E+02  0.43400725429E+02  0.00000000000E+00 0.  1.
         11    1    3    3    0    0  0.13304233823E+02 -0.22582887974E+02 -0.14439683670E+02  0.29924804621E+02  0.51100000000E-03 0. -1.
        -11    1    3    3    0    0  0.87532940195E+01 -0.87883640030E+01  0.35099934395E+01  0.12890909675E+02  0.51100000000E-03 0.  1.
        -12    1    3    3    0    0 -0.83238578821E+00 -0.49005342708E+01  0.91155509288E-01  0.49715602749E+01  0.00000000000E+00 0.  1.
</event>
<event>
 7    1  0.2642243E-009  0.4778728E+02  0.7816164E-02  0.1312668E+00
        -11   -1    0    0    0    0  0.00000000000E+00  0.00000000000E+00  0.45593999997E+02  0.45594000000E+02  0.51100000000E-03 0. -1.
         11   -1    0    0    0    0 -0.00000000000E+00 -0.00000000000E+00 -0.45593999997E+02  0.45594000000E+02  0.51100000000E-03 0.  1.
    9900012    2    1    2    0    0 -0.22439743188E+02  0.15129835078E+02  0.33928880457E+02  0.47787275203E+02  0.20000018961E+02 0.  0.
        -12    1    1    2    0    0  0.22439743188E+02 -0.15129835078E+02 -0.33928880457E+02  0.43400724797E+02  0.00000000000E+00 0.  1.
         11    1    3    3    0    0 -0.17061551180E+02  0.17011584167E+02  0.25577173769E+02  0.35138046941E+02  0.51100000000E-03 0. -1.
        -11    1    3    3    0    0  0.92249229171E+00  0.54011009171E+00 -0.75854711178E+00  0.13107650138E+01  0.51100000000E-03 0.  1.
         12    1    3    3    0    0 -0.63006842997E+01 -0.24218591809E+01  0.91102538001E+01  0.11338463249E+02  0.00000000000E+00 0. -1.
</event>
<event>
 7    1  0.2642243E-009  0.4778728E+02  0.7816164E-02  0.1312668E+00
        -11   -1    0    0    0    0  0.00000000000E+00  0.00000000000E+00  0.45593999997E+02  0.45594000000E+02  0.51100000000E-03 0.  1.
         11   -1    0    0    0    0 -0.00000000000E+00 -0.00000000000E+00 -0.45593999997E+02  0.45594000000E+02  0.51100000000E-03 0. -1.
    9900012    2    1    2    0    0  0.36585997123E+02 -0.46623640514E+01 -0.22876842327E+02  0.47787277207E+02  0.20000028100E+02 0.  0.
        -12    1    1    2    0    0 -0.36585997123E+02  0.46623640514E+01  0.22876842327E+02  0.43400722793E+02  0.00000000000E+00 0.  1.
         11    1    3    3    0    0  0.15581049110E+02 -0.96062519197E+00 -0.19671261175E+01  0.15734086486E+02  0.51100000000E-03 0. -1.
        -11    1    3    3    0    0  0.11397153210E+02 -0.41329160014E+01 -0.18533568949E+02  0.22146540908E+02  0.51100000000E-03 0.  1.
        -12    1    3    3    0    0  0.96077948040E+01  0.43117714196E+00 -0.23761472608E+01  0.99066498136E+01  0.00000000000E+00 0.  1.
</event>
<event>
 7    1  0.2642243E-009  0.4778727E+02  0.7816164E-02  0.1312668E+00
        -11   -1    0    0    0    0  0.00000000000E+00  0.00000000000E+00  0.45593999997E+02  0.45594000000E+02  0.51100000000E-03 0. -1.
         11   -1    0    0    0    0 -0.00000000000E+00 -0.00000000000E+00 -0.45593999997E+02  0.45594000000E+02  0.51100000000E-03 0.  1.
    9900012    2    1    2    0    0 -0.39444527169E+02  0.16522916831E+02  0.73990556819E+01  0.47787268103E+02  0.19999986588E+02 0.  0.
        -12    1    1    2    0    0  0.39444527169E+02 -0.16522916831E+02 -0.73990556819E+01  0.43400731897E+02  0.00000000000E+00 0.  1.
         11    1    3    3    0    0 -0.20403430336E+01  0.15324851609E+01  0.66751176714E+01  0.71462372373E+01  0.51100000000E-03 0.  1.
        -11    1    3    3    0    0 -0.27472748818E+02  0.13131512451E+02  0.16522581330E+01  0.30494565156E+02  0.51100000000E-03 0. -1.
        -12    1    3    3    0    0 -0.99314353183E+01  0.18589192192E+01 -0.92832012256E+00  0.10146465710E+02  0.00000000000E+00 0.  1.
</event>
<event>
 7    1  0.2642243E-009  0.4778727E+02  0.7816164E-02  0.1312668E+00
        -11   -1    0    0    0    0  0.00000000000E+00  0.00000000000E+00  0.45593999997E+02  0.45594000000E+02  0.51100000000E-03 0. -1.
         11   -1    0    0    0    0 -0.00000000000E+00 -0.00000000000E+00 -0.45593999997E+02  0.45594000000E+02  0.51100000000E-03 0.  1.
    9900012    2    1    2    0    0 -0.10461470940E+02 -0.41943037362E+02  0.38681925609E+01  0.47787266469E+02  0.19999979138E+02 0.  0.
        -12    1    1    2    0    0  0.10461470940E+02  0.41943037362E+02 -0.38681925609E+01  0.43400733531E+02  0.00000000000E+00 0.  1.
         11    1    3    3    0    0 -0.40738096156E+01 -0.10715561285E+02  0.87049917583E+01  0.14394306521E+02  0.51100000000E-03 0. -1.
        -11    1    3    3    0    0 -0.76687862454E+01 -0.23204822500E+02 -0.60543011706E+01  0.25177939404E+02  0.51100000000E-03 0.  1.
        -12    1    3    3    0    0  0.12811249210E+01 -0.80226535771E+01  0.12175019732E+01  0.82150205439E+01  0.00000000000E+00 0.  1.
</event>
<event>
 7    1  0.2642243E-009  0.4778727E+02  0.7816164E-02  0.1312668E+00
        -11   -1    0    0    0    0  0.00000000000E+00  0.00000000000E+00  0.45593999997E+02  0.45594000000E+02  0.51100000000E-03 0.  1.
         11   -1    0    0    0    0 -0.00000000000E+00 -0.00000000000E+00 -0.45593999997E+02  0.45594000000E+02  0.51100000000E-03 0. -1.
    9900012    2    1    2    0    0  0.92918161887E+01 -0.39103226403E+02 -0.16377523263E+02  0.47787269229E+02  0.19999991725E+02 0.  0.
        -12    1    1    2    0    0 -0.92918161887E+01  0.39103226403E+02  0.16377523263E+02  0.43400730771E+02  0.00000000000E+00 0.  1.
         11    1    3    3    0    0  0.36994348855E+01 -0.67523632533E+01  0.30760807613E+01  0.82911097621E+01  0.51100000000E-03 0. -1.
        -11    1    3    3    0    0  0.23106720344E+01 -0.59769846845E+00 -0.76834139787E+00  0.25073486943E+01  0.51100000000E-03 0.  1.
         12    1    3    3    0    0  0.32817092688E+01 -0.31753164681E+02 -0.18685262626E+02  0.36988810773E+02  0.00000000000E+00 0. -1.
</event>
<event>
 7    1  0.2642243E-009  0.4778727E+02  0.7816164E-02  0.1312668E+00
        -11   -1    0    0    0    0  0.00000000000E+00  0.00000000000E+00  0.45593999997E+02  0.45594000000E+02  0.51100000000E-03 0.  1.
         11   -1    0    0    0    0 -0.00000000000E+00 -0.00000000000E+00 -0.45593999997E+02  0.45594000000E+02  0.51100000000E-03 0. -1.
    9900012    2    1    2    0    0 -0.28952667181E+02 -0.27855297933E+02 -0.16414890103E+02  0.47787272161E+02  0.20000005090E+02 0.  0.
        -12    1    1    2    0    0  0.28952667181E+02  0.27855297933E+02  0.16414890103E+02  0.43400727839E+02  0.00000000000E+00 0.  1.
         11    1    3    3    0    0 -0.31620636265E+01 -0.79623769964E+01  0.20980614423E+01  0.88204283279E+01  0.51100000000E-03 0. -1.
        -11    1    3    3    0    0 -0.22276125934E+02 -0.18813305559E+02 -0.12087304317E+02  0.31563732013E+02  0.51100000000E-03 0.  1.
        -12    1    3    3    0    0 -0.35144776213E+01 -0.10796153777E+01 -0.64256472284E+01  0.74031118199E+01  0.00000000000E+00 0.  1.
</event>
<event>
 7    1  0.2642243E-009  0.4778732E+02  0.7816164E-02  0.1312668E+00
        -11   -1    0    0    0    0  0.00000000000E+00  0.00000000000E+00  0.45593999997E+02  0.45594000000E+02  0.51100000000E-03 0. -1.
         11   -1    0    0    0    0 -0.00000000000E+00 -0.00000000000E+00 -0.45593999997E+02  0.45594000000E+02  0.51100000000E-03 0.  1.
    9900012    2    1    2    0    0  0.38332959433E+02  0.16320284276E+02  0.12159410561E+02  0.47787323474E+02  0.20000239044E+02 0.  0.
        -12    1    1    2    0    0 -0.38332959433E+02 -0.16320284276E+02 -0.12159410561E+02  0.43400676526E+02  0.00000000000E+00 0.  1.
         11    1    3    3    0    0  0.15455646129E+02  0.80817205088E+01  0.11429899847E+02  0.20852669239E+02  0.51100000000E-03 0. -1.
        -11    1    3    3    0    0  0.27415990282E+01 -0.11936123560E+01 -0.31723991623E+01  0.43594945113E+01  0.51100000000E-03 0.  1.
         12    1    3    3    0    0  0.20135714276E+02  0.94321761236E+01  0.39019098762E+01  0.22575159723E+02  0.00000000000E+00 0. -1.
</event>
<event>
 7    1  0.2642243E-009  0.4778727E+02  0.7816164E-02  0.1312668E+00
        -11   -1    0    0    0    0  0.00000000000E+00  0.00000000000E+00  0.45593999997E+02  0.45594000000E+02  0.51100000000E-03 0. -1.
         11   -1    0    0    0    0 -0.00000000000E+00 -0.00000000000E+00 -0.45593999997E+02  0.45594000000E+02  0.51100000000E-03 0.  1.
    9900012    2    1    2    0    0  0.58973973592E+01 -0.57332153299E+01  0.42614249586E+02  0.47787270497E+02  0.19999997503E+02 0.  0.
        -12    1    1    2    0    0 -0.58973973592E+01  0.57332153299E+01 -0.42614249586E+02  0.43400729503E+02  0.00000000000E+00 0.  1.
         11    1    3    3    0    0 -0.44913960378E+01  0.15255328358E+00  0.13409565220E+02  0.14142572274E+02  0.51100000000E-03 0. -1.
        -11    1    3    3    0    0  0.12475411923E+02 -0.55508118729E+01  0.28140943459E+02  0.31278748602E+02  0.51100000000E-03 0.  1.
        -12    1    3    3    0    0 -0.20866185258E+01 -0.33495674059E+00  0.10637409070E+01  0.23659496206E+01  0.00000000000E+00 0.  1.
</event>
<event>
 7    1  0.2642243E-009  0.4778728E+02  0.7816164E-02  0.1312668E+00
        -11   -1    0    0    0    0  0.00000000000E+00  0.00000000000E+00  0.45593999997E+02  0.45594000000E+02  0.51100000000E-03 0. -1.
         11   -1    0    0    0    0 -0.00000000000E+00 -0.00000000000E+00 -0.45593999997E+02  0.45594000000E+02  0.51100000000E-03 0.  1.
    9900012    2    1    2    0    0 -0.40876191866E+02 -0.13682646693E+02  0.50542047977E+01  0.47787275718E+02  0.20000021310E+02 0.  0.
        -12    1    1    2    0    0  0.40876191866E+02  0.13682646693E+02 -0.50542047977E+01  0.43400724282E+02  0.00000000000E+00 0.  1.
         11    1    3    3    0    0 -0.13199639502E+01  0.11141135861E+01  0.22621035477E+01  0.28461670074E+01  0.51100000000E-03 0. -1.
        -11    1    3    3    0    0 -0.25228995207E+01 -0.63978089686E+01  0.62190693640E+00  0.69053421413E+01  0.51100000000E-03 0.  1.
        -12    1    3    3    0    0 -0.37033328396E+02 -0.83989513109E+01  0.21701943136E+01  0.38035766570E+02  0.00000000000E+00 0.  1.
</event>
<event>
 7    1  0.2642243E-009  0.4778727E+02  0.7816164E-02  0.1312668E+00
        -11   -1    0    0    0    0  0.00000000000E+00  0.00000000000E+00  0.45593999997E+02  0.45594000000E+02  0.51100000000E-03 0. -1.
         11   -1    0    0    0    0 -0.00000000000E+00 -0.00000000000E+00 -0.45593999997E+02  0.45594000000E+02  0.51100000000E-03 0.  1.
    9900012    2    1    2    0    0  0.22834617570E+02 -0.34901728936E+02  0.12003034546E+02  0.47787270967E+02  0.19999999646E+02 0.  0.
        -12    1    1    2    0    0 -0.22834617570E+02  0.34901728936E+02 -0.12003034546E+02  0.43400729033E+02  0.00000000000E+00 0.  1.
         11    1    3    3    0    0  0.20084641915E+02 -0.27201740808E+02  0.16570814954E+02  0.37655271243E+02  0.51100000000E-03 0. -1.
        -11    1    3    3    0    0  0.18944222875E+00 -0.50511874372E+01 -0.39080596968E+01  0.63893124621E+01  0.51100000000E-03 0.  1.
         12    1    3    3    0    0  0.25605334265E+01 -0.26488006903E+01 -0.65972071084E+00  0.37426872621E+01  0.00000000000E+00 0. -1.
</event>
<event>
 7    1  0.2642243E-009  0.4778727E+02  0.7816164E-02  0.1312668E+00
        -11   -1    0    0    0    0  0.00000000000E+00  0.00000000000E+00  0.45593999997E+02  0.45594000000E+02  0.51100000000E-03 0. -1.
         11   -1    0    0    0    0 -0.00000000000E+00 -0.00000000000E+00 -0.45593999997E+02  0.45594000000E+02  0.51100000000E-03 0.  1.
    9900012    2    1    2    0    0  0.24985560781E+02 -0.14647098016E+02  0.32323485780E+02  0.47787268891E+02  0.19999990183E+02 0.  0.
        -12    1    1    2    0    0 -0.24985560781E+02  0.14647098016E+02 -0.32323485780E+02  0.43400731109E+02  0.00000000000E+00 0.  1.
         11    1    3    3    0    0  0.64867166362E+01 -0.60122190622E+01  0.12467774455E+02  0.15286257583E+02  0.51100000000E-03 0. -1.
        -11    1    3    3    0    0  0.15538271772E+02 -0.27697292002E+01  0.20530825506E+02  0.25896410672E+02  0.51100000000E-03 0.  1.
        -12    1    3    3    0    0  0.29605723724E+01 -0.58651497535E+01 -0.67511418087E+00  0.66046006360E+01  0.00000000000E+00 0.  1.
</event>
<event>
 7    1  0.2642243E-009  0.4778727E+02  0.7816164E-02  0.1312668E+00
        -11   -1    0    0    0    0  0.00000000000E+00  0.00000000000E+00  0.45593999997E+02  0.45594000000E+02  0.51100000000E-03 0. -1.
         11   -1    0    0    0    0 -0.00000000000E+00 -0.00000000000E+00 -0.45593999997E+02  0.45594000000E+02  0.51100000000E-03 0.  1.
    9900012    2    1    2    0    0  0.37758509064E+02 -0.32830406510E+01  0.21145682352E+02  0.47787271380E+02  0.20000001528E+02 0.  0.
        -12    1    1    2    0    0 -0.37758509064E+02  0.32830406510E+01 -0.21145682352E+02  0.43400728620E+02  0.00000000000E+00 0.  1.
         11    1    3    3    0    0  0.28416530143E+02 -0.73688453165E+01  0.19524795060E+02  0.35256441810E+02  0.51100000000E-03 0. -1.
        -11    1    3    3    0    0  0.68792146925E+01  0.13893427968E+01 -0.20917111272E+01  0.73231908273E+01  0.51100000000E-03 0.  1.
         12    1    3    3    0    0  0.24627642283E+01  0.26964618687E+01  0.37125984184E+01  0.52076387423E+01  0.00000000000E+00 0. -1.
</event>
<event>
 7    1  0.2642243E-009  0.4778727E+02  0.7816164E-02  0.1312668E+00
        -11   -1    0    0    0    0  0.00000000000E+00  0.00000000000E+00  0.45593999997E+02  0.45594000000E+02  0.51100000000E-03 0.  1.
         11   -1    0    0    0    0 -0.00000000000E+00 -0.00000000000E+00 -0.45593999997E+02  0.45594000000E+02  0.51100000000E-03 0. -1.
    9900012    2    1    2    0    0 -0.32287444029E+02  0.26974884035E+02 -0.10653652574E+02  0.47787265861E+02  0.19999976366E+02 0.  0.
        -12    1    1    2    0    0  0.32287444029E+02 -0.26974884035E+02  0.10653652574E+02  0.43400734139E+02  0.00000000000E+00 0.  1.
         11    1    3    3    0    0 -0.10938478291E+02  0.42381092086E+01 -0.23295984785E+01  0.11959887387E+02  0.51100000000E-03 0. -1.
        -11    1    3    3    0    0 -0.10393399169E+02  0.11925559533E+02  0.37588285679E+01  0.16259474436E+02  0.51100000000E-03 0.  1.
        -12    1    3    3    0    0 -0.10955566570E+02  0.10811215294E+02 -0.12082882663E+02  0.19567904038E+02  0.00000000000E+00 0.  1.
</event>
<event>
 7    1  0.2642243E-009  0.4778727E+02  0.7816164E-02  0.1312668E+00
        -11   -1    0    0    0    0  0.00000000000E+00  0.00000000000E+00  0.45593999997E+02  0.45594000000E+02  0.51100000000E-03 0.  1.
         11   -1    0    0    0    0 -0.00000000000E+00 -0.00000000000E+00 -0.45593999997E+02  0.45594000000E+02  0.51100000000E-03 0. -1.
    9900012    2    1    2    0    0  0.32708688169E+02  0.24288185579E+02 -0.14961586623E+02  0.47787270574E+02  0.19999997855E+02 0.  0.
        -12    1    1    2    0    0 -0.32708688169E+02 -0.24288185579E+02  0.14961586623E+02  0.43400729426E+02  0.00000000000E+00 0.  1.
         11    1    3    3    0    0  0.15602954178E+02  0.13799721789E+02 -0.11483397599E+02  0.23785561192E+02  0.51100000000E-03 0. -1.
        -11    1    3    3    0    0  0.80700501820E+01  0.10471165442E+02  0.20956054076E+01  0.13385162604E+02  0.51100000000E-03 0.  1.
        -12    1    3    3    0    0  0.90356838086E+01  0.17298347903E-01 -0.55737944319E+01  0.10616546778E+02  0.00000000000E+00 0.  1.
</event>
<event>
 7    1  0.2642243E-009  0.4778727E+02  0.7816164E-02  0.1312668E+00
        -11   -1    0    0    0    0  0.00000000000E+00  0.00000000000E+00  0.45593999997E+02  0.45594000000E+02  0.51100000000E-03 0.  1.
         11   -1    0    0    0    0 -0.00000000000E+00 -0.00000000000E+00 -0.45593999997E+02  0.45594000000E+02  0.51100000000E-03 0. -1.
    9900012    2    1    2    0    0  0.21024257376E+02 -0.15706379599E+02 -0.34567521702E+02  0.47787270571E+02  0.19999997842E+02 0.  0.
        -12    1    1    2    0    0 -0.21024257376E+02  0.15706379599E+02  0.34567521702E+02  0.43400729429E+02  0.00000000000E+00 0.  1.
         11    1    3    3    0    0  0.45192173345E+01  0.16157151137E+00 -0.14067151641E+02  0.14776135700E+02  0.51100000000E-03 0. -1.
        -11    1    3    3    0    0  0.16417662205E+02 -0.89283868411E+01 -0.12838654466E+02  0.22673481705E+02  0.51100000000E-03 0.  1.
         12    1    3    3    0    0  0.87377837171E-01 -0.69395642688E+01 -0.76617155950E+01  0.10337653166E+02  0.00000000000E+00 0. -1.
</event>
<event>
 7    1  0.2642243E-009  0.4778731E+02  0.7816164E-02  0.1312668E+00
        -11   -1    0    0    0    0  0.00000000000E+00  0.00000000000E+00  0.45593999997E+02  0.45594000000E+02  0.51100000000E-03 0.  1.
         11   -1    0    0    0    0 -0.00000000000E+00 -0.00000000000E+00 -0.45593999997E+02  0.45594000000E+02  0.51100000000E-03 0. -1.
    9900012    2    1    2    0    0 -0.29402387343E+02 -0.19165413317E+02 -0.25530500687E+02  0.47787309747E+02  0.20000176460E+02 0.  0.
        -12    1    1    2    0    0  0.29402387343E+02  0.19165413317E+02  0.25530500687E+02  0.43400690253E+02  0.00000000000E+00 0.  1.
         11    1    3    3    0    0 -0.14407247234E+02 -0.62743628538E+01 -0.11542480884E+02  0.19497827246E+02  0.51100000000E-03 0. -1.
        -11    1    3    3    0    0 -0.10064278789E+02 -0.68846941311E+01 -0.16137685080E+02  0.20226556820E+02  0.51100000000E-03 0.  1.
        -12    1    3    3    0    0 -0.49308613201E+01 -0.60063563319E+01  0.21496652758E+01  0.80629256812E+01  0.00000000000E+00 0.  1.
</event>
<event>
 7    1  0.2642243E-009  0.4778727E+02  0.7816164E-02  0.1312668E+00
        -11   -1    0    0    0    0  0.00000000000E+00  0.00000000000E+00  0.45593999997E+02  0.45594000000E+02  0.51100000000E-03 0.  1.
         11   -1    0    0    0    0 -0.00000000000E+00 -0.00000000000E+00 -0.45593999997E+02  0.45594000000E+02  0.51100000000E-03 0. -1.
    9900012    2    1    2    0    0 -0.12859922271E+02 -0.39619872987E+02 -0.12186533621E+02  0.47787268001E+02  0.19999986124E+02 0.  0.
        -12    1    1    2    0    0  0.12859922271E+02  0.39619872987E+02  0.12186533621E+02  0.43400731999E+02  0.00000000000E+00 0.  1.
         11    1    3    3    0    0 -0.35355317657E+01 -0.29519501250E+02 -0.13400568715E+01  0.29760656773E+02  0.51100000000E-03 0. -1.
        -11    1    3    3    0    0 -0.24975357482E+01 -0.38841562620E+01 -0.60831854831E+01  0.76373752405E+01  0.51100000000E-03 0.  1.
        -12    1    3    3    0    0 -0.68268547569E+01 -0.62162154754E+01 -0.47632912665E+01  0.10389235987E+02  0.00000000000E+00 0.  1.
</event>
<event>
 7    1  0.2642243E-009  0.4778728E+02  0.7816164E-02  0.1312668E+00
        -11   -1    0    0    0    0  0.00000000000E+00  0.00000000000E+00  0.45593999997E+02  0.45594000000E+02  0.51100000000E-03 0. -1.
         11   -1    0    0    0    0 -0.00000000000E+00 -0.00000000000E+00 -0.45593999997E+02  0.45594000000E+02  0.51100000000E-03 0.  1.
    9900012    2    1    2    0    0  0.24110645416E+02  0.34242813579E+02 -0.11389880318E+02  0.47787275608E+02  0.20000020805E+02 0.  0.
        -12    1    1    2    0    0 -0.24110645416E+02 -0.34242813579E+02  0.11389880318E+02  0.43400724392E+02  0.00000000000E+00 0.  1.
         11    1    3    3    0    0  0.11188769016E+02  0.12763659662E+02  0.22862516004E+01  0.17126777476E+02  0.51100000000E-03 0. -1.
        -11    1    3    3    0    0  0.25854761203E+01  0.14994477599E+02 -0.82187877559E+01  0.17293568680E+02  0.51100000000E-03 0.  1.
         12    1    3    3    0    0  0.10336400279E+02  0.64846763173E+01 -0.54573441621E+01  0.13366929452E+02  0.00000000000E+00 0. -1.
</event>
<event>
 7    1  0.2642243E-009  0.4778724E+02  0.7816164E-02  0.1312668E+00
        -11   -1    0    0    0    0  0.00000000000E+00  0.00000000000E+00  0.45593999997E+02  0.45594000000E+02  0.51100000000E-03 0.  1.
         11   -1    0    0    0    0 -0.00000000000E+00 -0.00000000000E+00 -0.45593999997E+02  0.45594000000E+02  0.51100000000E-03 0. -1.
    9900012    2    1    2    0    0 -0.59775275747E+01 -0.13132641878E+02 -0.40931999677E+02  0.47787242908E+02  0.19999871714E+02 0.  0.
        -12    1    1    2    0    0  0.59775275747E+01  0.13132641878E+02  0.40931999677E+02  0.43400757092E+02  0.00000000000E+00 0.  1.
         11    1    3    3    0    0  0.24487792761E+01 -0.18777888318E+01 -0.26599849349E+02  0.26778248570E+02  0.51100000000E-03 0. -1.
        -11    1    3    3    0    0 -0.78102608458E+01 -0.70871004317E+01 -0.12657269241E+02  0.16475243000E+02  0.51100000000E-03 0.  1.
         12    1    3    3    0    0 -0.61604600499E+00 -0.41677526144E+01 -0.16748810872E+01  0.45337513376E+01  0.00000000000E+00 0. -1.
</event>
<event>
 7    1  0.2642243E-009  0.4778727E+02  0.7816164E-02  0.1312668E+00
        -11   -1    0    0    0    0  0.00000000000E+00  0.00000000000E+00  0.45593999997E+02  0.45594000000E+02  0.51100000000E-03 0.  1.
         11   -1    0    0    0    0 -0.00000000000E+00 -0.00000000000E+00 -0.45593999997E+02  0.45594000000E+02  0.51100000000E-03 0. -1.
    9900012    2    1    2    0    0 -0.30255096712E+02  0.46752396190E+01  0.30763526608E+02  0.47787270606E+02  0.19999998001E+02 0.  0.
        -12    1    1    2    0    0  0.30255096712E+02 -0.46752396190E+01 -0.30763526608E+02  0.43400729394E+02  0.00000000000E+00 0.  1.
         11    1    3    3    0    0 -0.10533448312E+02  0.81046581434E+01  0.15674672534E+02  0.20550775564E+02  0.51100000000E-03 0. -1.
        -11    1    3    3    0    0 -0.14271652083E+02 -0.23604354429E+01  0.42819061281E+01  0.15085967951E+02  0.51100000000E-03 0.  1.
        -12    1    3    3    0    0 -0.54499963160E+01 -0.10689830815E+01  0.10806947946E+02  0.12150527091E+02  0.00000000000E+00 0.  1.
</event>
<event>
 7    1  0.2642243E-009  0.4778727E+02  0.7816164E-02  0.1312668E+00
        -11   -1    0    0    0    0  0.00000000000E+00  0.00000000000E+00  0.45593999997E+02  0.45594000000E+02  0.51100000000E-03 0.  1.
         11   -1    0    0    0    0 -0.00000000000E+00 -0.00000000000E+00 -0.45593999997E+02  0.45594000000E+02  0.51100000000E-03 0. -1.
    9900012    2    1    2    0    0 -0.42364011886E+02 -0.21170143706E+01 -0.91887024292E+01  0.47787268379E+02  0.19999987846E+02 0.  0.
        -12    1    1    2    0    0  0.42364011886E+02  0.21170143706E+01  0.91887024292E+01  0.43400731621E+02  0.00000000000E+00 0.  1.
         11    1    3    3    0    0 -0.25778981245E+02 -0.71387039020E+01 -0.35876209596E+01  0.26988664136E+02  0.51100000000E-03 0. -1.
        -11    1    3    3    0    0 -0.13267457934E+01  0.36936577774E+01 -0.36485763822E+01  0.53586819327E+01  0.51100000000E-03 0.  1.
        -12    1    3    3    0    0 -0.15258284847E+02  0.13280317539E+01 -0.19525050874E+01  0.15439922310E+02  0.00000000000E+00 0.  1.
</event>
<event>
 7    1  0.2642243E-009  0.4778726E+02  0.7816164E-02  0.1312668E+00
        -11   -1    0    0    0    0  0.00000000000E+00  0.00000000000E+00  0.45593999997E+02  0.45594000000E+02  0.51100000000E-03 0.  1.
         11   -1    0    0    0    0 -0.00000000000E+00 -0.00000000000E+00 -0.45593999997E+02  0.45594000000E+02  0.51100000000E-03 0. -1.
    9900012    2    1    2    0    0  0.17882232869E+02 -0.90592191062E+01 -0.38493903344E+02  0.47787259248E+02  0.19999946216E+02 0.  0.
        -12    1    1    2    0    0 -0.17882232869E+02  0.90592191062E+01  0.38493903344E+02  0.43400740752E+02  0.00000000000E+00 0.  1.
         11    1    3    3    0    0  0.16032600874E+02 -0.22364482370E+01 -0.26999521734E+02  0.31480472767E+02  0.51100000000E-03 0. -1.
        -11    1    3    3    0    0  0.48938381876E+01 -0.56373200452E+01 -0.10516418505E+02  0.12896669645E+02  0.51100000000E-03 0.  1.
         12    1    3    3    0    0 -0.30442061930E+01 -0.11854508240E+01 -0.97796310425E+00  0.34101168359E+01  0.00000000000E+00 0. -1.
</event>
<event>
 7    1  0.2642243E-009  0.4778727E+02  0.7816164E-02  0.1312668E+00
        -11   -1    0    0    0    0  0.00000000000E+00  0.00000000000E+00  0.45593999997E+02  0.45594000000E+02  0.51100000000E-03 0.  1.
         11   -1    0    0    0    0 -0.00000000000E+00 -0.00000000000E+00 -0.45593999997E+02  0.45594000000E+02  0.51100000000E-03 0. -1.
    9900012    2    1    2    0    0 -0.13185833001E+01 -0.10375541770E+02 -0.42121642310E+02  0.47787270976E+02  0.19999999687E+02 0.  0.
        -12    1    1    2    0    0  0.13185833001E+01  0.10375541770E+02  0.42121642310E+02  0.43400729024E+02  0.00000000000E+00 0.  1.
         11    1    3    3    0    0  0.76207460642E+01 -0.10831247274E+01 -0.26015358794E+02  0.27130201311E+02  0.51100000000E-03 0. -1.
        -11    1    3    3    0    0 -0.62997161185E+01 -0.59175046231E+01 -0.11081831826E+02  0.14053835100E+02  0.51100000000E-03 0.  1.
         12    1    3    3    0    0 -0.26396132458E+01 -0.33749124199E+01 -0.50244516896E+01  0.66032345643E+01  0.00000000000E+00 0. -1.
</event>
<event>
 7    1  0.2642243E-009  0.4778726E+02  0.7816164E-02  0.1312668E+00
        -11   -1    0    0    0    0  0.00000000000E+00  0.00000000000E+00  0.45593999997E+02  0.45594000000E+02  0.51100000000E-03 0.  1.
         11   -1    0    0    0    0 -0.00000000000E+00 -0.00000000000E+00 -0.45593999997E+02  0.45594000000E+02  0.51100000000E-03 0. -1.
    9900012    2    1    2    0    0  0.32843472715E+02 -0.24021535627E+02 -0.15096223499E+02  0.47787264547E+02  0.19999970378E+02 0.  0.
        -12    1    1    2    0    0 -0.32843472715E+02  0.24021535627E+02  0.15096223499E+02  0.43400735453E+02  0.00000000000E+00 0.  1.
         11    1    3    3    0    0  0.18078958495E+02 -0.18289651780E+02 -0.40371215495E+01  0.26031873792E+02  0.51100000000E-03 0. -1.
        -11    1    3    3    0    0  0.65395030220E+01  0.19551780574E+01 -0.15042555036E+01  0.69893208462E+01  0.51100000000E-03 0.  1.
         12    1    3    3    0    0  0.82250111985E+01 -0.76870619053E+01 -0.95548464462E+01  0.14766069909E+02  0.00000000000E+00 0. -1.
</event>
<event>
 7    1  0.2642243E-009  0.4778726E+02  0.7816164E-02  0.1312668E+00
        -11   -1    0    0    0    0  0.00000000000E+00  0.00000000000E+00  0.45593999997E+02  0.45594000000E+02  0.51100000000E-03 0. -1.
         11   -1    0    0    0    0 -0.00000000000E+00 -0.00000000000E+00 -0.45593999997E+02  0.45594000000E+02  0.51100000000E-03 0.  1.
    9900012    2    1    2    0    0  0.81957557490E+00  0.24612493326E+02  0.35737621634E+02  0.47787261160E+02  0.19999954931E+02 0.  0.
        -12    1    1    2    0    0 -0.81957557490E+00 -0.24612493326E+02 -0.35737621634E+02  0.43400738840E+02  0.00000000000E+00 0.  1.
         11    1    3    3    0    0  0.60182219459E+01  0.10159027522E+02  0.54892132627E+01  0.13021378502E+02  0.51100000000E-03 0. -1.
        -11    1    3    3    0    0 -0.61013170667E+01  0.60595823841E+01  0.17101983330E+02  0.19142164002E+02  0.51100000000E-03 0.  1.
         12    1    3    3    0    0  0.90267069564E+00  0.83938834201E+01  0.13146425041E+02  0.15623718656E+02  0.00000000000E+00 0. -1.
</event>
<event>
 7    1  0.2642243E-009  0.4778727E+02  0.7816164E-02  0.1312668E+00
        -11   -1    0    0    0    0  0.00000000000E+00  0.00000000000E+00  0.45593999997E+02  0.45594000000E+02  0.51100000000E-03 0. -1.
         11   -1    0    0    0    0 -0.00000000000E+00 -0.00000000000E+00 -0.45593999997E+02  0.45594000000E+02  0.51100000000E-03 0.  1.
    9900012    2    1    2    0    0  0.23261951454E+02 -0.17316031003E+02  0.32290248809E+02  0.47787268631E+02  0.19999988998E+02 0.  0.
        -12    1    1    2    0    0 -0.23261951454E+02  0.17316031003E+02 -0.32290248809E+02  0.43400731369E+02  0.00000000000E+00 0.  1.
         11    1    3    3    0    0  0.15970201628E+02 -0.13500837678E+02  0.22381286971E+02  0.30630735622E+02  0.51100000000E-03 0. -1.
        -11    1    3    3    0    0  0.12963896296E+00  0.35842674295E+01  0.16128471643E+01  0.39325634774E+01  0.51100000000E-03 0.  1.
        -12    1    3    3    0    0  0.71621108636E+01 -0.73994607549E+01  0.82961146741E+01  0.13223969532E+02  0.00000000000E+00 0.  1.
</event>
<event>
 7    1  0.2642243E-009  0.4778726E+02  0.7816164E-02  0.1312668E+00
        -11   -1    0    0    0    0  0.00000000000E+00  0.00000000000E+00  0.45593999997E+02  0.45594000000E+02  0.51100000000E-03 0.  1.
         11   -1    0    0    0    0 -0.00000000000E+00 -0.00000000000E+00 -0.45593999997E+02  0.45594000000E+02  0.51100000000E-03 0. -1.
    9900012    2    1    2    0    0 -0.65342459292E+01 -0.34966090950E+02 -0.24865640198E+02  0.47787263270E+02  0.19999964554E+02 0.  0.
        -12    1    1    2    0    0  0.65342459292E+01  0.34966090950E+02  0.24865640198E+02  0.43400736730E+02  0.00000000000E+00 0.  1.
         11    1    3    3    0    0  0.22089028975E+01 -0.58208360203E+01 -0.10206084667E+02  0.11955147363E+02  0.51100000000E-03 0. -1.
        -11    1    3    3    0    0 -0.11673753018E+02 -0.21252323054E+02 -0.11538289901E+02  0.26852744344E+02  0.51100000000E-03 0.  1.
         12    1    3    3    0    0  0.29306041915E+01 -0.78929318766E+01 -0.31212656306E+01  0.89793715633E+01  0.00000000000E+00 0. -1.
</event>
<event>
 7    1  0.2642243E-009  0.4778727E+02  0.7816164E-02  0.1312668E+00
        -11   -1    0    0    0    0  0.00000000000E+00  0.00000000000E+00  0.45593999997E+02  0.45594000000E+02  0.51100000000E-03 0.  1.
         11   -1    0    0    0    0 -0.00000000000E+00 -0.00000000000E+00 -0.45593999997E+02  0.45594000000E+02  0.51100000000E-03 0. -1.
    9900012    2    1    2    0    0  0.26393163561E+02  0.15820138320E+02 -0.30606331877E+02  0.47787269474E+02  0.19999992841E+02 0.  0.
        -12    1    1    2    0    0 -0.26393163561E+02 -0.15820138320E+02  0.30606331877E+02  0.43400730526E+02  0.00000000000E+00 0.  1.
         11    1    3    3    0    0  0.56616762242E+01  0.49322066928E+01 -0.95700835912E+01  0.12164199141E+02  0.51100000000E-03 0. -1.
        -11    1    3    3    0    0  0.93044343471E+01  0.11951044970E+02 -0.18428866652E+02  0.23854205095E+02  0.51100000000E-03 0.  1.
        -12    1    3    3    0    0  0.11427052990E+02 -0.10631133435E+01 -0.26073816340E+01  0.11768865238E+02  0.00000000000E+00 0.  1.
</event>
<event>
 7    1  0.2642243E-009  0.4778727E+02  0.7816164E-02  0.1312668E+00
        -11   -1    0    0    0    0  0.00000000000E+00  0.00000000000E+00  0.45593999997E+02  0.45594000000E+02  0.51100000000E-03 0.  1.
         11   -1    0    0    0    0 -0.00000000000E+00 -0.00000000000E+00 -0.45593999997E+02  0.45594000000E+02  0.51100000000E-03 0. -1.
    9900012    2    1    2    0    0  0.23001019672E+02 -0.36646102531E+02 -0.34116686498E+01  0.47787271669E+02  0.20000002849E+02 0.  0.
        -12    1    1    2    0    0 -0.23001019672E+02  0.36646102531E+02  0.34116686498E+01  0.43400728331E+02  0.00000000000E+00 0.  1.
         11    1    3    3    0    0 -0.11415485952E+01 -0.70994903572E+01 -0.42941398630E+01  0.83752930666E+01  0.51100000000E-03 0. -1.
        -11    1    3    3    0    0  0.14356799442E+02 -0.10696933907E+02 -0.18476592287E+01  0.17998775795E+02  0.51100000000E-03 0.  1.
         12    1    3    3    0    0  0.97857688255E+01 -0.18849678266E+02  0.27301304419E+01  0.21413202808E+02  0.00000000000E+00 0. -1.
</event>
<event>
 7    1  0.2642243E-009  0.4778727E+02  0.7816164E-02  0.1312668E+00
        -11   -1    0    0    0    0  0.00000000000E+00  0.00000000000E+00  0.45593999997E+02  0.45594000000E+02  0.51100000000E-03 0.  1.
         11   -1    0    0    0    0 -0.00000000000E+00 -0.00000000000E+00 -0.45593999997E+02  0.45594000000E+02  0.51100000000E-03 0. -1.
    9900012    2    1    2    0    0 -0.39184402530E+02  0.13167435134E+02 -0.13222139594E+02  0.47787265846E+02  0.19999976300E+02 0.  0.
        -12    1    1    2    0    0  0.39184402530E+02 -0.13167435134E+02  0.13222139594E+02  0.43400734154E+02  0.00000000000E+00 0.  1.
         11    1    3    3    0    0 -0.14961795931E+02 -0.17304036653E+01 -0.71984887360E-01  0.15061700316E+02  0.51100000000E-03 0. -1.
        -11    1    3    3    0    0 -0.16274016386E+02  0.11509649415E+02 -0.13506182296E+02  0.24077636916E+02  0.51100000000E-03 0.  1.
        -12    1    3    3    0    0 -0.79485902130E+01  0.33881893837E+01  0.35602758914E+00  0.86479286143E+01  0.00000000000E+00 0.  1.
</event>
<event>
 7    1  0.2642243E-009  0.4778727E+02  0.7816164E-02  0.1312668E+00
        -11   -1    0    0    0    0  0.00000000000E+00  0.00000000000E+00  0.45593999997E+02  0.45594000000E+02  0.51100000000E-03 0. -1.
         11   -1    0    0    0    0 -0.00000000000E+00 -0.00000000000E+00 -0.45593999997E+02  0.45594000000E+02  0.51100000000E-03 0.  1.
    9900012    2    1    2    0    0  0.32521600650E+02  0.28736221829E+02  0.44513780360E+00  0.47787273030E+02  0.20000009053E+02 0.  0.
        -12    1    1    2    0    0 -0.32521600650E+02 -0.28736221829E+02 -0.44513780360E+00  0.43400726970E+02  0.00000000000E+00 0.  1.
         11    1    3    3    0    0  0.95715675637E+01  0.14453593386E+02 -0.12173188333E+01  0.17378237333E+02  0.51100000000E-03 0. -1.
        -11    1    3    3    0    0  0.42082356232E+01  0.12120095504E+01  0.57181584456E+01  0.72024683602E+01  0.51100000000E-03 0.  1.
        -12    1    3    3    0    0  0.18741797463E+02  0.13070618892E+02 -0.40557018087E+01  0.23206567337E+02  0.00000000000E+00 0.  1.
</event>
<event>
 7    1  0.2642243E-009  0.4778728E+02  0.7816164E-02  0.1312668E+00
        -11   -1    0    0    0    0  0.00000000000E+00  0.00000000000E+00  0.45593999997E+02  0.45594000000E+02  0.51100000000E-03 0. -1.
         11   -1    0    0    0    0 -0.00000000000E+00 -0.00000000000E+00 -0.45593999997E+02  0.45594000000E+02  0.51100000000E-03 0.  1.
    9900012    2    1    2    0    0 -0.66287488616E+01 -0.41292000709E+02  0.11604013146E+02  0.47787277021E+02  0.20000027251E+02 0.  0.
        -12    1    1    2    0    0  0.66287488616E+01  0.41292000709E+02 -0.11604013146E+02  0.43400722979E+02  0.00000000000E+00 0.  1.
         11    1    3    3    0    0 -0.76406291736E+01 -0.10494964029E+02  0.67513742059E+01  0.14632311439E+02  0.51100000000E-03 0. -1.
        -11    1    3    3    0    0  0.43475370136E+01 -0.50494025127E+01 -0.36471283161E+00  0.66731221726E+01  0.51100000000E-03 0.  1.
         12    1    3    3    0    0 -0.33356567016E+01 -0.25747634167E+02  0.52173517715E+01  0.26481843409E+02  0.00000000000E+00 0. -1.
</event>
<event>
 7    1  0.2642243E-009  0.4778732E+02  0.7816164E-02  0.1312668E+00
        -11   -1    0    0    0    0  0.00000000000E+00  0.00000000000E+00  0.45593999997E+02  0.45594000000E+02  0.51100000000E-03 0. -1.
         11   -1    0    0    0    0 -0.00000000000E+00 -0.00000000000E+00 -0.45593999997E+02  0.45594000000E+02  0.51100000000E-03 0.  1.
    9900012    2    1    2    0    0  0.30284478698E+02  0.11894808179E+02  0.28722523225E+02  0.47787315074E+02  0.20000200747E+02 0.  0.
        -12    1    1    2    0    0 -0.30284478698E+02 -0.11894808179E+02 -0.28722523225E+02  0.43400684926E+02  0.00000000000E+00 0.  1.
         11    1    3    3    0    0  0.46354401223E+01 -0.14175792600E+00  0.93252407005E+01  0.10414773873E+02  0.51100000000E-03 0. -1.
        -11    1    3    3    0    0  0.22612335993E+01 -0.26035605147E+01 -0.31443546639E+00  0.34627409184E+01  0.51100000000E-03 0.  1.
        -12    1    3    3    0    0  0.23387804976E+02  0.14640126619E+02  0.19711717991E+02  0.33909800283E+02  0.00000000000E+00 0.  1.
</event>
<event>
 7    1  0.2642243E-009  0.4778727E+02  0.7816164E-02  0.1312668E+00
        -11   -1    0    0    0    0  0.00000000000E+00  0.00000000000E+00  0.45593999997E+02  0.45594000000E+02  0.51100000000E-03 0. -1.
         11   -1    0    0    0    0 -0.00000000000E+00 -0.00000000000E+00 -0.45593999997E+02  0.45594000000E+02  0.51100000000E-03 0.  1.
    9900012    2    1    2    0    0  0.38088897404E+01 -0.37709477820E+02  0.21144996073E+02  0.47787271695E+02  0.20000002965E+02 0.  0.
        -12    1    1    2    0    0 -0.38088897404E+01  0.37709477820E+02 -0.21144996073E+02  0.43400728305E+02  0.00000000000E+00 0.  1.
         11    1    3    3    0    0 -0.13880168159E+01 -0.86071664354E+01 -0.23476848770E+01  0.90289273599E+01  0.51100000000E-03 0. -1.
        -11    1    3    3    0    0 -0.11549572049E+01 -0.10901753160E+01  0.32544308929E+01  0.36212883153E+01  0.51100000000E-03 0.  1.
         12    1    3    3    0    0  0.63518637611E+01 -0.28012136069E+02  0.20238250057E+02  0.35137056020E+02  0.00000000000E+00 0. -1.
</event>
<event>
 7    1  0.2642243E-009  0.4778727E+02  0.7816164E-02  0.1312668E+00
        -11   -1    0    0    0    0  0.00000000000E+00  0.00000000000E+00  0.45593999997E+02  0.45594000000E+02  0.51100000000E-03 0. -1.
         11   -1    0    0    0    0 -0.00000000000E+00 -0.00000000000E+00 -0.45593999997E+02  0.45594000000E+02  0.51100000000E-03 0.  1.
    9900012    2    1    2    0    0  0.40530051654E+02  0.15285356132E+02 -0.27011153129E+01  0.47787271629E+02  0.20000002667E+02 0.  0.
        -12    1    1    2    0    0 -0.40530051654E+02 -0.15285356132E+02  0.27011153129E+01  0.43400728371E+02  0.00000000000E+00 0.  1.
         11    1    3    3    0    0  0.78826688544E+01  0.27230906699E+01  0.60869454887E+00  0.83619495561E+01  0.51100000000E-03 0. -1.
        -11    1    3    3    0    0  0.28366826650E+02  0.11455287987E+02  0.40299056633E+01  0.30856775868E+02  0.51100000000E-03 0.  1.
        -12    1    3    3    0    0  0.42805561501E+01  0.11069774745E+01 -0.73397155251E+01  0.85685462053E+01  0.00000000000E+00 0.  1.
</event>
<event>
 7    1  0.2642243E-009  0.4778727E+02  0.7816164E-02  0.1312668E+00
        -11   -1    0    0    0    0  0.00000000000E+00  0.00000000000E+00  0.45593999997E+02  0.45594000000E+02  0.51100000000E-03 0.  1.
         11   -1    0    0    0    0 -0.00000000000E+00 -0.00000000000E+00 -0.45593999997E+02  0.45594000000E+02  0.51100000000E-03 0. -1.
    9900012    2    1    2    0    0 -0.29925230805E+02 -0.22453386656E+02  0.21998849522E+02  0.47787269691E+02  0.19999993829E+02 0.  0.
        -12    1    1    2    0    0  0.29925230805E+02  0.22453386656E+02 -0.21998849522E+02  0.43400730309E+02  0.00000000000E+00 0.  1.
         11    1    3    3    0    0 -0.93430084405E+01 -0.56546626910E+01  0.19012069151E+01  0.11085197556E+02  0.51100000000E-03 0. -1.
        -11    1    3    3    0    0 -0.29629974049E+01  0.88537711629E+00 -0.17284570570E+01  0.35427122827E+01  0.51100000000E-03 0.  1.
        -12    1    3    3    0    0 -0.17619224960E+02 -0.17684101081E+02  0.21826099664E+02  0.33159359852E+02  0.00000000000E+00 0.  1.
</event>
<event>
 7    1  0.2642243E-009  0.4778725E+02  0.7816164E-02  0.1312668E+00
        -11   -1    0    0    0    0  0.00000000000E+00  0.00000000000E+00  0.45593999997E+02  0.45594000000E+02  0.51100000000E-03 0.  1.
         11   -1    0    0    0    0 -0.00000000000E+00 -0.00000000000E+00 -0.45593999997E+02  0.45594000000E+02  0.51100000000E-03 0. -1.
    9900012    2    1    2    0    0  0.26193286856E+02 -0.27824208208E+02 -0.20575477504E+02  0.47787249854E+02  0.19999903384E+02 0.  0.
        -12    1    1    2    0    0 -0.26193286856E+02  0.27824208208E+02  0.20575477504E+02  0.43400750146E+02  0.00000000000E+00 0.  1.
         11    1    3    3    0    0  0.16642605571E+02 -0.18570683955E+02 -0.22370094309E+02  0.33500264811E+02  0.51100000000E-03 0. -1.
        -11    1    3    3    0    0  0.10123515103E+02 -0.85020475304E+01  0.18000462272E+01  0.13342058947E+02  0.51100000000E-03 0.  1.
         12    1    3    3    0    0 -0.57283381841E+00 -0.75147672326E+00 -0.54294219973E-02  0.94492609644E+00  0.00000000000E+00 0. -1.
</event>
<event>
 7    1  0.2642243E-009  0.4778727E+02  0.7816164E-02  0.1312668E+00
        -11   -1    0    0    0    0  0.00000000000E+00  0.00000000000E+00  0.45593999997E+02  0.45594000000E+02  0.51100000000E-03 0.  1.
         11   -1    0    0    0    0 -0.00000000000E+00 -0.00000000000E+00 -0.45593999997E+02  0.45594000000E+02  0.51100000000E-03 0. -1.
    9900012    2    1    2    0    0  0.35305525334E+02  0.23340199808E+02 -0.96113772672E+01  0.47787267067E+02  0.19999981864E+02 0.  0.
        -12    1    1    2    0    0 -0.35305525334E+02 -0.23340199808E+02  0.96113772672E+01  0.43400732933E+02  0.00000000000E+00 0.  1.
         11    1    3    3    0    0  0.17830098936E+02  0.10487773280E+02 -0.29388575789E+00  0.20687972001E+02  0.51100000000E-03 0. -1.
        -11    1    3    3    0    0  0.16386004763E+02  0.10357663144E+02 -0.12380593041E+02  0.23001335227E+02  0.51100000000E-03 0.  1.
        -12    1    3    3    0    0  0.10894216349E+01  0.24947633847E+01  0.30631015320E+01  0.40979598387E+01  0.00000000000E+00 0.  1.
</event>
<event>
 7    1  0.2642243E-009  0.4778727E+02  0.7816164E-02  0.1312668E+00
        -11   -1    0    0    0    0  0.00000000000E+00  0.00000000000E+00  0.45593999997E+02  0.45594000000E+02  0.51100000000E-03 0.  1.
         11   -1    0    0    0    0 -0.00000000000E+00 -0.00000000000E+00 -0.45593999997E+02  0.45594000000E+02  0.51100000000E-03 0. -1.
    9900012    2    1    2    0    0 -0.34269455063E+02  0.18173568725E+02 -0.19466610107E+02  0.47787273513E+02  0.20000011255E+02 0.  0.
        -12    1    1    2    0    0  0.34269455063E+02 -0.18173568725E+02  0.19466610107E+02  0.43400726487E+02  0.00000000000E+00 0.  1.
         11    1    3    3    0    0 -0.19494251535E+02  0.11990335481E+02 -0.24708974304E+01  0.23019542181E+02  0.51100000000E-03 0. -1.
        -11    1    3    3    0    0 -0.12194450881E+02  0.79253942094E+01 -0.11880393000E+02  0.18779250351E+02  0.51100000000E-03 0.  1.
         12    1    3    3    0    0 -0.25807526476E+01 -0.17421609657E+01 -0.51153196769E+01  0.59884809806E+01  0.00000000000E+00 0. -1.
</event>
<event>
 7    1  0.2642243E-009  0.4778727E+02  0.7816164E-02  0.1312668E+00
        -11   -1    0    0    0    0  0.00000000000E+00  0.00000000000E+00  0.45593999997E+02  0.45594000000E+02  0.51100000000E-03 0. -1.
         11   -1    0    0    0    0 -0.00000000000E+00 -0.00000000000E+00 -0.45593999997E+02  0.45594000000E+02  0.51100000000E-03 0.  1.
    9900012    2    1    2    0    0  0.82485673380E+01 -0.36305981610E+02 -0.22303819111E+02  0.47787268315E+02  0.19999987557E+02 0.  0.
        -12    1    1    2    0    0 -0.82485673380E+01  0.36305981610E+02  0.22303819111E+02  0.43400731685E+02  0.00000000000E+00 0.  1.
         11    1    3    3    0    0 -0.43317505424E+01 -0.24628729453E+01 -0.23352819808E+01  0.55030308102E+01  0.51100000000E-03 0. -1.
        -11    1    3    3    0    0  0.12034236629E+02 -0.19842461310E+02 -0.11338575716E+02  0.25828461464E+02  0.51100000000E-03 0.  1.
        -12    1    3    3    0    0  0.54608125141E+00 -0.14000647355E+02 -0.86299614144E+01  0.16455776041E+02  0.00000000000E+00 0.  1.
</event>
<event>
 7    1  0.2642243E-009  0.4778727E+02  0.7816164E-02  0.1312668E+00
        -11   -1    0    0    0    0  0.00000000000E+00  0.00000000000E+00  0.45593999997E+02  0.45594000000E+02  0.51100000000E-03 0.  1.
         11   -1    0    0    0    0 -0.00000000000E+00 -0.00000000000E+00 -0.45593999997E+02  0.45594000000E+02  0.51100000000E-03 0. -1.
    9900012    2    1    2    0    0  0.26520889053E+02  0.30242283972E+02 -0.16299389496E+02  0.47787269661E+02  0.19999993693E+02 0.  0.
        -12    1    1    2    0    0 -0.26520889053E+02 -0.30242283972E+02  0.16299389496E+02  0.43400730339E+02  0.00000000000E+00 0.  1.
         11    1    3    3    0    0  0.22370251449E+01  0.65482827808E+01 -0.28312040952E+01  0.74766306426E+01  0.51100000000E-03 0. -1.
        -11    1    3    3    0    0 -0.16175495056E+00 -0.22721338405E+01 -0.13360610741E+01  0.26407984225E+01  0.51100000000E-03 0.  1.
        -12    1    3    3    0    0  0.24445618858E+02  0.25966135032E+02 -0.12132124327E+02  0.37669840596E+02  0.00000000000E+00 0.  1.
</event>
<event>
 7    1  0.2642243E-009  0.4778727E+02  0.7816164E-02  0.1312668E+00
        -11   -1    0    0    0    0  0.00000000000E+00  0.00000000000E+00  0.45593999997E+02  0.45594000000E+02  0.51100000000E-03 0.  1.
         11   -1    0    0    0    0 -0.00000000000E+00 -0.00000000000E+00 -0.45593999997E+02  0.45594000000E+02  0.51100000000E-03 0. -1.
    9900012    2    1    2    0    0 -0.44513821034E+01 -0.39824225258E+02 -0.16668522064E+02  0.47787270193E+02  0.19999996118E+02 0.  0.
        -12    1    1    2    0    0  0.44513821034E+01  0.39824225258E+02  0.16668522064E+02  0.43400729807E+02  0.00000000000E+00 0.  1.
         11    1    3    3    0    0 -0.52787703793E+00 -0.11897113331E+02 -0.13145532684E+02  0.17737671482E+02  0.51100000000E-03 0. -1.
        -11    1    3    3    0    0 -0.50271488563E+01 -0.58316069286E+01 -0.42950054252E+00  0.77113122081E+01  0.51100000000E-03 0.  1.
         12    1    3    3    0    0  0.11036437908E+01 -0.22095504998E+02 -0.30934888372E+01  0.22338286503E+02  0.00000000000E+00 0. -1.
</event>
<event>
 7    1  0.2642243E-009  0.4778726E+02  0.7816164E-02  0.1312668E+00
        -11   -1    0    0    0    0  0.00000000000E+00  0.00000000000E+00  0.45593999997E+02  0.45594000000E+02  0.51100000000E-03 0. -1.
         11   -1    0    0    0    0 -0.00000000000E+00 -0.00000000000E+00 -0.45593999997E+02  0.45594000000E+02  0.51100000000E-03 0.  1.
    9900012    2    1    2    0    0 -0.13852384762E+02  0.81187598069E+01  0.40321475000E+02  0.47787260714E+02  0.19999952898E+02 0.  0.
        -12    1    1    2    0    0  0.13852384762E+02 -0.81187598069E+01 -0.40321475000E+02  0.43400739286E+02  0.00000000000E+00 0.  1.
         11    1    3    3    0    0 -0.54399954040E-01 -0.18455222445E+01  0.10613873775E+01  0.21296608030E+01  0.51100000000E-03 0. -1.
        -11    1    3    3    0    0 -0.11761921148E+02  0.81993544681E+01  0.13295531826E+02  0.19553602471E+02  0.51100000000E-03 0.  1.
        -12    1    3    3    0    0 -0.20360636598E+01  0.17649275832E+01  0.25964555797E+02  0.26103997440E+02  0.00000000000E+00 0.  1.
</event>
<event>
 7    1  0.2642243E-009  0.4778727E+02  0.7816164E-02  0.1312668E+00
        -11   -1    0    0    0    0  0.00000000000E+00  0.00000000000E+00  0.45593999997E+02  0.45594000000E+02  0.51100000000E-03 0.  1.
         11   -1    0    0    0    0 -0.00000000000E+00 -0.00000000000E+00 -0.45593999997E+02  0.45594000000E+02  0.51100000000E-03 0. -1.
    9900012    2    1    2    0    0 -0.42088025174E+02 -0.31879216565E+01  0.10102402057E+02  0.47787271494E+02  0.20000002050E+02 0.  0.
        -12    1    1    2    0    0  0.42088025174E+02  0.31879216565E+01 -0.10102402057E+02  0.43400728506E+02  0.00000000000E+00 0.  1.
         11    1    3    3    0    0 -0.34468550524E+02 -0.80797344472E+01  0.80700146999E+01  0.36310993121E+02  0.51100000000E-03 0. -1.
        -11    1    3    3    0    0 -0.16816030703E+01  0.42373170506E+01  0.29533904192E+01  0.54318652324E+01  0.51100000000E-03 0.  1.
        -12    1    3    3    0    0 -0.59378715798E+01  0.65449574015E+00 -0.92100306192E+00  0.60444131405E+01  0.00000000000E+00 0.  1.
</event>
<event>
 7    1  0.2642243E-009  0.4778727E+02  0.7816164E-02  0.1312668E+00
        -11   -1    0    0    0    0  0.00000000000E+00  0.00000000000E+00  0.45593999997E+02  0.45594000000E+02  0.51100000000E-03 0.  1.
         11   -1    0    0    0    0 -0.00000000000E+00 -0.00000000000E+00 -0.45593999997E+02  0.45594000000E+02  0.51100000000E-03 0. -1.
    9900012    2    1    2    0    0  0.26025025024E+02  0.16536621544E+02 -0.30542776774E+02  0.47787274284E+02  0.20000014771E+02 0.  0.
        -12    1    1    2    0    0 -0.26025025024E+02 -0.16536621544E+02  0.30542776774E+02  0.43400725716E+02  0.00000000000E+00 0.  1.
         11    1    3    3    0    0  0.21299696439E+02  0.10583550313E+02 -0.21635996430E+02  0.32152837315E+02  0.51100000000E-03 0. -1.
        -11    1    3    3    0    0 -0.15917688033E+01 -0.19140180245E+01 -0.31612119571E+01  0.40237363507E+01  0.51100000000E-03 0.  1.
         12    1    3    3    0    0  0.63170973884E+01  0.78670892551E+01 -0.57455683871E+01  0.11610700619E+02  0.00000000000E+00 0. -1.
</event>
<event>
 7    1  0.2642243E-009  0.4778727E+02  0.7816164E-02  0.1312668E+00
        -11   -1    0    0    0    0  0.00000000000E+00  0.00000000000E+00  0.45593999997E+02  0.45594000000E+02  0.51100000000E-03 0. -1.
         11   -1    0    0    0    0 -0.00000000000E+00 -0.00000000000E+00 -0.45593999997E+02  0.45594000000E+02  0.51100000000E-03 0.  1.
    9900012    2    1    2    0    0 -0.43169972680E+02  0.16086664395E+01  0.41699644144E+01  0.47787274751E+02  0.20000016900E+02 0.  0.
        -12    1    1    2    0    0  0.43169972680E+02 -0.16086664395E+01 -0.41699644144E+01  0.43400725249E+02  0.00000000000E+00 0.  1.
         11    1    3    3    0    0 -0.86321613098E+01 -0.73421919931E+01 -0.16872465820E+01  0.11457259421E+02  0.51100000000E-03 0. -1.
        -11    1    3    3    0    0 -0.24559710795E+02  0.80075001727E+01  0.42051415684E+01  0.26172173567E+02  0.51100000000E-03 0.  1.
         12    1    3    3    0    0 -0.99781005755E+01  0.94335825990E+00  0.16520694280E+01  0.10157841764E+02  0.00000000000E+00 0. -1.
</event>
<event>
 7    1  0.2642243E-009  0.4778727E+02  0.7816164E-02  0.1312668E+00
        -11   -1    0    0    0    0  0.00000000000E+00  0.00000000000E+00  0.45593999997E+02  0.45594000000E+02  0.51100000000E-03 0.  1.
         11   -1    0    0    0    0 -0.00000000000E+00 -0.00000000000E+00 -0.45593999997E+02  0.45594000000E+02  0.51100000000E-03 0. -1.
    9900012    2    1    2    0    0 -0.15636774837E+02  0.13674035030E+02 -0.38106894196E+02  0.47787270207E+02  0.19999996183E+02 0.  0.
        -12    1    1    2    0    0  0.15636774837E+02 -0.13674035030E+02  0.38106894196E+02  0.43400729793E+02  0.00000000000E+00 0.  1.
         11    1    3    3    0    0 -0.24672188783E+01  0.94605627162E+01 -0.19087995045E+02  0.21446234425E+02  0.51100000000E-03 0. -1.
        -11    1    3    3    0    0 -0.10337068526E+02 -0.27056403379E+01 -0.12252991505E+02  0.16257652857E+02  0.51100000000E-03 0.  1.
        -12    1    3    3    0    0 -0.28324874329E+01  0.69191126518E+01 -0.67659076454E+01  0.10083382925E+02  0.00000000000E+00 0.  1.
</event>
<event>
 7    1  0.2642243E-009  0.4778727E+02  0.7816164E-02  0.1312668E+00
        -11   -1    0    0    0    0  0.00000000000E+00  0.00000000000E+00  0.45593999997E+02  0.45594000000E+02  0.51100000000E-03 0.  1.
         11   -1    0    0    0    0 -0.00000000000E+00 -0.00000000000E+00 -0.45593999997E+02  0.45594000000E+02  0.51100000000E-03 0. -1.
    9900012    2    1    2    0    0 -0.24177170426E+02 -0.14292500822E+02 -0.33087942606E+02  0.47787273100E+02  0.20000009373E+02 0.  0.
        -12    1    1    2    0    0  0.24177170426E+02  0.14292500822E+02  0.33087942606E+02  0.43400726900E+02  0.00000000000E+00 0.  1.
         11    1    3    3    0    0 -0.15352894165E+02 -0.18046944491E+02 -0.24655342525E+02  0.34194875054E+02  0.51100000000E-03 0. -1.
        -11    1    3    3    0    0 -0.52591093197E+01  0.37686911808E+01 -0.75042216426E+01  0.99083099858E+01  0.51100000000E-03 0.  1.
         12    1    3    3    0    0 -0.35651669413E+01 -0.14247512021E-01 -0.92837843853E+00  0.36840880603E+01  0.00000000000E+00 0. -1.
</event>
<event>
 7    1  0.2642243E-009  0.4778727E+02  0.7816164E-02  0.1312668E+00
        -11   -1    0    0    0    0  0.00000000000E+00  0.00000000000E+00  0.45593999997E+02  0.45594000000E+02  0.51100000000E-03 0.  1.
         11   -1    0    0    0    0 -0.00000000000E+00 -0.00000000000E+00 -0.45593999997E+02  0.45594000000E+02  0.51100000000E-03 0. -1.
    9900012    2    1    2    0    0 -0.42304961305E+02 -0.74599152951E+01 -0.61857601874E+01  0.47787265948E+02  0.19999976761E+02 0.  0.
        -12    1    1    2    0    0  0.42304961305E+02  0.74599152951E+01  0.61857601874E+01  0.43400734052E+02  0.00000000000E+00 0.  1.
         11    1    3    3    0    0 -0.33556012707E+02 -0.89136602406E+01 -0.20530918119E+01  0.34780375414E+02  0.51100000000E-03 0. -1.
        -11    1    3    3    0    0 -0.14551733744E+01 -0.23584031671E+01  0.13854586332E+01  0.30982399735E+01  0.51100000000E-03 0.  1.
         12    1    3    3    0    0 -0.72937752233E+01  0.38121481126E+01 -0.55181270088E+01  0.99086505603E+01  0.00000000000E+00 0. -1.
</event>
<event>
 7    1  0.2642243E-009  0.4778727E+02  0.7816164E-02  0.1312668E+00
        -11   -1    0    0    0    0  0.00000000000E+00  0.00000000000E+00  0.45593999997E+02  0.45594000000E+02  0.51100000000E-03 0.  1.
         11   -1    0    0    0    0 -0.00000000000E+00 -0.00000000000E+00 -0.45593999997E+02  0.45594000000E+02  0.51100000000E-03 0. -1.
    9900012    2    1    2    0    0 -0.96713529047E+01  0.53442448463E+01 -0.41970551501E+02  0.47787271742E+02  0.20000003181E+02 0.  0.
        -12    1    1    2    0    0  0.96713529047E+01 -0.53442448463E+01  0.41970551501E+02  0.43400728258E+02  0.00000000000E+00 0.  1.
         11    1    3    3    0    0 -0.36338037717E+01  0.56003269371E+00 -0.20208849279E+02  0.20540588013E+02  0.51100000000E-03 0. -1.
        -11    1    3    3    0    0  0.23139247379E+01 -0.35475327765E+01 -0.34438809713E+01  0.54588966741E+01  0.51100000000E-03 0.  1.
        -12    1    3    3    0    0 -0.83514738708E+01  0.83317449291E+01 -0.18317821251E+02  0.21787787055E+02  0.00000000000E+00 0.  1.
</event>
<event>
 7    1  0.2642243E-009  0.4778727E+02  0.7816164E-02  0.1312668E+00
        -11   -1    0    0    0    0  0.00000000000E+00  0.00000000000E+00  0.45593999997E+02  0.45594000000E+02  0.51100000000E-03 0.  1.
         11   -1    0    0    0    0 -0.00000000000E+00 -0.00000000000E+00 -0.45593999997E+02  0.45594000000E+02  0.51100000000E-03 0. -1.
    9900012    2    1    2    0    0  0.30734876456E+02  0.30085263877E+02 -0.58195796653E+01  0.47787271426E+02  0.20000001738E+02 0.  0.
        -12    1    1    2    0    0 -0.30734876456E+02 -0.30085263877E+02  0.58195796653E+01  0.43400728574E+02  0.00000000000E+00 0.  1.
         11    1    3    3    0    0  0.10693986831E+02  0.16769638479E+01  0.31253064377E+01  0.11266814221E+02  0.51100000000E-03 0. -1.
        -11    1    3    3    0    0  0.10993353398E+02  0.19388629212E+02 -0.32157263047E+01  0.22519184212E+02  0.51100000000E-03 0.  1.
         12    1    3    3    0    0  0.90475362271E+01  0.90196708168E+01 -0.57291597983E+01  0.14001272993E+02  0.00000000000E+00 0. -1.
</event>
<event>
 7    1  0.2642243E-009  0.4778727E+02  0.7816164E-02  0.1312668E+00
        -11   -1    0    0    0    0  0.00000000000E+00  0.00000000000E+00  0.45593999997E+02  0.45594000000E+02  0.51100000000E-03 0.  1.
         11   -1    0    0    0    0 -0.00000000000E+00 -0.00000000000E+00 -0.45593999997E+02  0.45594000000E+02  0.51100000000E-03 0. -1.
    9900012    2    1    2    0    0  0.14236594248E+02 -0.14616108066E+02 -0.38305507550E+02  0.47787272593E+02  0.20000007060E+02 0.  0.
        -12    1    1    2    0    0 -0.14236594248E+02  0.14616108066E+02  0.38305507550E+02  0.43400727407E+02  0.00000000000E+00 0.  1.
         11    1    3    3    0    0  0.12732926380E+01 -0.11594317622E+02 -0.27155224891E+02  0.29554284197E+02  0.51100000000E-03 0. -1.
        -11    1    3    3    0    0  0.50508258612E+00 -0.16726778855E+01 -0.58572623526E+00  0.18428334735E+01  0.51100000000E-03 0.  1.
         12    1    3    3    0    0  0.12458219024E+02 -0.13491125587E+01 -0.10564556424E+02  0.16390154922E+02  0.00000000000E+00 0. -1.
</event>
<event>
 7    1  0.2642243E-009  0.4778728E+02  0.7816164E-02  0.1312668E+00
        -11   -1    0    0    0    0  0.00000000000E+00  0.00000000000E+00  0.45593999997E+02  0.45594000000E+02  0.51100000000E-03 0.  1.
         11   -1    0    0    0    0 -0.00000000000E+00 -0.00000000000E+00 -0.45593999997E+02  0.45594000000E+02  0.51100000000E-03 0. -1.
    9900012    2    1    2    0    0  0.65572335287E+01  0.21065326276E+01 -0.42850764333E+02  0.47787276560E+02  0.20000025146E+02 0.  0.
        -12    1    1    2    0    0 -0.65572335287E+01 -0.21065326276E+01  0.42850764333E+02  0.43400723440E+02  0.00000000000E+00 0.  1.
         11    1    3    3    0    0  0.51623724023E+01  0.71946362544E+00 -0.31706248520E+02  0.32131820867E+02  0.51100000000E-03 0. -1.
        -11    1    3    3    0    0 -0.43300993631E+01 -0.86068699236E+00 -0.25867553189E+01  0.51168199043E+01  0.51100000000E-03 0.  1.
        -12    1    3    3    0    0  0.57249604895E+01  0.22477559945E+01 -0.85577604933E+01  0.10538635788E+02  0.00000000000E+00 0.  1.
</event>
<event>
 7    1  0.2642243E-009  0.4778727E+02  0.7816164E-02  0.1312668E+00
        -11   -1    0    0    0    0  0.00000000000E+00  0.00000000000E+00  0.45593999997E+02  0.45594000000E+02  0.51100000000E-03 0.  1.
         11   -1    0    0    0    0 -0.00000000000E+00 -0.00000000000E+00 -0.45593999997E+02  0.45594000000E+02  0.51100000000E-03 0. -1.
    9900012    2    1    2    0    0 -0.14316232848E+02 -0.32039120105E+02 -0.25537493905E+02  0.47787270341E+02  0.19999996791E+02 0.  0.
        -12    1    1    2    0    0  0.14316232848E+02  0.32039120105E+02  0.25537493905E+02  0.43400729659E+02  0.00000000000E+00 0.  1.
         11    1    3    3    0    0 -0.80510108855E+01 -0.24186340869E+02 -0.10518170602E+02  0.27575891173E+02  0.51100000000E-03 0. -1.
        -11    1    3    3    0    0 -0.53075212411E+01  0.63728430043E-01 -0.41874520362E+01  0.67608134018E+01  0.51100000000E-03 0.  1.
         12    1    3    3    0    0 -0.95770072148E+00 -0.79165076660E+01 -0.10831871266E+02  0.13450565766E+02  0.00000000000E+00 0. -1.
</event>
<event>
 7    1  0.2642243E-009  0.4778727E+02  0.7816164E-02  0.1312668E+00
        -11   -1    0    0    0    0  0.00000000000E+00  0.00000000000E+00  0.45593999997E+02  0.45594000000E+02  0.51100000000E-03 0.  1.
         11   -1    0    0    0    0 -0.00000000000E+00 -0.00000000000E+00 -0.45593999997E+02  0.45594000000E+02  0.51100000000E-03 0. -1.
    9900012    2    1    2    0    0  0.37726153791E+02 -0.18294841432E+02  0.11209790835E+02  0.47787270589E+02  0.19999997924E+02 0.  0.
        -12    1    1    2    0    0 -0.37726153791E+02  0.18294841432E+02 -0.11209790835E+02  0.43400729411E+02  0.00000000000E+00 0.  1.
         11    1    3    3    0    0  0.17633361371E+02 -0.58251518611E+01 -0.20963192752E+01  0.18688562872E+02  0.51100000000E-03 0. -1.
        -11    1    3    3    0    0  0.88235520060E+01 -0.93789889313E+01  0.11519148754E+02  0.17277479320E+02  0.51100000000E-03 0.  1.
        -12    1    3    3    0    0  0.11269240414E+02 -0.30907006395E+01  0.17869613562E+01  0.11821228398E+02  0.00000000000E+00 0.  1.
</event>
<event>
 7    1  0.2642243E-009  0.4778727E+02  0.7816164E-02  0.1312668E+00
        -11   -1    0    0    0    0  0.00000000000E+00  0.00000000000E+00  0.45593999997E+02  0.45594000000E+02  0.51100000000E-03 0.  1.
         11   -1    0    0    0    0 -0.00000000000E+00 -0.00000000000E+00 -0.45593999997E+02  0.45594000000E+02  0.51100000000E-03 0. -1.
    9900012    2    1    2    0    0 -0.21374236342E+02 -0.37643538343E+02  0.31191828434E+01  0.47787271206E+02  0.20000000739E+02 0.  0.
        -12    1    1    2    0    0  0.21374236342E+02  0.37643538343E+02 -0.31191828434E+01  0.43400728794E+02  0.00000000000E+00 0.  1.
         11    1    3    3    0    0 -0.58590772194E+01 -0.19126565319E+02  0.39529544356E+01  0.20390687477E+02  0.51100000000E-03 0. -1.
        -11    1    3    3    0    0 -0.10645018986E+02 -0.13520247065E+02 -0.65137167525E+01  0.18399511300E+02  0.51100000000E-03 0.  1.
        -12    1    3    3    0    0 -0.48701401367E+01 -0.49967259599E+01  0.56799451603E+01  0.89970724290E+01  0.00000000000E+00 0.  1.
</event>
<event>
 7    1  0.2642243E-009  0.4778728E+02  0.7816164E-02  0.1312668E+00
        -11   -1    0    0    0    0  0.00000000000E+00  0.00000000000E+00  0.45593999997E+02  0.45594000000E+02  0.51100000000E-03 0. -1.
         11   -1    0    0    0    0 -0.00000000000E+00 -0.00000000000E+00 -0.45593999997E+02  0.45594000000E+02  0.51100000000E-03 0.  1.
    9900012    2    1    2    0    0  0.46266274540E+01  0.34335292474E+02  0.26140088097E+02  0.47787283455E+02  0.20000056586E+02 0.  0.
        -12    1    1    2    0    0 -0.46266274540E+01 -0.34335292474E+02 -0.26140088097E+02  0.43400716545E+02  0.00000000000E+00 0.  1.
         11    1    3    3    0    0  0.46668935831E+01  0.61110373748E+00  0.85003074850E+01  0.97164073141E+01  0.51100000000E-03 0. -1.
        -11    1    3    3    0    0 -0.46108908714E+00  0.18648914448E+02  0.99549285243E+01  0.21144626160E+02  0.51100000000E-03 0.  1.
         12    1    3    3    0    0  0.42082295802E+00  0.15075274288E+02  0.76848520881E+01  0.16926249982E+02  0.00000000000E+00 0. -1.
</event>
<event>
 7    1  0.2642243E-009  0.4778727E+02  0.7816164E-02  0.1312668E+00
        -11   -1    0    0    0    0  0.00000000000E+00  0.00000000000E+00  0.45593999997E+02  0.45594000000E+02  0.51100000000E-03 0.  1.
         11   -1    0    0    0    0 -0.00000000000E+00 -0.00000000000E+00 -0.45593999997E+02  0.45594000000E+02  0.51100000000E-03 0. -1.
    9900012    2    1    2    0    0 -0.24650058084E+02  0.18912760460E+02 -0.30303552242E+02  0.47787272469E+02  0.20000006495E+02 0.  0.
        -12    1    1    2    0    0  0.24650058084E+02 -0.18912760460E+02  0.30303552242E+02  0.43400727531E+02  0.00000000000E+00 0.  1.
         11    1    3    3    0    0 -0.20794607295E+02  0.12827181146E+02 -0.22703557104E+02  0.33352717643E+02  0.51100000000E-03 0. -1.
        -11    1    3    3    0    0 -0.66823568651E+00 -0.10424300514E+01  0.18187210436E+01  0.22002149532E+01  0.51100000000E-03 0.  1.
        -12    1    3    3    0    0 -0.31872151016E+01  0.71280093659E+01 -0.94187161810E+01  0.12234339873E+02  0.00000000000E+00 0.  1.
</event>
<event>
 7    1  0.1052051E-008  0.4778727E+02  0.7816164E-02  0.1312668E+00
        -11   -1    0    0    0    0  0.00000000000E+00  0.00000000000E+00  0.45593999997E+02  0.45594000000E+02  0.51100000000E-03 0.  1.
         11   -1    0    0    0    0 -0.00000000000E+00 -0.00000000000E+00 -0.45593999997E+02  0.45594000000E+02  0.51100000000E-03 0. -1.
    9900012    2    1    2    0    0 -0.23951642302E+02  0.28340985647E+02 -0.22510677161E+02  0.47787271634E+02  0.20000002690E+02 0.  0.
        -12    1    1    2    0    0  0.23951642302E+02 -0.28340985647E+02  0.22510677161E+02  0.43400728366E+02  0.00000000000E+00 0.  1.
         11    1    3    3    0    0 -0.19025761366E+02  0.14471569417E+02 -0.55765258368E+01  0.24545947886E+02  0.51100000000E-03 0. -1.
        -11    1    3    3    0    0 -0.35355495324E+01  0.85033127324E+01 -0.60258028283E+01  0.11005304989E+02  0.51100000000E-03 0.  1.
         12    1    3    3    0    0 -0.13903314033E+01  0.53661034979E+01 -0.10908348496E+02  0.12236018759E+02  0.00000000000E+00 0. -1.
</event>
<event>
 7    1  0.2642243E-009  0.4778728E+02  0.7816164E-02  0.1312668E+00
        -11   -1    0    0    0    0  0.00000000000E+00  0.00000000000E+00  0.45593999997E+02  0.45594000000E+02  0.51100000000E-03 0.  1.
         11   -1    0    0    0    0 -0.00000000000E+00 -0.00000000000E+00 -0.45593999997E+02  0.45594000000E+02  0.51100000000E-03 0. -1.
    9900012    2    1    2    0    0  0.34983712704E+02  0.75128729570E+01 -0.24562560931E+02  0.47787276341E+02  0.20000024151E+02 0.  0.
        -12    1    1    2    0    0 -0.34983712704E+02 -0.75128729570E+01  0.24562560931E+02  0.43400723659E+02  0.00000000000E+00 0.  1.
         11    1    3    3    0    0  0.23951573448E+01 -0.17911297974E+00 -0.39071194632E+01  0.45863321867E+01  0.51100000000E-03 0. -1.
        -11    1    3    3    0    0  0.26838729270E+02  0.54544701534E+01 -0.23793014381E+02  0.36279142314E+02  0.51100000000E-03 0.  1.
        -12    1    3    3    0    0  0.57498260892E+01  0.22375157834E+01  0.31375729129E+01  0.69218018406E+01  0.00000000000E+00 0.  1.
</event>
<event>
 7    1  0.2642243E-009  0.4778727E+02  0.7816164E-02  0.1312668E+00
        -11   -1    0    0    0    0  0.00000000000E+00  0.00000000000E+00  0.45593999997E+02  0.45594000000E+02  0.51100000000E-03 0. -1.
         11   -1    0    0    0    0 -0.00000000000E+00 -0.00000000000E+00 -0.45593999997E+02  0.45594000000E+02  0.51100000000E-03 0.  1.
    9900012    2    1    2    0    0  0.24134079022E+02 -0.16171718135E+02  0.32243525010E+02  0.47787272555E+02  0.20000006887E+02 0.  0.
        -12    1    1    2    0    0 -0.24134079022E+02  0.16171718135E+02 -0.32243525010E+02  0.43400727445E+02  0.00000000000E+00 0.  1.
         11    1    3    3    0    0  0.26988912983E+01 -0.36263194959E+01  0.50893229282E+01  0.68070122267E+01  0.51100000000E-03 0. -1.
        -11    1    3    3    0    0  0.12872572044E+02 -0.14333113578E+02  0.25690469948E+02  0.32111392095E+02  0.51100000000E-03 0.  1.
        -12    1    3    3    0    0  0.85626156800E+01  0.17877149380E+01  0.14637321335E+01  0.88688682334E+01  0.00000000000E+00 0.  1.
</event>
<event>
 7    1  0.2642243E-009  0.4778727E+02  0.7816164E-02  0.1312668E+00
        -11   -1    0    0    0    0  0.00000000000E+00  0.00000000000E+00  0.45593999997E+02  0.45594000000E+02  0.51100000000E-03 0.  1.
         11   -1    0    0    0    0 -0.00000000000E+00 -0.00000000000E+00 -0.45593999997E+02  0.45594000000E+02  0.51100000000E-03 0. -1.
    9900012    2    1    2    0    0  0.22197538416E+02 -0.28467416510E+02 -0.24093537516E+02  0.47787273456E+02  0.20000010997E+02 0.  0.
        -12    1    1    2    0    0 -0.22197538416E+02  0.28467416510E+02  0.24093537516E+02  0.43400726544E+02  0.00000000000E+00 0.  1.
         11    1    3    3    0    0  0.10881018484E+02 -0.13982244079E+02 -0.22562538760E+02  0.28687416550E+02  0.51100000000E-03 0. -1.
        -11    1    3    3    0    0  0.64766762846E+01 -0.67063374580E+01  0.15143561863E+01  0.94453995530E+01  0.51100000000E-03 0.  1.
         12    1    3    3    0    0  0.48398436469E+01 -0.77788349728E+01 -0.30453549419E+01  0.96544573531E+01  0.00000000000E+00 0. -1.
</event>
<event>
 7    1  0.2642243E-009  0.4778725E+02  0.7816164E-02  0.1312668E+00
        -11   -1    0    0    0    0  0.00000000000E+00  0.00000000000E+00  0.45593999997E+02  0.45594000000E+02  0.51100000000E-03 0.  1.
         11   -1    0    0    0    0 -0.00000000000E+00 -0.00000000000E+00 -0.45593999997E+02  0.45594000000E+02  0.51100000000E-03 0. -1.
    9900012    2    1    2    0    0  0.38162808474E+02 -0.34615310487E+01 -0.20377509218E+02  0.47787250816E+02  0.19999907770E+02 0.  0.
        -12    1    1    2    0    0 -0.38162808474E+02  0.34615310487E+01  0.20377509218E+02  0.43400749184E+02  0.00000000000E+00 0.  1.
         11    1    3    3    0    0  0.21990379901E+02  0.74163684508E+01 -0.14167446506E+02  0.27189995770E+02  0.51100000000E-03 0. -1.
        -11    1    3    3    0    0  0.10793903716E+02 -0.83201642713E+01 -0.50216164787E+01  0.14524122116E+02  0.51100000000E-03 0.  1.
         12    1    3    3    0    0  0.53785248571E+01 -0.25577352282E+01 -0.11884462327E+01  0.60731329299E+01  0.00000000000E+00 0. -1.
</event>
<event>
 7    1  0.2642243E-009  0.4778727E+02  0.7816164E-02  0.1312668E+00
        -11   -1    0    0    0    0  0.00000000000E+00  0.00000000000E+00  0.45593999997E+02  0.45594000000E+02  0.51100000000E-03 0.  1.
         11   -1    0    0    0    0 -0.00000000000E+00 -0.00000000000E+00 -0.45593999997E+02  0.45594000000E+02  0.51100000000E-03 0. -1.
    9900012    2    1    2    0    0 -0.22951255139E+01  0.42494964693E+02  0.85166505767E+01  0.47787274632E+02  0.20000016359E+02 0.  0.
        -12    1    1    2    0    0  0.22951255139E+01 -0.42494964693E+02 -0.85166505767E+01  0.43400725368E+02  0.00000000000E+00 0.  1.
         11    1    3    3    0    0 -0.73407364205E+01  0.36896704334E+02  0.32724932039E+01  0.37761917509E+02  0.51100000000E-03 0. -1.
        -11    1    3    3    0    0  0.46137429013E+01  0.25824168097E+01  0.22256866916E+01  0.57366524776E+01  0.51100000000E-03 0.  1.
         12    1    3    3    0    0  0.43186800530E+00  0.30158435495E+01  0.30184706812E+01  0.42887046462E+01  0.00000000000E+00 0. -1.
</event>
<event>
 7    1  0.2642243E-009  0.4778727E+02  0.7816164E-02  0.1312668E+00
        -11   -1    0    0    0    0  0.00000000000E+00  0.00000000000E+00  0.45593999997E+02  0.45594000000E+02  0.51100000000E-03 0. -1.
         11   -1    0    0    0    0 -0.00000000000E+00 -0.00000000000E+00 -0.45593999997E+02  0.45594000000E+02  0.51100000000E-03 0.  1.
    9900012    2    1    2    0    0 -0.39579297602E+02  0.16784412272E+02  0.59485992154E+01  0.47787272741E+02  0.20000007733E+02 0.  0.
        -12    1    1    2    0    0  0.39579297602E+02 -0.16784412272E+02 -0.59485992154E+01  0.43400727259E+02  0.00000000000E+00 0.  1.
         11    1    3    3    0    0 -0.15944868425E+02  0.14273855359E+02  0.88954317455E+01  0.23175644157E+02  0.51100000000E-03 0. -1.
        -11    1    3    3    0    0 -0.10679652333E+02 -0.16257581745E+01 -0.19381684778E+01  0.10975179311E+02  0.51100000000E-03 0.  1.
         12    1    3    3    0    0 -0.12954776845E+02  0.41363150882E+01 -0.10086640524E+01  0.13636449273E+02  0.00000000000E+00 0. -1.
</event>
<event>
 7    1  0.2642243E-009  0.4778727E+02  0.7816164E-02  0.1312668E+00
        -11   -1    0    0    0    0  0.00000000000E+00  0.00000000000E+00  0.45593999997E+02  0.45594000000E+02  0.51100000000E-03 0. -1.
         11   -1    0    0    0    0 -0.00000000000E+00 -0.00000000000E+00 -0.45593999997E+02  0.45594000000E+02  0.51100000000E-03 0.  1.
    9900012    2    1    2    0    0  0.13667864681E+02  0.38648174665E+02 -0.14252409206E+02  0.47787273070E+02  0.20000009235E+02 0.  0.
        -12    1    1    2    0    0 -0.13667864681E+02 -0.38648174665E+02  0.14252409206E+02  0.43400726930E+02  0.00000000000E+00 0.  1.
         11    1    3    3    0    0  0.57388315541E+01  0.16899607091E+02 -0.15495352664E+02  0.23635500035E+02  0.51100000000E-03 0.  1.
        -11    1    3    3    0    0  0.22245674568E+01  0.12361706518E+02  0.32770867732E+01  0.12980746758E+02  0.51100000000E-03 0. -1.
        -12    1    3    3    0    0  0.57044656705E+01  0.93868610558E+01 -0.20341433150E+01  0.11171026278E+02  0.00000000000E+00 0.  1.
</event>
<event>
 7    1  0.2642243E-009  0.4778727E+02  0.7816164E-02  0.1312668E+00
        -11   -1    0    0    0    0  0.00000000000E+00  0.00000000000E+00  0.45593999997E+02  0.45594000000E+02  0.51100000000E-03 0.  1.
         11   -1    0    0    0    0 -0.00000000000E+00 -0.00000000000E+00 -0.45593999997E+02  0.45594000000E+02  0.51100000000E-03 0. -1.
    9900012    2    1    2    0    0  0.39911973885E+02 -0.16846730480E+02  0.26163169911E+01  0.47787273026E+02  0.20000009035E+02 0.  0.
        -12    1    1    2    0    0 -0.39911973885E+02  0.16846730480E+02 -0.26163169911E+01  0.43400726974E+02  0.00000000000E+00 0.  1.
         11    1    3    3    0    0  0.29357837295E+02 -0.95554912570E+01  0.16845217333E+00  0.30874235216E+02  0.51100000000E-03 0. -1.
        -11    1    3    3    0    0  0.74112223163E+01 -0.85852410417E+01  0.52596505058E+01  0.12501860008E+02  0.51100000000E-03 0.  1.
         12    1    3    3    0    0  0.31429142739E+01  0.12940018188E+01 -0.28117856881E+01  0.44111778014E+01  0.00000000000E+00 0. -1.
</event>
<event>
 7    1  0.2642243E-009  0.4778727E+02  0.7816164E-02  0.1312668E+00
        -11   -1    0    0    0    0  0.00000000000E+00  0.00000000000E+00  0.45593999997E+02  0.45594000000E+02  0.51100000000E-03 0.  1.
         11   -1    0    0    0    0 -0.00000000000E+00 -0.00000000000E+00 -0.45593999997E+02  0.45594000000E+02  0.51100000000E-03 0. -1.
    9900012    2    1    2    0    0 -0.26261100878E+02 -0.10774407725E+02 -0.32831231958E+02  0.47787273359E+02  0.20000010552E+02 0.  0.
        -12    1    1    2    0    0  0.26261100878E+02  0.10774407725E+02  0.32831231958E+02  0.43400726641E+02  0.00000000000E+00 0.  1.
         11    1    3    3    0    0 -0.18582436226E+02 -0.11822281385E+02 -0.30060756291E+02  0.37265565100E+02  0.51100000000E-03 0. -1.
        -11    1    3    3    0    0 -0.69015578739E+01  0.26212842003E+00  0.64050531491E+00  0.69361703925E+01  0.51100000000E-03 0.  1.
        -12    1    3    3    0    0 -0.77710677818E+00  0.78574524028E+00 -0.34109809820E+01  0.35855378658E+01  0.00000000000E+00 0.  1.
</event>
<event>
 7    1  0.2642243E-009  0.4778728E+02  0.7816164E-02  0.1312668E+00
        -11   -1    0    0    0    0  0.00000000000E+00  0.00000000000E+00  0.45593999997E+02  0.45594000000E+02  0.51100000000E-03 0.  1.
         11   -1    0    0    0    0 -0.00000000000E+00 -0.00000000000E+00 -0.45593999997E+02  0.45594000000E+02  0.51100000000E-03 0. -1.
    9900012    2    1    2    0    0  0.21448645211E+02  0.65824682365E+01 -0.37151706910E+02  0.47787278857E+02  0.20000035619E+02 0.  0.
        -12    1    1    2    0    0 -0.21448645211E+02 -0.65824682365E+01  0.37151706910E+02  0.43400721143E+02  0.00000000000E+00 0.  1.
         11    1    3    3    0    0  0.15602369710E+02  0.10363486726E+02 -0.34444067891E+02  0.39207519825E+02  0.51100000000E-03 0. -1.
        -11    1    3    3    0    0  0.53943612068E+01 -0.12772003171E+01 -0.23059075915E+01  0.60039639873E+01  0.51100000000E-03 0.  1.
         12    1    3    3    0    0  0.45191429446E+00 -0.25038181725E+01 -0.40173142680E+00  0.25757950442E+01  0.00000000000E+00 0. -1.
</event>
<event>
 7    1  0.2642243E-009  0.4778727E+02  0.7816164E-02  0.1312668E+00
        -11   -1    0    0    0    0  0.00000000000E+00  0.00000000000E+00  0.45593999997E+02  0.45594000000E+02  0.51100000000E-03 0.  1.
         11   -1    0    0    0    0 -0.00000000000E+00 -0.00000000000E+00 -0.45593999997E+02  0.45594000000E+02  0.51100000000E-03 0. -1.
    9900012    2    1    2    0    0  0.21258685068E+02 -0.88717044131E+00 -0.37827295539E+02  0.47787273624E+02  0.20000011761E+02 0.  0.
        -12    1    1    2    0    0 -0.21258685068E+02  0.88717044131E+00  0.37827295539E+02  0.43400726376E+02  0.00000000000E+00 0.  1.
         11    1    3    3    0    0  0.89240380164E+01  0.27517738509E-01 -0.29098365285E+02  0.30436065354E+02  0.51100000000E-03 0. -1.
        -11    1    3    3    0    0  0.70824287017E+01  0.34367333751E+01 -0.29338822786E+01  0.84011664721E+01  0.51100000000E-03 0.  1.
         12    1    3    3    0    0  0.52522183496E+01 -0.43514215549E+01 -0.57950479752E+01  0.89500417974E+01  0.00000000000E+00 0. -1.
</event>
<event>
 7    1  0.2642243E-009  0.4778727E+02  0.7816164E-02  0.1312668E+00
        -11   -1    0    0    0    0  0.00000000000E+00  0.00000000000E+00  0.45593999997E+02  0.45594000000E+02  0.51100000000E-03 0.  1.
         11   -1    0    0    0    0 -0.00000000000E+00 -0.00000000000E+00 -0.45593999997E+02  0.45594000000E+02  0.51100000000E-03 0. -1.
    9900012    2    1    2    0    0 -0.34887069551E+02  0.39336931751E+01  0.25515519007E+02  0.47787271042E+02  0.19999999990E+02 0.  0.
        -12    1    1    2    0    0  0.34887069551E+02 -0.39336931751E+01 -0.25515519007E+02  0.43400728958E+02  0.00000000000E+00 0.  1.
         11    1    3    3    0    0 -0.52128839896E+01 -0.48048803302E+00 -0.20377922652E+01  0.56176174501E+01  0.51100000000E-03 0. -1.
        -11    1    3    3    0    0 -0.12755664551E+02  0.72144956524E+01  0.14525258294E+02  0.20633445045E+02  0.51100000000E-03 0.  1.
        -12    1    3    3    0    0 -0.16918521011E+02 -0.28003144443E+01  0.13028052978E+02  0.21536208547E+02  0.00000000000E+00 0.  1.
</event>
<event>
 7    1  0.2642243E-009  0.4778726E+02  0.7816164E-02  0.1312668E+00
        -11   -1    0    0    0    0  0.00000000000E+00  0.00000000000E+00  0.45593999997E+02  0.45594000000E+02  0.51100000000E-03 0. -1.
         11   -1    0    0    0    0 -0.00000000000E+00 -0.00000000000E+00 -0.45593999997E+02  0.45594000000E+02  0.51100000000E-03 0.  1.
    9900012    2    1    2    0    0 -0.34588565475E+02 -0.25001851657E+02 -0.78843506816E+01  0.47787257684E+02  0.19999939085E+02 0.  0.
        -12    1    1    2    0    0  0.34588565475E+02  0.25001851657E+02  0.78843506816E+01  0.43400742316E+02  0.00000000000E+00 0.  1.
         11    1    3    3    0    0 -0.60278446268E+01 -0.95829988990E+01 -0.46249764837E+01  0.12229439336E+02  0.51100000000E-03 0.  1.
        -11    1    3    3    0    0 -0.24566265472E+02 -0.77616308098E+01 -0.60827182157E+01  0.26471565371E+02  0.51100000000E-03 0. -1.
        -12    1    3    3    0    0 -0.39944553769E+01 -0.76572219478E+01  0.28233440179E+01  0.90862529768E+01  0.00000000000E+00 0.  1.
</event>
<event>
 7    1  0.2642243E-009  0.4778727E+02  0.7816164E-02  0.1312668E+00
        -11   -1    0    0    0    0  0.00000000000E+00  0.00000000000E+00  0.45593999997E+02  0.45594000000E+02  0.51100000000E-03 0.  1.
         11   -1    0    0    0    0 -0.00000000000E+00 -0.00000000000E+00 -0.45593999997E+02  0.45594000000E+02  0.51100000000E-03 0. -1.
    9900012    2    1    2    0    0 -0.25109843136E+02  0.17066044708E+02 -0.31014019999E+02  0.47787267969E+02  0.19999985979E+02 0.  0.
        -12    1    1    2    0    0  0.25109843136E+02 -0.17066044708E+02  0.31014019999E+02  0.43400732031E+02  0.00000000000E+00 0.  1.
         11    1    3    3    0    0 -0.23120018492E+02  0.13087589381E+02 -0.32536388829E+02  0.42005200263E+02  0.51100000000E-03 0. -1.
        -11    1    3    3    0    0 -0.18028005811E+01  0.50389164979E+00  0.13316812851E+01  0.22972531502E+01  0.51100000000E-03 0.  1.
         12    1    3    3    0    0 -0.18702406296E+00  0.34745636779E+01  0.19068754442E+00  0.34848145563E+01  0.00000000000E+00 0. -1.
</event>
<event>
 7    1  0.2642243E-009  0.4778727E+02  0.7816164E-02  0.1312668E+00
        -11   -1    0    0    0    0  0.00000000000E+00  0.00000000000E+00  0.45593999997E+02  0.45594000000E+02  0.51100000000E-03 0.  1.
         11   -1    0    0    0    0 -0.00000000000E+00 -0.00000000000E+00 -0.45593999997E+02  0.45594000000E+02  0.51100000000E-03 0. -1.
    9900012    2    1    2    0    0  0.19723197625E+02  0.19689399246E+02 -0.33270800110E+02  0.47787272964E+02  0.20000008754E+02 0.  0.
        -12    1    1    2    0    0 -0.19723197625E+02 -0.19689399246E+02  0.33270800110E+02  0.43400727036E+02  0.00000000000E+00 0.  1.
         11    1    3    3    0    0  0.91720548180E+01  0.17534363591E+02 -0.24308181389E+02  0.31344348435E+02  0.51100000000E-03 0. -1.
        -11    1    3    3    0    0  0.22329984076E+01 -0.14295117423E+00  0.16385436049E+01  0.27733630006E+01  0.51100000000E-03 0.  1.
        -12    1    3    3    0    0  0.83181443997E+01  0.22979868293E+01 -0.10601162326E+02  0.13669561529E+02  0.00000000000E+00 0.  1.
</event>
<event>
 7    1  0.2642243E-009  0.4778727E+02  0.7816164E-02  0.1312668E+00
        -11   -1    0    0    0    0  0.00000000000E+00  0.00000000000E+00  0.45593999997E+02  0.45594000000E+02  0.51100000000E-03 0.  1.
         11   -1    0    0    0    0 -0.00000000000E+00 -0.00000000000E+00 -0.45593999997E+02  0.45594000000E+02  0.51100000000E-03 0. -1.
    9900012    2    1    2    0    0  0.10989001477E+02 -0.29798867465E+02 -0.29578586074E+02  0.47787269478E+02  0.19999992859E+02 0.  0.
        -12    1    1    2    0    0 -0.10989001477E+02  0.29798867465E+02  0.29578586074E+02  0.43400730522E+02  0.00000000000E+00 0.  1.
         11    1    3    3    0    0  0.17493638877E+01  0.11506209221E+01  0.10168078994E+01  0.23276814824E+01  0.51100000000E-03 0. -1.
        -11    1    3    3    0    0  0.41702472693E+01 -0.30541234731E+01 -0.35028818142E+01  0.62441023167E+01  0.51100000000E-03 0.  1.
         12    1    3    3    0    0  0.50693903199E+01 -0.27895364914E+02 -0.27092512160E+02  0.39215485679E+02  0.00000000000E+00 0. -1.
</event>
<event>
 7    1  0.2642243E-009  0.4778726E+02  0.7816164E-02  0.1312668E+00
        -11   -1    0    0    0    0  0.00000000000E+00  0.00000000000E+00  0.45593999997E+02  0.45594000000E+02  0.51100000000E-03 0.  1.
         11   -1    0    0    0    0 -0.00000000000E+00 -0.00000000000E+00 -0.45593999997E+02  0.45594000000E+02  0.51100000000E-03 0. -1.
    9900012    2    1    2    0    0 -0.10291474064E+02  0.12314758854E+02 -0.40324390873E+02  0.47787260106E+02  0.19999950128E+02 0.  0.
        -12    1    1    2    0    0  0.10291474064E+02 -0.12314758854E+02  0.40324390873E+02  0.43400739894E+02  0.00000000000E+00 0.  1.
         11    1    3    3    0    0 -0.81137870223E+01  0.10375253874E+02 -0.28908163169E+02  0.31767299709E+02  0.51100000000E-03 0. -1.
        -11    1    3    3    0    0 -0.27886032878E+01 -0.42148744916E+01 -0.51856920145E+01  0.72410549789E+01  0.51100000000E-03 0.  1.
        -12    1    3    3    0    0  0.61091624663E+00  0.61543794724E+01 -0.62305356901E+01  0.87789054179E+01  0.00000000000E+00 0.  1.
</event>
<event>
 7    1  0.2642243E-009  0.4778727E+02  0.7816164E-02  0.1312668E+00
        -11   -1    0    0    0    0  0.00000000000E+00  0.00000000000E+00  0.45593999997E+02  0.45594000000E+02  0.51100000000E-03 0.  1.
         11   -1    0    0    0    0 -0.00000000000E+00 -0.00000000000E+00 -0.45593999997E+02  0.45594000000E+02  0.51100000000E-03 0. -1.
    9900012    2    1    2    0    0 -0.25328690550E+02 -0.19544451454E+02 -0.29327379064E+02  0.47787270624E+02  0.19999998084E+02 0.  0.
        -12    1    1    2    0    0  0.25328690550E+02  0.19544451454E+02  0.29327379064E+02  0.43400729376E+02  0.00000000000E+00 0.  1.
         11    1    3    3    0    0 -0.59557597158E+01 -0.32464317858E+01  0.13226339290E+01  0.69108432122E+01  0.51100000000E-03 0.  1.
        -11    1    3    3    0    0 -0.19899393296E+02 -0.14844128154E+02 -0.25881324398E+02  0.35863309204E+02  0.51100000000E-03 0. -1.
        -12    1    3    3    0    0  0.52646246147E+00 -0.14538915136E+01 -0.47686885943E+01  0.50131182079E+01  0.00000000000E+00 0.  1.
</event>
<event>
 7    1  0.2642243E-009  0.4778727E+02  0.7816164E-02  0.1312668E+00
        -11   -1    0    0    0    0  0.00000000000E+00  0.00000000000E+00  0.45593999997E+02  0.45594000000E+02  0.51100000000E-03 0. -1.
         11   -1    0    0    0    0 -0.00000000000E+00 -0.00000000000E+00 -0.45593999997E+02  0.45594000000E+02  0.51100000000E-03 0.  1.
    9900012    2    1    2    0    0 -0.40255683920E+02 -0.15686187389E+02  0.41287677474E+01  0.47787270907E+02  0.19999999374E+02 0.  0.
        -12    1    1    2    0    0  0.40255683920E+02  0.15686187389E+02 -0.41287677474E+01  0.43400729093E+02  0.00000000000E+00 0.  1.
         11    1    3    3    0    0 -0.10429258873E+02 -0.11076881170E+02 -0.38519209675E+01  0.15694076351E+02  0.51100000000E-03 0. -1.
        -11    1    3    3    0    0 -0.10290588386E+02  0.10620691705E+01  0.51452709266E+01  0.11554134040E+02  0.51100000000E-03 0.  1.
         12    1    3    3    0    0 -0.19535836660E+02 -0.56713753893E+01  0.28354177883E+01  0.20539060516E+02  0.00000000000E+00 0. -1.
</event>
<event>
 7    1  0.2642243E-009  0.4778727E+02  0.7816164E-02  0.1312668E+00
        -11   -1    0    0    0    0  0.00000000000E+00  0.00000000000E+00  0.45593999997E+02  0.45594000000E+02  0.51100000000E-03 0.  1.
         11   -1    0    0    0    0 -0.00000000000E+00 -0.00000000000E+00 -0.45593999997E+02  0.45594000000E+02  0.51100000000E-03 0. -1.
    9900012    2    1    2    0    0 -0.10404569127E+02  0.31318902650E+02 -0.28186778807E+02  0.47787271648E+02  0.20000002754E+02 0.  0.
        -12    1    1    2    0    0  0.10404569127E+02 -0.31318902650E+02  0.28186778807E+02  0.43400728352E+02  0.00000000000E+00 0.  1.
         11    1    3    3    0    0 -0.15557282113E+00  0.12224656559E+02 -0.21587861770E+02  0.24809316938E+02  0.51100000000E-03 0. -1.
        -11    1    3    3    0    0 -0.77485615290E+01  0.11653737455E+02 -0.28615059762E+01  0.14284187732E+02  0.51100000000E-03 0.  1.
         12    1    3    3    0    0 -0.25004347774E+01  0.74405086360E+01 -0.37374110611E+01  0.86937669786E+01  0.00000000000E+00 0. -1.
</event>
<event>
 7    1  0.2642243E-009  0.4778727E+02  0.7816164E-02  0.1312668E+00
        -11   -1    0    0    0    0  0.00000000000E+00  0.00000000000E+00  0.45593999997E+02  0.45594000000E+02  0.51100000000E-03 0. -1.
         11   -1    0    0    0    0 -0.00000000000E+00 -0.00000000000E+00 -0.45593999997E+02  0.45594000000E+02  0.51100000000E-03 0.  1.
    9900012    2    1    2    0    0 -0.21048193152E+02 -0.17118096963E+02  0.33875764540E+02  0.47787273027E+02  0.20000009041E+02 0.  0.
        -12    1    1    2    0    0  0.21048193152E+02  0.17118096963E+02 -0.33875764540E+02  0.43400726973E+02  0.00000000000E+00 0.  1.
         11    1    3    3    0    0  0.32146154038E+01 -0.42557281114E+01  0.55605542252E+01  0.77048515563E+01  0.51100000000E-03 0. -1.
        -11    1    3    3    0    0 -0.13701224902E+02 -0.87779033011E+01  0.11981073990E+02  0.20206961285E+02  0.51100000000E-03 0.  1.
         12    1    3    3    0    0 -0.10561583653E+02 -0.40844655505E+01  0.16334136325E+02  0.19875460186E+02  0.00000000000E+00 0. -1.
</event>
<event>
 7    1  0.2642243E-009  0.4778727E+02  0.7816164E-02  0.1312668E+00
        -11   -1    0    0    0    0  0.00000000000E+00  0.00000000000E+00  0.45593999997E+02  0.45594000000E+02  0.51100000000E-03 0.  1.
         11   -1    0    0    0    0 -0.00000000000E+00 -0.00000000000E+00 -0.45593999997E+02  0.45594000000E+02  0.51100000000E-03 0. -1.
    9900012    2    1    2    0    0  0.50976297689E+01 -0.18804140257E+02 -0.38781975200E+02  0.47787272811E+02  0.20000008055E+02 0.  0.
        -12    1    1    2    0    0 -0.50976297689E+01  0.18804140257E+02  0.38781975200E+02  0.43400727189E+02  0.00000000000E+00 0.  1.
         11    1    3    3    0    0 -0.22341765375E+01 -0.76134949654E+01 -0.88074887937E+01  0.11854480566E+02  0.51100000000E-03 0. -1.
        -11    1    3    3    0    0  0.61492200033E+01  0.18678903041E+01 -0.12824704453E+02  0.14344858501E+02  0.51100000000E-03 0.  1.
        -12    1    3    3    0    0  0.11825863030E+01 -0.13058535596E+02 -0.17149781954E+02  0.21587933744E+02  0.00000000000E+00 0.  1.
</event>
<event>
 7    1  0.2642243E-009  0.4778728E+02  0.7816164E-02  0.1312668E+00
        -11   -1    0    0    0    0  0.00000000000E+00  0.00000000000E+00  0.45593999997E+02  0.45594000000E+02  0.51100000000E-03 0.  1.
         11   -1    0    0    0    0 -0.00000000000E+00 -0.00000000000E+00 -0.45593999997E+02  0.45594000000E+02  0.51100000000E-03 0. -1.
    9900012    2    1    2    0    0  0.10764879976E+02 -0.21223431335E+02 -0.36294706768E+02  0.47787280905E+02  0.20000044959E+02 0.  0.
        -12    1    1    2    0    0 -0.10764879976E+02  0.21223431335E+02  0.36294706768E+02  0.43400719095E+02  0.00000000000E+00 0.  1.
         11    1    3    3    0    0  0.52888962750E+01 -0.73541810658E+01 -0.25784718544E+02  0.27329619712E+02  0.51100000000E-03 0. -1.
        -11    1    3    3    0    0  0.69840293069E+01 -0.51763093226E+01 -0.45651401398E+01  0.98189280637E+01  0.51100000000E-03 0.  1.
         12    1    3    3    0    0 -0.15080456059E+01 -0.86929409467E+01 -0.59448480852E+01  0.10638733130E+02  0.00000000000E+00 0. -1.
</event>
<event>
 7    1  0.2642243E-009  0.4778726E+02  0.7816164E-02  0.1312668E+00
        -11   -1    0    0    0    0  0.00000000000E+00  0.00000000000E+00  0.45593999997E+02  0.45594000000E+02  0.51100000000E-03 0.  1.
         11   -1    0    0    0    0 -0.00000000000E+00 -0.00000000000E+00 -0.45593999997E+02  0.45594000000E+02  0.51100000000E-03 0. -1.
    9900012    2    1    2    0    0 -0.45753176378E+01 -0.17517908838E+02 -0.39443800822E+02  0.47787261701E+02  0.19999957401E+02 0.  0.
        -12    1    1    2    0    0  0.45753176378E+01  0.17517908838E+02  0.39443800822E+02  0.43400738299E+02  0.00000000000E+00 0.  1.
         11    1    3    3    0    0  0.39298902956E+01  0.25145032273E+01 -0.69874073843E+01  0.84018228041E+01  0.51100000000E-03 0. -1.
        -11    1    3    3    0    0 -0.73562699905E+01 -0.11422058453E+02 -0.20916647605E+02  0.24941617324E+02  0.51100000000E-03 0.  1.
         12    1    3    3    0    0 -0.11489379428E+01 -0.86103536129E+01 -0.11539745833E+02  0.14443821573E+02  0.00000000000E+00 0. -1.
</event>
<event>
 7    1  0.2642243E-009  0.4778727E+02  0.7816164E-02  0.1312668E+00
        -11   -1    0    0    0    0  0.00000000000E+00  0.00000000000E+00  0.45593999997E+02  0.45594000000E+02  0.51100000000E-03 0. -1.
         11   -1    0    0    0    0 -0.00000000000E+00 -0.00000000000E+00 -0.45593999997E+02  0.45594000000E+02  0.51100000000E-03 0.  1.
    9900012    2    1    2    0    0  0.15807514933E+02  0.94436039178E+01  0.39300942074E+02  0.47787271536E+02  0.20000002239E+02 0.  0.
        -12    1    1    2    0    0 -0.15807514933E+02 -0.94436039178E+01 -0.39300942074E+02  0.43400728464E+02  0.00000000000E+00 0.  1.
         11    1    3    3    0    0  0.14545961329E+02  0.33343494026E+01  0.22373469186E+02  0.26893772525E+02  0.51100000000E-03 0. -1.
        -11    1    3    3    0    0 -0.29360514722E+01 -0.41168317953E+00  0.91645589492E+00  0.31031875477E+01  0.51100000000E-03 0.  1.
         12    1    3    3    0    0  0.41976050763E+01  0.65209376947E+01  0.16011016994E+02  0.17790311463E+02  0.00000000000E+00 0. -1.
</event>
<event>
 7    1  0.2642243E-009  0.4778727E+02  0.7816164E-02  0.1312668E+00
        -11   -1    0    0    0    0  0.00000000000E+00  0.00000000000E+00  0.45593999997E+02  0.45594000000E+02  0.51100000000E-03 0.  1.
         11   -1    0    0    0    0 -0.00000000000E+00 -0.00000000000E+00 -0.45593999997E+02  0.45594000000E+02  0.51100000000E-03 0. -1.
    9900012    2    1    2    0    0  0.22460484571E+02  0.66285772828E+01 -0.36540547631E+02  0.47787273910E+02  0.20000013065E+02 0.  0.
        -12    1    1    2    0    0 -0.22460484571E+02 -0.66285772828E+01  0.36540547631E+02  0.43400726090E+02  0.00000000000E+00 0.  1.
         11    1    3    3    0    0  0.22514916731E+01 -0.29749518504E+01 -0.12341710489E+02  0.12893307229E+02  0.51100000000E-03 0. -1.
        -11    1    3    3    0    0  0.12013752656E+02  0.10377913159E+02 -0.10912782551E+02  0.19264479170E+02  0.51100000000E-03 0.  1.
         12    1    3    3    0    0  0.81952402419E+01 -0.77438402576E+00 -0.13286054591E+02  0.15629487510E+02  0.00000000000E+00 0. -1.
</event>
<event>
 7    1  0.2642243E-009  0.4778727E+02  0.7816164E-02  0.1312668E+00
        -11   -1    0    0    0    0  0.00000000000E+00  0.00000000000E+00  0.45593999997E+02  0.45594000000E+02  0.51100000000E-03 0.  1.
         11   -1    0    0    0    0 -0.00000000000E+00 -0.00000000000E+00 -0.45593999997E+02  0.45594000000E+02  0.51100000000E-03 0. -1.
    9900012    2    1    2    0    0 -0.92343447805E+01  0.11155238158E+01 -0.42392286501E+02  0.47787268766E+02  0.19999989610E+02 0.  0.
        -12    1    1    2    0    0  0.92343447805E+01 -0.11155238158E+01  0.42392286501E+02  0.43400731234E+02  0.00000000000E+00 0.  1.
         11    1    3    3    0    0 -0.36179458704E+01  0.54154315330E+01 -0.37470721326E+01  0.75137860522E+01  0.51100000000E-03 0. -1.
        -11    1    3    3    0    0 -0.24192098983E+01  0.11619102314E+01 -0.28176709054E+01  0.38912570604E+01  0.51100000000E-03 0.  1.
         12    1    3    3    0    0 -0.31971890118E+01 -0.54618179486E+01 -0.35827543463E+02  0.36382225653E+02  0.00000000000E+00 0. -1.
</event>
<event>
 7    1  0.2642243E-009  0.4778728E+02  0.7816164E-02  0.1312668E+00
        -11   -1    0    0    0    0  0.00000000000E+00  0.00000000000E+00  0.45593999997E+02  0.45594000000E+02  0.51100000000E-03 0.  1.
         11   -1    0    0    0    0 -0.00000000000E+00 -0.00000000000E+00 -0.45593999997E+02  0.45594000000E+02  0.51100000000E-03 0. -1.
    9900012    2    1    2    0    0 -0.89620683491E+00  0.54901713559E+01 -0.43042737737E+02  0.47787280650E+02  0.20000043795E+02 0.  0.
        -12    1    1    2    0    0  0.89620683491E+00 -0.54901713559E+01  0.43042737737E+02  0.43400719350E+02  0.00000000000E+00 0.  1.
         11    1    3    3    0    0  0.36222699363E+00  0.73796326230E+01 -0.29392633307E+02  0.30307046689E+02  0.51100000000E-03 0. -1.
        -11    1    3    3    0    0  0.17895528949E+01 -0.57300613627E+01 -0.70828912240E+01  0.92845813657E+01  0.51100000000E-03 0.  1.
        -12    1    3    3    0    0 -0.30479867234E+01  0.38406000957E+01 -0.65672132064E+01  0.81956525951E+01  0.00000000000E+00 0.  1.
</event>
<event>
 7    1  0.2642243E-009  0.4778727E+02  0.7816164E-02  0.1312668E+00
        -11   -1    0    0    0    0  0.00000000000E+00  0.00000000000E+00  0.45593999997E+02  0.45594000000E+02  0.51100000000E-03 0.  1.
         11   -1    0    0    0    0 -0.00000000000E+00 -0.00000000000E+00 -0.45593999997E+02  0.45594000000E+02  0.51100000000E-03 0. -1.
    9900012    2    1    2    0    0 -0.42407590722E+01  0.38817275809E+02 -0.18943556542E+02  0.47787271052E+02  0.20000000034E+02 0.  0.
        -12    1    1    2    0    0  0.42407590722E+01 -0.38817275809E+02  0.18943556542E+02  0.43400728948E+02  0.00000000000E+00 0.  1.
         11    1    3    3    0    0 -0.59911498399E+01  0.24250981837E+02 -0.58144025849E+01  0.25647831763E+02  0.51100000000E-03 0. -1.
        -11    1    3    3    0    0 -0.89733518026E+00  0.12779972023E+02 -0.13848283542E+02  0.18865520206E+02  0.51100000000E-03 0.  1.
        -12    1    3    3    0    0  0.26477259479E+01  0.17863219498E+01  0.71912958439E+00  0.32739190831E+01  0.00000000000E+00 0.  1.
</event>
<event>
 7    1  0.2642243E-009  0.4778727E+02  0.7816164E-02  0.1312668E+00
        -11   -1    0    0    0    0  0.00000000000E+00  0.00000000000E+00  0.45593999997E+02  0.45594000000E+02  0.51100000000E-03 0. -1.
         11   -1    0    0    0    0 -0.00000000000E+00 -0.00000000000E+00 -0.45593999997E+02  0.45594000000E+02  0.51100000000E-03 0.  1.
    9900012    2    1    2    0    0  0.20700416067E+02 -0.19642701996E+02  0.32699850724E+02  0.47787271845E+02  0.20000003649E+02 0.  0.
        -12    1    1    2    0    0 -0.20700416067E+02  0.19642701996E+02 -0.32699850724E+02  0.43400728155E+02  0.00000000000E+00 0.  1.
         11    1    3    3    0    0  0.68696028272E+01 -0.17842636126E+02  0.17652067892E+02  0.26022040812E+02  0.51100000000E-03 0. -1.
        -11    1    3    3    0    0  0.92643566508E+01 -0.82945535330E+00  0.47181632030E+01  0.10429638757E+02  0.51100000000E-03 0.  1.
         12    1    3    3    0    0  0.45664565888E+01 -0.97061051684E+00  0.10329619629E+02  0.11335592275E+02  0.00000000000E+00 0. -1.
</event>
<event>
 7    1  0.2642243E-009  0.4778727E+02  0.7816164E-02  0.1312668E+00
        -11   -1    0    0    0    0  0.00000000000E+00  0.00000000000E+00  0.45593999997E+02  0.45594000000E+02  0.51100000000E-03 0.  1.
         11   -1    0    0    0    0 -0.00000000000E+00 -0.00000000000E+00 -0.45593999997E+02  0.45594000000E+02  0.51100000000E-03 0. -1.
    9900012    2    1    2    0    0  0.29952766385E+02 -0.17058293366E+02 -0.26371762435E+02  0.47787269124E+02  0.19999991243E+02 0.  0.
        -12    1    1    2    0    0 -0.29952766385E+02  0.17058293366E+02  0.26371762435E+02  0.43400730876E+02  0.00000000000E+00 0.  1.
         11    1    3    3    0    0  0.19538110482E+02 -0.80799541870E+01 -0.23087390301E+02  0.31305766434E+02  0.51100000000E-03 0. -1.
        -11    1    3    3    0    0  0.70478456621E+01 -0.99359317267E+01 -0.83705932293E+00  0.12210468309E+02  0.51100000000E-03 0.  1.
        -12    1    3    3    0    0  0.33668102407E+01  0.95759254760E+00 -0.24473128112E+01  0.42710343805E+01  0.00000000000E+00 0.  1.
</event>
<event>
 7    1  0.2642243E-009  0.4778727E+02  0.7816164E-02  0.1312668E+00
        -11   -1    0    0    0    0  0.00000000000E+00  0.00000000000E+00  0.45593999997E+02  0.45594000000E+02  0.51100000000E-03 0. -1.
         11   -1    0    0    0    0 -0.00000000000E+00 -0.00000000000E+00 -0.45593999997E+02  0.45594000000E+02  0.51100000000E-03 0.  1.
    9900012    2    1    2    0    0  0.22197470060E+01  0.42913411226E+02  0.60938713298E+01  0.47787269504E+02  0.19999992974E+02 0.  0.
        -12    1    1    2    0    0 -0.22197470060E+01 -0.42913411226E+02 -0.60938713298E+01  0.43400730496E+02  0.00000000000E+00 0.  1.
         11    1    3    3    0    0 -0.18937907210E+00  0.31139778959E+02  0.10114201402E+02  0.32741697701E+02  0.51100000000E-03 0. -1.
        -11    1    3    3    0    0  0.38379022946E+01  0.12367756049E+02 -0.36589709796E+01  0.13456557977E+02  0.51100000000E-03 0.  1.
        -12    1    3    3    0    0 -0.14287762165E+01 -0.59412378147E+00 -0.36135909273E+00  0.15890138258E+01  0.00000000000E+00 0.  1.
</event>
<event>
 7    1  0.2642243E-009  0.4778727E+02  0.7816164E-02  0.1312668E+00
        -11   -1    0    0    0    0  0.00000000000E+00  0.00000000000E+00  0.45593999997E+02  0.45594000000E+02  0.51100000000E-03 0.  1.
         11   -1    0    0    0    0 -0.00000000000E+00 -0.00000000000E+00 -0.45593999997E+02  0.45594000000E+02  0.51100000000E-03 0. -1.
    9900012    2    1    2    0    0 -0.31067219342E+02 -0.11914543124E+02 -0.27865657726E+02  0.47787270329E+02  0.19999996738E+02 0.  0.
        -12    1    1    2    0    0  0.31067219342E+02  0.11914543124E+02  0.27865657726E+02  0.43400729671E+02  0.00000000000E+00 0.  1.
         11    1    3    3    0    0 -0.21994823614E+02 -0.14316882191E+02 -0.23347171249E+02  0.35125998735E+02  0.51100000000E-03 0. -1.
        -11    1    3    3    0    0 -0.29530468384E+01  0.37197948978E+01 -0.42859364830E+01  0.63973909924E+01  0.51100000000E-03 0.  1.
        -12    1    3    3    0    0 -0.61193488893E+01 -0.13174558304E+01 -0.23254999321E+00  0.62638806018E+01  0.00000000000E+00 0.  1.
</event>
<event>
 7    1  0.2642243E-009  0.4778727E+02  0.7816164E-02  0.1312668E+00
        -11   -1    0    0    0    0  0.00000000000E+00  0.00000000000E+00  0.45593999997E+02  0.45594000000E+02  0.51100000000E-03 0.  1.
         11   -1    0    0    0    0 -0.00000000000E+00 -0.00000000000E+00 -0.45593999997E+02  0.45594000000E+02  0.51100000000E-03 0. -1.
    9900012    2    1    2    0    0 -0.50347016402E+01 -0.41353171197E+02  0.12173344204E+02  0.47787270769E+02  0.19999998744E+02 0.  0.
        -12    1    1    2    0    0  0.50347016402E+01  0.41353171197E+02 -0.12173344204E+02  0.43400729231E+02  0.00000000000E+00 0.  1.
         11    1    3    3    0    0  0.25411381592E+01 -0.66364818322E+01 -0.37568067310E+01  0.80382753951E+01  0.51100000000E-03 0.  1.
        -11    1    3    3    0    0 -0.90579078251E+01 -0.31637404493E+02  0.13574008799E+02  0.35598100684E+02  0.51100000000E-03 0. -1.
         12    1    3    3    0    0  0.14820680257E+01 -0.30792848726E+01  0.23561421360E+01  0.41508946896E+01  0.00000000000E+00 0. -1.
</event>
<event>
 7    1  0.2642243E-009  0.4778727E+02  0.7816164E-02  0.1312668E+00
        -11   -1    0    0    0    0  0.00000000000E+00  0.00000000000E+00  0.45593999997E+02  0.45594000000E+02  0.51100000000E-03 0.  1.
         11   -1    0    0    0    0 -0.00000000000E+00 -0.00000000000E+00 -0.45593999997E+02  0.45594000000E+02  0.51100000000E-03 0. -1.
    9900012    2    1    2    0    0  0.10637467896E+02 -0.93609975865E+01 -0.41022421087E+02  0.47787273844E+02  0.20000012765E+02 0.  0.
        -12    1    1    2    0    0 -0.10637467896E+02  0.93609975865E+01  0.41022421087E+02  0.43400726156E+02  0.00000000000E+00 0.  1.
         11    1    3    3    0    0 -0.55992587954E+00 -0.76850283015E+01 -0.67787862600E+01  0.10262802756E+02  0.51100000000E-03 0. -1.
        -11    1    3    3    0    0  0.17203610233E+01 -0.15975219245E+01 -0.40333340323E+00  0.23820991678E+01  0.51100000000E-03 0.  1.
         12    1    3    3    0    0  0.94770327519E+01 -0.78447360503E-01 -0.33840301423E+02  0.35142371920E+02  0.00000000000E+00 0. -1.
</event>
<event>
 7    1  0.2642243E-009  0.4778727E+02  0.7816164E-02  0.1312668E+00
        -11   -1    0    0    0    0  0.00000000000E+00  0.00000000000E+00  0.45593999997E+02  0.45594000000E+02  0.51100000000E-03 0. -1.
         11   -1    0    0    0    0 -0.00000000000E+00 -0.00000000000E+00 -0.45593999997E+02  0.45594000000E+02  0.51100000000E-03 0.  1.
    9900012    2    1    2    0    0 -0.33546366608E+02 -0.16725795926E+02  0.21874923791E+02  0.47787271287E+02  0.20000001104E+02 0.  0.
        -12    1    1    2    0    0  0.33546366608E+02  0.16725795926E+02 -0.21874923791E+02  0.43400728713E+02  0.00000000000E+00 0.  1.
         11    1    3    3    0    0 -0.14431171305E+02 -0.10668420363E+02  0.14794677351E+02  0.23258468920E+02  0.51100000000E-03 0. -1.
        -11    1    3    3    0    0 -0.14444466892E+02  0.15577378573E+01  0.49108759989E+01  0.15335771071E+02  0.51100000000E-03 0.  1.
        -12    1    3    3    0    0 -0.46707284112E+01 -0.76151134201E+01  0.21693704409E+01  0.91930312956E+01  0.00000000000E+00 0.  1.
</event>
<event>
 7    1  0.2642243E-009  0.4778725E+02  0.7816164E-02  0.1312668E+00
        -11   -1    0    0    0    0  0.00000000000E+00  0.00000000000E+00  0.45593999997E+02  0.45594000000E+02  0.51100000000E-03 0.  1.
         11   -1    0    0    0    0 -0.00000000000E+00 -0.00000000000E+00 -0.45593999997E+02  0.45594000000E+02  0.51100000000E-03 0. -1.
    9900012    2    1    2    0    0  0.35592984906E+01 -0.10451685901E+02 -0.41972835878E+02  0.47787247753E+02  0.19999893805E+02 0.  0.
        -12    1    1    2    0    0 -0.35592984906E+01  0.10451685901E+02  0.41972835878E+02  0.43400752247E+02  0.00000000000E+00 0.  1.
         11    1    3    3    0    0  0.52882622469E+00  0.42709766260E+01 -0.47873878239E+01  0.64373892964E+01  0.51100000000E-03 0. -1.
        -11    1    3    3    0    0 -0.28987343724E+01 -0.80670529976E+01 -0.23529060199E+02  0.25041898473E+02  0.51100000000E-03 0.  1.
         12    1    3    3    0    0  0.59292066383E+01 -0.66556095292E+01 -0.13656387855E+02  0.16307959984E+02  0.00000000000E+00 0. -1.
</event>
<event>
 7    1  0.3134607E-009  0.4778727E+02  0.7816164E-02  0.1312668E+00
        -11   -1    0    0    0    0  0.00000000000E+00  0.00000000000E+00  0.45593999997E+02  0.45594000000E+02  0.51100000000E-03 0.  1.
         11   -1    0    0    0    0 -0.00000000000E+00 -0.00000000000E+00 -0.45593999997E+02  0.45594000000E+02  0.51100000000E-03 0. -1.
    9900012    2    1    2    0    0  0.16523244728E+02  0.39722971951E+02  0.57176372577E+01  0.47787268522E+02  0.19999988501E+02 0.  0.
        -12    1    1    2    0    0 -0.16523244728E+02 -0.39722971951E+02 -0.57176372577E+01  0.43400731478E+02  0.00000000000E+00 0.  1.
         11    1    3    3    0    0  0.12517470808E+02  0.22686651480E+02  0.71550333154E-01  0.25910931101E+02  0.51100000000E-03 0. -1.
        -11    1    3    3    0    0  0.18486907491E+01  0.33715703172E+01  0.69894423777E+01  0.79773083745E+01  0.51100000000E-03 0.  1.
        -12    1    3    3    0    0  0.21570831705E+01  0.13664750154E+02 -0.13433554531E+01  0.13899029047E+02  0.00000000000E+00 0.  1.
</event>
<event>
 7    1  0.2642243E-009  0.4778727E+02  0.7816164E-02  0.1312668E+00
        -11   -1    0    0    0    0  0.00000000000E+00  0.00000000000E+00  0.45593999997E+02  0.45594000000E+02  0.51100000000E-03 0.  1.
         11   -1    0    0    0    0 -0.00000000000E+00 -0.00000000000E+00 -0.45593999997E+02  0.45594000000E+02  0.51100000000E-03 0. -1.
    9900012    2    1    2    0    0 -0.34429922317E+02 -0.97101076524E+01 -0.24574735719E+02  0.47787269856E+02  0.19999994582E+02 0.  0.
        -12    1    1    2    0    0  0.34429922317E+02  0.97101076524E+01  0.24574735719E+02  0.43400730144E+02  0.00000000000E+00 0.  1.
         11    1    3    3    0    0  0.12200336368E+01 -0.19156888618E+01  0.86238739328E+00  0.24294151904E+01  0.51100000000E-03 0. -1.
        -11    1    3    3    0    0 -0.30801404970E+01 -0.35297306379E+01 -0.36907160257E+01  0.59638619116E+01  0.51100000000E-03 0.  1.
         12    1    3    3    0    0 -0.32569815457E+02 -0.42646881526E+01 -0.21746407086E+02  0.39393992754E+02  0.00000000000E+00 0. -1.
</event>
<event>
 7    1  0.2642243E-009  0.4778727E+02  0.7816164E-02  0.1312668E+00
        -11   -1    0    0    0    0  0.00000000000E+00  0.00000000000E+00  0.45593999997E+02  0.45594000000E+02  0.51100000000E-03 0. -1.
         11   -1    0    0    0    0 -0.00000000000E+00 -0.00000000000E+00 -0.45593999997E+02  0.45594000000E+02  0.51100000000E-03 0.  1.
    9900012    2    1    2    0    0 -0.28190019011E+02 -0.24477132309E+01  0.32908286504E+02  0.47787265070E+02  0.19999972758E+02 0.  0.
        -12    1    1    2    0    0  0.28190019011E+02  0.24477132309E+01 -0.32908286504E+02  0.43400734930E+02  0.00000000000E+00 0.  1.
         11    1    3    3    0    0 -0.39608958486E+01 -0.51536501699E+01  0.63481225468E+01  0.90855636109E+01  0.51100000000E-03 0. -1.
        -11    1    3    3    0    0 -0.11899655450E+02  0.60092345784E+01  0.20782701431E+02  0.24690754931E+02  0.51100000000E-03 0.  1.
        -12    1    3    3    0    0 -0.12329467712E+02 -0.33032976393E+01  0.57774625262E+01  0.14010946528E+02  0.00000000000E+00 0.  1.
</event>
<event>
 7    1  0.2642243E-009  0.4778727E+02  0.7816164E-02  0.1312668E+00
        -11   -1    0    0    0    0  0.00000000000E+00  0.00000000000E+00  0.45593999997E+02  0.45594000000E+02  0.51100000000E-03 0.  1.
         11   -1    0    0    0    0 -0.00000000000E+00 -0.00000000000E+00 -0.45593999997E+02  0.45594000000E+02  0.51100000000E-03 0. -1.
    9900012    2    1    2    0    0  0.25190785305E+02  0.97917115267E+01 -0.33958362257E+02  0.47787266756E+02  0.19999980448E+02 0.  0.
        -12    1    1    2    0    0 -0.25190785305E+02 -0.97917115267E+01  0.33958362257E+02  0.43400733244E+02  0.00000000000E+00 0.  1.
         11    1    3    3    0    0  0.20960736067E+02  0.60946941829E+00 -0.18175481861E+02  0.27750172082E+02  0.51100000000E-03 0. -1.
        -11    1    3    3    0    0  0.49182882275E+00  0.47418275922E+01 -0.21690836354E+01  0.52375326809E+01  0.51100000000E-03 0.  1.
         12    1    3    3    0    0  0.37382204157E+01  0.44404145162E+01 -0.13613796761E+02  0.14799561993E+02  0.00000000000E+00 0. -1.
</event>
<event>
 7    1  0.2642243E-009  0.4778727E+02  0.7816164E-02  0.1312668E+00
        -11   -1    0    0    0    0  0.00000000000E+00  0.00000000000E+00  0.45593999997E+02  0.45594000000E+02  0.51100000000E-03 0.  1.
         11   -1    0    0    0    0 -0.00000000000E+00 -0.00000000000E+00 -0.45593999997E+02  0.45594000000E+02  0.51100000000E-03 0. -1.
    9900012    2    1    2    0    0  0.39657837307E+02 -0.14417332618E+02 -0.10149886609E+02  0.47787265699E+02  0.19999975628E+02 0.  0.
        -12    1    1    2    0    0 -0.39657837307E+02  0.14417332618E+02  0.10149886609E+02  0.43400734301E+02  0.00000000000E+00 0.  1.
         11    1    3    3    0    0  0.37253644890E+02 -0.16782758295E+02 -0.88400592057E+01  0.41804804516E+02  0.51100000000E-03 0. -1.
        -11    1    3    3    0    0 -0.87989865952E+00  0.15365671840E+01  0.85127738936E+00  0.19646714272E+01  0.51100000000E-03 0.  1.
         12    1    3    3    0    0  0.32840910760E+01  0.82885849264E+00 -0.21611047927E+01  0.40177897557E+01  0.00000000000E+00 0. -1.
</event>
<event>
 7    1  0.2642243E-009  0.4778727E+02  0.7816164E-02  0.1312668E+00
        -11   -1    0    0    0    0  0.00000000000E+00  0.00000000000E+00  0.45593999997E+02  0.45594000000E+02  0.51100000000E-03 0.  1.
         11   -1    0    0    0    0 -0.00000000000E+00 -0.00000000000E+00 -0.45593999997E+02  0.45594000000E+02  0.51100000000E-03 0. -1.
    9900012    2    1    2    0    0 -0.23233917594E+02 -0.35529551820E+02 -0.90254661044E+01  0.47787273996E+02  0.20000013458E+02 0.  0.
        -12    1    1    2    0    0  0.23233917594E+02  0.35529551820E+02  0.90254661044E+01  0.43400726004E+02  0.00000000000E+00 0.  1.
         11    1    3    3    0    0 -0.15579194110E+02 -0.13224389244E+02  0.79502570658E+00  0.20450619212E+02  0.51100000000E-03 0. -1.
        -11    1    3    3    0    0 -0.30598634576E+01 -0.18266575557E+02 -0.41175720891E+01  0.18973269279E+02  0.51100000000E-03 0.  1.
         12    1    3    3    0    0 -0.45948600257E+01 -0.40385870187E+01 -0.57029197220E+01  0.83633855058E+01  0.00000000000E+00 0. -1.
</event>
<event>
 7    1  0.2642243E-009  0.4778726E+02  0.7816164E-02  0.1312668E+00
        -11   -1    0    0    0    0  0.00000000000E+00  0.00000000000E+00  0.45593999997E+02  0.45594000000E+02  0.51100000000E-03 0. -1.
         11   -1    0    0    0    0 -0.00000000000E+00 -0.00000000000E+00 -0.45593999997E+02  0.45594000000E+02  0.51100000000E-03 0.  1.
    9900012    2    1    2    0    0  0.16020051268E+02 -0.35289379517E+02  0.19535665088E+02  0.47787256230E+02  0.19999932457E+02 0.  0.
        -12    1    1    2    0    0 -0.16020051268E+02  0.35289379517E+02 -0.19535665088E+02  0.43400743770E+02  0.00000000000E+00 0.  1.
         11    1    3    3    0    0  0.24893614845E+01 -0.86970346271E+01  0.80936994108E+01  0.12138504946E+02  0.51100000000E-03 0. -1.
        -11    1    3    3    0    0  0.15972025824E+02 -0.25198728018E+02  0.12874595947E+02  0.32493641281E+02  0.51100000000E-03 0.  1.
        -12    1    3    3    0    0 -0.24413360403E+01 -0.13936168722E+01 -0.14326302694E+01  0.31551100039E+01  0.00000000000E+00 0.  1.
</event>
<event>
 7    1  0.2642243E-009  0.4778727E+02  0.7816164E-02  0.1312668E+00
        -11   -1    0    0    0    0  0.00000000000E+00  0.00000000000E+00  0.45593999997E+02  0.45594000000E+02  0.51100000000E-03 0.  1.
         11   -1    0    0    0    0 -0.00000000000E+00 -0.00000000000E+00 -0.45593999997E+02  0.45594000000E+02  0.51100000000E-03 0. -1.
    9900012    2    1    2    0    0  0.10738062175E+02  0.40214597618E+02 -0.12292418713E+02  0.47787269607E+02  0.19999993445E+02 0.  0.
        -12    1    1    2    0    0 -0.10738062175E+02 -0.40214597618E+02  0.12292418713E+02  0.43400730393E+02  0.00000000000E+00 0.  1.
         11    1    3    3    0    0  0.68394886652E+01  0.34560697788E+01 -0.59211823600E+01  0.96841842361E+01  0.51100000000E-03 0. -1.
        -11    1    3    3    0    0 -0.55106653963E+00  0.31951906401E+01 -0.23578497259E+01  0.40090364365E+01  0.51100000000E-03 0.  1.
         12    1    3    3    0    0  0.44496400493E+01  0.33563337199E+02 -0.40133866275E+01  0.34094048934E+02  0.00000000000E+00 0. -1.
</event>
<event>
 7    1  0.2642243E-009  0.4778727E+02  0.7816164E-02  0.1312668E+00
        -11   -1    0    0    0    0  0.00000000000E+00  0.00000000000E+00  0.45593999997E+02  0.45594000000E+02  0.51100000000E-03 0.  1.
         11   -1    0    0    0    0 -0.00000000000E+00 -0.00000000000E+00 -0.45593999997E+02  0.45594000000E+02  0.51100000000E-03 0. -1.
    9900012    2    1    2    0    0 -0.37833322173E+02  0.29109549991E+01 -0.21066301491E+02  0.47787274382E+02  0.20000015217E+02 0.  0.
        -12    1    1    2    0    0  0.37833322173E+02 -0.29109549991E+01  0.21066301491E+02  0.43400725618E+02  0.00000000000E+00 0.  1.
         11    1    3    3    0    0 -0.12206683337E+02  0.15808086242E+01 -0.10806152440E+02  0.16379102687E+02  0.51100000000E-03 0. -1.
        -11    1    3    3    0    0 -0.54543434501E-01 -0.35455748762E+01 -0.21247238282E+01  0.41338272576E+01  0.51100000000E-03 0.  1.
        -12    1    3    3    0    0 -0.25572095401E+02  0.48757212512E+01 -0.81354252228E+01  0.27274344438E+02  0.00000000000E+00 0.  1.
</event>
<event>
 7    1  0.2642243E-009  0.4778727E+02  0.7816164E-02  0.1312668E+00
        -11   -1    0    0    0    0  0.00000000000E+00  0.00000000000E+00  0.45593999997E+02  0.45594000000E+02  0.51100000000E-03 0.  1.
         11   -1    0    0    0    0 -0.00000000000E+00 -0.00000000000E+00 -0.45593999997E+02  0.45594000000E+02  0.51100000000E-03 0. -1.
    9900012    2    1    2    0    0  0.27470648679E+02 -0.31047745924E+02  0.12846174219E+02  0.47787271229E+02  0.20000000839E+02 0.  0.
        -12    1    1    2    0    0 -0.27470648679E+02  0.31047745924E+02 -0.12846174219E+02  0.43400728771E+02  0.00000000000E+00 0.  1.
         11    1    3    3    0    0  0.13565670741E+02 -0.15003449169E+02  0.84899442693E+01  0.21936500715E+02  0.51100000000E-03 0. -1.
        -11    1    3    3    0    0 -0.10493225561E+01  0.30952890820E+00 -0.24380927316E+01  0.26722990852E+01  0.51100000000E-03 0.  1.
        -12    1    3    3    0    0  0.14954300494E+02 -0.16353825663E+02  0.67943226809E+01  0.23178471429E+02  0.00000000000E+00 0.  1.
</event>
<event>
 7    1  0.2642243E-009  0.4778727E+02  0.7816164E-02  0.1312668E+00
        -11   -1    0    0    0    0  0.00000000000E+00  0.00000000000E+00  0.45593999997E+02  0.45594000000E+02  0.51100000000E-03 0.  1.
         11   -1    0    0    0    0 -0.00000000000E+00 -0.00000000000E+00 -0.45593999997E+02  0.45594000000E+02  0.51100000000E-03 0. -1.
    9900012    2    1    2    0    0  0.37784463371E+02 -0.13557555133E+02  0.16496983150E+02  0.47787269286E+02  0.19999991983E+02 0.  0.
        -12    1    1    2    0    0 -0.37784463371E+02  0.13557555133E+02 -0.16496983150E+02  0.43400730714E+02  0.00000000000E+00 0.  1.
         11    1    3    3    0    0  0.82002128037E+01 -0.16980658377E-01  0.10375520550E+02  0.13224795095E+02  0.51100000000E-03 0. -1.
        -11    1    3    3    0    0  0.14253046639E+02 -0.18792672633E+01  0.51666887088E+01  0.15276637601E+02  0.51100000000E-03 0.  1.
         12    1    3    3    0    0  0.15331203929E+02 -0.11661307211E+02  0.95477389215E+00  0.19285836590E+02  0.00000000000E+00 0. -1.
</event>
<event>
 7    1  0.2642243E-009  0.4778728E+02  0.7816164E-02  0.1312668E+00
        -11   -1    0    0    0    0  0.00000000000E+00  0.00000000000E+00  0.45593999997E+02  0.45594000000E+02  0.51100000000E-03 0.  1.
         11   -1    0    0    0    0 -0.00000000000E+00 -0.00000000000E+00 -0.45593999997E+02  0.45594000000E+02  0.51100000000E-03 0. -1.
    9900012    2    1    2    0    0  0.12368863077E+02 -0.41599581209E+02 -0.32927641921E+00  0.47787281647E+02  0.20000048343E+02 0.  0.
        -12    1    1    2    0    0 -0.12368863077E+02  0.41599581209E+02  0.32927641921E+00  0.43400718353E+02  0.00000000000E+00 0.  1.
         11    1    3    3    0    0  0.47779049475E+01 -0.71259537630E+01 -0.83519446163E+00  0.86200430840E+01  0.51100000000E-03 0. -1.
        -11    1    3    3    0    0  0.10288375433E+02 -0.27321826366E+02  0.59348486469E+01  0.29791866235E+02  0.51100000000E-03 0.  1.
        -12    1    3    3    0    0 -0.26974173036E+01 -0.71518010796E+01 -0.54289306045E+01  0.93753723286E+01  0.00000000000E+00 0.  1.
</event>
<event>
 7    1  0.2642243E-009  0.4778727E+02  0.7816164E-02  0.1312668E+00
        -11   -1    0    0    0    0  0.00000000000E+00  0.00000000000E+00  0.45593999997E+02  0.45594000000E+02  0.51100000000E-03 0.  1.
         11   -1    0    0    0    0 -0.00000000000E+00 -0.00000000000E+00 -0.45593999997E+02  0.45594000000E+02  0.51100000000E-03 0. -1.
    9900012    2    1    2    0    0  0.46425883508E+01  0.39950510248E+02  0.16310305632E+02  0.47787274597E+02  0.20000016199E+02 0.  0.
        -12    1    1    2    0    0 -0.46425883508E+01 -0.39950510248E+02 -0.16310305632E+02  0.43400725403E+02  0.00000000000E+00 0.  1.
         11    1    3    3    0    0 -0.63694598641E+01  0.64741207881E+01  0.15548205021E+01  0.92142132597E+01  0.51100000000E-03 0. -1.
        -11    1    3    3    0    0  0.21208756746E+01  0.37156823144E+01  0.35289681079E+01  0.55459917829E+01  0.51100000000E-03 0.  1.
         12    1    3    3    0    0  0.88911725404E+01  0.29760707146E+02  0.11226517022E+02  0.33027069555E+02  0.00000000000E+00 0. -1.
</event>
<event>
 7    1  0.2642243E-009  0.4778727E+02  0.7816164E-02  0.1312668E+00
        -11   -1    0    0    0    0  0.00000000000E+00  0.00000000000E+00  0.45593999997E+02  0.45594000000E+02  0.51100000000E-03 0. -1.
         11   -1    0    0    0    0 -0.00000000000E+00 -0.00000000000E+00 -0.45593999997E+02  0.45594000000E+02  0.51100000000E-03 0.  1.
    9900012    2    1    2    0    0 -0.16768999639E+02  0.37740996972E+02  0.13343201661E+02  0.47787271528E+02  0.20000002205E+02 0.  0.
        -12    1    1    2    0    0  0.16768999639E+02 -0.37740996972E+02 -0.13343201661E+02  0.43400728472E+02  0.00000000000E+00 0.  1.
         11    1    3    3    0    0 -0.29139522974E+00  0.95454499673E+01 -0.31031525712E+01  0.10041418346E+02  0.51100000000E-03 0. -1.
        -11    1    3    3    0    0 -0.32119347841E+01  0.75276673526E+00  0.47152885366E+00  0.33324949417E+01  0.51100000000E-03 0.  1.
         12    1    3    3    0    0 -0.13265669625E+02  0.27442780269E+02  0.15974825379E+02  0.34413358241E+02  0.00000000000E+00 0. -1.
</event>
<event>
 7    1  0.2642243E-009  0.4778726E+02  0.7816164E-02  0.1312668E+00
        -11   -1    0    0    0    0  0.00000000000E+00  0.00000000000E+00  0.45593999997E+02  0.45594000000E+02  0.51100000000E-03 0. -1.
         11   -1    0    0    0    0 -0.00000000000E+00 -0.00000000000E+00 -0.45593999997E+02  0.45594000000E+02  0.51100000000E-03 0.  1.
    9900012    2    1    2    0    0  0.37546910970E+01  0.82934914281E+01  0.42435179024E+02  0.47787261249E+02  0.19999955339E+02 0.  0.
        -12    1    1    2    0    0 -0.37546910970E+01 -0.82934914281E+01 -0.42435179024E+02  0.43400738751E+02  0.00000000000E+00 0.  1.
         11    1    3    3    0    0  0.14197420329E+01  0.44742751711E+00  0.57661443535E+01  0.59551893160E+01  0.51100000000E-03 0. -1.
        -11    1    3    3    0    0 -0.54632220759E+01  0.10310722874E+02  0.18013612008E+02  0.21462712304E+02  0.51100000000E-03 0.  1.
        -12    1    3    3    0    0  0.77981711399E+01 -0.24646589634E+01  0.18655422663E+02  0.20369359629E+02  0.00000000000E+00 0.  1.
</event>
<event>
 7    1  0.2642243E-009  0.4778727E+02  0.7816164E-02  0.1312668E+00
        -11   -1    0    0    0    0  0.00000000000E+00  0.00000000000E+00  0.45593999997E+02  0.45594000000E+02  0.51100000000E-03 0.  1.
         11   -1    0    0    0    0 -0.00000000000E+00 -0.00000000000E+00 -0.45593999997E+02  0.45594000000E+02  0.51100000000E-03 0. -1.
    9900012    2    1    2    0    0 -0.13667234922E+02  0.99801108638E+00 -0.41180506752E+02  0.47787268751E+02  0.19999989545E+02 0.  0.
        -12    1    1    2    0    0  0.13667234922E+02 -0.99801108638E+00  0.41180506752E+02  0.43400731249E+02  0.00000000000E+00 0.  1.
         11    1    3    3    0    0 -0.63449265429E+01  0.74581299055E+01 -0.22072117736E+02  0.24146639023E+02  0.51100000000E-03 0. -1.
        -11    1    3    3    0    0 -0.90423054749E+01 -0.25470953430E+01 -0.15082302318E+02  0.17768703567E+02  0.51100000000E-03 0.  1.
         12    1    3    3    0    0  0.17199970954E+01 -0.39130234761E+01 -0.40260866985E+01  0.58719261607E+01  0.00000000000E+00 0. -1.
</event>
<event>
 7    1  0.2642243E-009  0.4778728E+02  0.7816164E-02  0.1312668E+00
        -11   -1    0    0    0    0  0.00000000000E+00  0.00000000000E+00  0.45593999997E+02  0.45594000000E+02  0.51100000000E-03 0.  1.
         11   -1    0    0    0    0 -0.00000000000E+00 -0.00000000000E+00 -0.45593999997E+02  0.45594000000E+02  0.51100000000E-03 0. -1.
    9900012    2    1    2    0    0  0.41660367362E+02 -0.73495835335E+01 -0.96963649951E+01  0.47787284787E+02  0.20000062659E+02 0.  0.
        -12    1    1    2    0    0 -0.41660367362E+02  0.73495835335E+01  0.96963649951E+01  0.43400715213E+02  0.00000000000E+00 0.  1.
         11    1    3    3    0    0  0.10828840664E+02 -0.89788705455E+01 -0.79325002606E+01  0.16149565537E+02  0.51100000000E-03 0.  1.
        -11    1    3    3    0    0  0.22289543639E+02  0.18064414835E+01 -0.41994722891E+01  0.22753517404E+02  0.51100000000E-03 0. -1.
         12    1    3    3    0    0  0.85419830587E+01 -0.17715447155E+00  0.24356075546E+01  0.88842018461E+01  0.00000000000E+00 0. -1.
</event>
<event>
 7    1  0.2642243E-009  0.4778727E+02  0.7816164E-02  0.1312668E+00
        -11   -1    0    0    0    0  0.00000000000E+00  0.00000000000E+00  0.45593999997E+02  0.45594000000E+02  0.51100000000E-03 0.  1.
         11   -1    0    0    0    0 -0.00000000000E+00 -0.00000000000E+00 -0.45593999997E+02  0.45594000000E+02  0.51100000000E-03 0. -1.
    9900012    2    1    2    0    0 -0.22541632604E+01 -0.24235674937E+02 -0.35932908392E+02  0.47787273080E+02  0.20000009282E+02 0.  0.
        -12    1    1    2    0    0  0.22541632604E+01  0.24235674937E+02  0.35932908392E+02  0.43400726920E+02  0.00000000000E+00 0.  1.
         11    1    3    3    0    0 -0.24317793085E+01 -0.88307601739E+01 -0.10243740090E+02  0.13741546024E+02  0.51100000000E-03 0. -1.
        -11    1    3    3    0    0 -0.32611510621E+01 -0.13592368138E+02 -0.26603717498E+02  0.30052376991E+02  0.51100000000E-03 0.  1.
        -12    1    3    3    0    0  0.34387671102E+01 -0.18125466258E+01  0.91454919574E+00  0.39933500648E+01  0.00000000000E+00 0.  1.
</event>
<event>
 7    1  0.2642243E-009  0.4778727E+02  0.7816164E-02  0.1312668E+00
        -11   -1    0    0    0    0  0.00000000000E+00  0.00000000000E+00  0.45593999997E+02  0.45594000000E+02  0.51100000000E-03 0. -1.
         11   -1    0    0    0    0 -0.00000000000E+00 -0.00000000000E+00 -0.45593999997E+02  0.45594000000E+02  0.51100000000E-03 0.  1.
    9900012    2    1    2    0    0 -0.13506290552E+02  0.40181480847E+02  0.93087020103E+01  0.47787271658E+02  0.20000002796E+02 0.  0.
        -12    1    1    2    0    0  0.13506290552E+02 -0.40181480847E+02 -0.93087020103E+01  0.43400728342E+02  0.00000000000E+00 0.  1.
         11    1    3    3    0    0 -0.67814567429E+01  0.23197561268E+02  0.90226143996E+01  0.25797724225E+02  0.51100000000E-03 0. -1.
        -11    1    3    3    0    0 -0.20163561919E+01 -0.15833849314E+01  0.11614044491E+01  0.28145444905E+01  0.51100000000E-03 0.  1.
        -12    1    3    3    0    0 -0.47084776173E+01  0.18567304510E+02 -0.87531683838E+00  0.19175002942E+02  0.00000000000E+00 0.  1.
</event>
<event>
 7    1  0.2642243E-009  0.4778727E+02  0.7816164E-02  0.1312668E+00
        -11   -1    0    0    0    0  0.00000000000E+00  0.00000000000E+00  0.45593999997E+02  0.45594000000E+02  0.51100000000E-03 0.  1.
         11   -1    0    0    0    0 -0.00000000000E+00 -0.00000000000E+00 -0.45593999997E+02  0.45594000000E+02  0.51100000000E-03 0. -1.
    9900012    2    1    2    0    0 -0.17151132162E+02  0.14918488493E+02 -0.36971618096E+02  0.47787272149E+02  0.20000005036E+02 0.  0.
        -12    1    1    2    0    0  0.17151132162E+02 -0.14918488493E+02  0.36971618096E+02  0.43400727851E+02  0.00000000000E+00 0.  1.
         11    1    3    3    0    0  0.10275631634E+01 -0.10370195351E+01 -0.12165981996E+02  0.12253261352E+02  0.51100000000E-03 0. -1.
        -11    1    3    3    0    0 -0.10377008573E+02  0.91869010151E+01 -0.85811248253E+01  0.16300833129E+02  0.51100000000E-03 0.  1.
        -12    1    3    3    0    0 -0.78016867528E+01  0.67686070130E+01 -0.16224511275E+02  0.19233177667E+02  0.00000000000E+00 0.  1.
</event>
<event>
 7    1  0.2642243E-009  0.4778727E+02  0.7816164E-02  0.1312668E+00
        -11   -1    0    0    0    0  0.00000000000E+00  0.00000000000E+00  0.45593999997E+02  0.45594000000E+02  0.51100000000E-03 0.  1.
         11   -1    0    0    0    0 -0.00000000000E+00 -0.00000000000E+00 -0.45593999997E+02  0.45594000000E+02  0.51100000000E-03 0. -1.
    9900012    2    1    2    0    0 -0.25650728821E+02  0.12441907249E+02 -0.32724031006E+02  0.47787272468E+02  0.20000006491E+02 0.  0.
        -12    1    1    2    0    0  0.25650728821E+02 -0.12441907249E+02  0.32724031006E+02  0.43400727532E+02  0.00000000000E+00 0.  1.
         11    1    3    3    0    0  0.66025842897E+00  0.15303959176E+01 -0.39455474057E+01  0.42831527464E+01  0.51100000000E-03 0. -1.
        -11    1    3    3    0    0 -0.97916879139E+01  0.10713943038E+02 -0.20243592576E+02  0.24909210510E+02  0.51100000000E-03 0.  1.
        -12    1    3    3    0    0 -0.16519299336E+02  0.19756829355E+00 -0.85348910243E+01  0.18594909211E+02  0.00000000000E+00 0.  1.
</event>
<event>
 7    1  0.2642243E-009  0.4778727E+02  0.7816164E-02  0.1312668E+00
        -11   -1    0    0    0    0  0.00000000000E+00  0.00000000000E+00  0.45593999997E+02  0.45594000000E+02  0.51100000000E-03 0.  1.
         11   -1    0    0    0    0 -0.00000000000E+00 -0.00000000000E+00 -0.45593999997E+02  0.45594000000E+02  0.51100000000E-03 0. -1.
    9900012    2    1    2    0    0  0.19890878721E+02 -0.33128223611E+01 -0.38431779646E+02  0.47787268035E+02  0.19999986281E+02 0.  0.
        -12    1    1    2    0    0 -0.19890878721E+02  0.33128223611E+01  0.38431779646E+02  0.43400731965E+02  0.00000000000E+00 0.  1.
         11    1    3    3    0    0  0.17289649707E+02 -0.91927328194E+01 -0.24859237640E+02  0.31645221124E+02  0.51100000000E-03 0. -1.
        -11    1    3    3    0    0  0.36363218698E+01  0.54892930613E+01 -0.75462514830E+01  0.10015043023E+02  0.51100000000E-03 0.  1.
         12    1    3    3    0    0 -0.10350928564E+01  0.39061739696E+00 -0.60262905234E+01  0.61270038880E+01  0.00000000000E+00 0. -1.
</event>
<event>
 7    1  0.2642243E-009  0.4778727E+02  0.7816164E-02  0.1312668E+00
        -11   -1    0    0    0    0  0.00000000000E+00  0.00000000000E+00  0.45593999997E+02  0.45594000000E+02  0.51100000000E-03 0.  1.
         11   -1    0    0    0    0 -0.00000000000E+00 -0.00000000000E+00 -0.45593999997E+02  0.45594000000E+02  0.51100000000E-03 0. -1.
    9900012    2    1    2    0    0 -0.30702029405E+02 -0.13959316657E+02 -0.27315676108E+02  0.47787270832E+02  0.19999999030E+02 0.  0.
        -12    1    1    2    0    0  0.30702029405E+02  0.13959316657E+02  0.27315676108E+02  0.43400729168E+02  0.00000000000E+00 0.  1.
         11    1    3    3    0    0 -0.10455668790E+02 -0.67100822799E+00 -0.13955545282E+02  0.17450745149E+02  0.51100000000E-03 0. -1.
        -11    1    3    3    0    0 -0.71729994062E+01 -0.25664386343E+01  0.15722883933E+01  0.77788571653E+01  0.51100000000E-03 0.  1.
        -12    1    3    3    0    0 -0.13073361209E+02 -0.10721869794E+02 -0.14932419219E+02  0.22557668517E+02  0.00000000000E+00 0.  1.
</event>
<event>
 7    1  0.2642243E-009  0.4778727E+02  0.7816164E-02  0.1312668E+00
        -11   -1    0    0    0    0  0.00000000000E+00  0.00000000000E+00  0.45593999997E+02  0.45594000000E+02  0.51100000000E-03 0. -1.
         11   -1    0    0    0    0 -0.00000000000E+00 -0.00000000000E+00 -0.45593999997E+02  0.45594000000E+02  0.51100000000E-03 0.  1.
    9900012    2    1    2    0    0 -0.18011231536E+02 -0.33732415683E+02  0.20526635182E+02  0.47787273265E+02  0.20000010124E+02 0.  0.
        -12    1    1    2    0    0  0.18011231536E+02  0.33732415683E+02 -0.20526635182E+02  0.43400726735E+02  0.00000000000E+00 0.  1.
         11    1    3    3    0    0 -0.90378451601E+01 -0.11722731682E+02  0.72808432820E+00  0.14820094139E+02  0.51100000000E-03 0. -1.
        -11    1    3    3    0    0  0.18148030841E+00 -0.13545948943E+02  0.12955493242E+02  0.18744878588E+02  0.51100000000E-03 0.  1.
        -12    1    3    3    0    0 -0.91548666839E+01 -0.84637350577E+01  0.68430576116E+01  0.14222300538E+02  0.00000000000E+00 0.  1.
</event>
<event>
 7    1 -0.2923647E-009  0.4778727E+02  0.7816164E-02  0.1312668E+00
        -11   -1    0    0    0    0  0.00000000000E+00  0.00000000000E+00  0.45593999997E+02  0.45594000000E+02  0.51100000000E-03 0.  1.
         11   -1    0    0    0    0 -0.00000000000E+00 -0.00000000000E+00 -0.45593999997E+02  0.45594000000E+02  0.51100000000E-03 0. -1.
    9900012    2    1    2    0    0  0.57925009134E+01  0.24528440503E+02 -0.35333071716E+02  0.47787269393E+02  0.19999992471E+02 0.  0.
        -12    1    1    2    0    0 -0.57925009134E+01 -0.24528440503E+02  0.35333071716E+02  0.43400730607E+02  0.00000000000E+00 0.  1.
         11    1    3    3    0    0 -0.14121599146E+01 -0.16011264870E+01  0.26249687675E+00  0.21509780387E+01  0.51100000000E-03 0. -1.
        -11    1    3    3    0    0  0.22285374064E+00  0.12650773284E+02 -0.11168325097E+02  0.16876706260E+02  0.51100000000E-03 0.  1.
         12    1    3    3    0    0  0.69818070874E+01  0.13478793706E+02 -0.24427243496E+02  0.28759585094E+02  0.00000000000E+00 0. -1.
</event>
<event>
 7    1  0.2642243E-009  0.4778728E+02  0.7816164E-02  0.1312668E+00
        -11   -1    0    0    0    0  0.00000000000E+00  0.00000000000E+00  0.45593999997E+02  0.45594000000E+02  0.51100000000E-03 0.  1.
         11   -1    0    0    0    0 -0.00000000000E+00 -0.00000000000E+00 -0.45593999997E+02  0.45594000000E+02  0.51100000000E-03 0. -1.
    9900012    2    1    2    0    0 -0.26009697660E+02 -0.78819848424E+01 -0.33837740899E+02  0.47787276888E+02  0.20000026645E+02 0.  0.
        -12    1    1    2    0    0  0.26009697660E+02  0.78819848424E+01  0.33837740899E+02  0.43400723112E+02  0.00000000000E+00 0.  1.
         11    1    3    3    0    0 -0.85015790535E+00 -0.21113620734E+01 -0.21526215302E+01  0.31327939578E+01  0.51100000000E-03 0. -1.
        -11    1    3    3    0    0 -0.17005575019E+01  0.49822157268E+01 -0.29582445956E+01  0.60386737546E+01  0.51100000000E-03 0.  1.
        -12    1    3    3    0    0 -0.23458982253E+02 -0.10752838496E+02 -0.28726874774E+02  0.38615809176E+02  0.00000000000E+00 0.  1.
</event>
<event>
 7    1  0.2642243E-009  0.4778727E+02  0.7816164E-02  0.1312668E+00
        -11   -1    0    0    0    0  0.00000000000E+00  0.00000000000E+00  0.45593999997E+02  0.45594000000E+02  0.51100000000E-03 0. -1.
         11   -1    0    0    0    0 -0.00000000000E+00 -0.00000000000E+00 -0.45593999997E+02  0.45594000000E+02  0.51100000000E-03 0.  1.
    9900012    2    1    2    0    0 -0.40371285676E+02 -0.43864345639E+01  0.15314757615E+02  0.47787270558E+02  0.19999997783E+02 0.  0.
        -12    1    1    2    0    0  0.40371285676E+02  0.43864345639E+01 -0.15314757615E+02  0.43400729442E+02  0.00000000000E+00 0.  1.
         11    1    3    3    0    0 -0.42384422048E+01  0.10003292323E+01  0.29786408103E+01  0.52761114691E+01  0.51100000000E-03 0. -1.
        -11    1    3    3    0    0 -0.13929681135E+02  0.65257550273E+01  0.61465841935E+01  0.16565083540E+02  0.51100000000E-03 0.  1.
        -12    1    3    3    0    0 -0.22203162336E+02 -0.11912518823E+02  0.61895326108E+01  0.25946075549E+02  0.00000000000E+00 0.  1.
</event>
<event>
 7    1  0.2642243E-009  0.4778727E+02  0.7816164E-02  0.1312668E+00
        -11   -1    0    0    0    0  0.00000000000E+00  0.00000000000E+00  0.45593999997E+02  0.45594000000E+02  0.51100000000E-03 0.  1.
         11   -1    0    0    0    0 -0.00000000000E+00 -0.00000000000E+00 -0.45593999997E+02  0.45594000000E+02  0.51100000000E-03 0. -1.
    9900012    2    1    2    0    0  0.17732662562E+02  0.20445127133E+02 -0.33928936199E+02  0.47787271243E+02  0.20000000905E+02 0.  0.
        -12    1    1    2    0    0 -0.17732662562E+02 -0.20445127133E+02  0.33928936199E+02  0.43400728757E+02  0.00000000000E+00 0.  1.
         11    1    3    3    0    0 -0.27268871841E+01 -0.16872576122E+00 -0.54464737295E+01  0.60933126003E+01  0.51100000000E-03 0. -1.
        -11    1    3    3    0    0  0.72074749431E+01  0.32412190403E+01 -0.39272754316E+01  0.88247769660E+01  0.51100000000E-03 0.  1.
         12    1    3    3    0    0  0.13252074803E+02  0.17372633854E+02 -0.24555187038E+02  0.32869181677E+02  0.00000000000E+00 0. -1.
</event>
<event>
 7    1  0.2642243E-009  0.4778727E+02  0.7816164E-02  0.1312668E+00
        -11   -1    0    0    0    0  0.00000000000E+00  0.00000000000E+00  0.45593999997E+02  0.45594000000E+02  0.51100000000E-03 0. -1.
         11   -1    0    0    0    0 -0.00000000000E+00 -0.00000000000E+00 -0.45593999997E+02  0.45594000000E+02  0.51100000000E-03 0.  1.
    9900012    2    1    2    0    0 -0.30360024560E+02  0.25054143989E+02  0.18280645308E+02  0.47787271721E+02  0.20000003083E+02 0.  0.
        -12    1    1    2    0    0  0.30360024560E+02 -0.25054143989E+02 -0.18280645308E+02  0.43400728279E+02  0.00000000000E+00 0.  1.
         11    1    3    3    0    0 -0.64767167580E+01  0.54085241766E+01  0.90303475960E+01  0.12359092673E+02  0.51100000000E-03 0. -1.
        -11    1    3    3    0    0 -0.16783294866E+02  0.11252857822E+02 -0.12245010798E+01  0.20243645889E+02  0.51100000000E-03 0.  1.
        -12    1    3    3    0    0 -0.71000129361E+01  0.83927619902E+01  0.10474798791E+02  0.15184533158E+02  0.00000000000E+00 0.  1.
</event>
<event>
 7    1  0.2642243E-009  0.4778727E+02  0.7816164E-02  0.1312668E+00
        -11   -1    0    0    0    0  0.00000000000E+00  0.00000000000E+00  0.45593999997E+02  0.45594000000E+02  0.51100000000E-03 0.  1.
         11   -1    0    0    0    0 -0.00000000000E+00 -0.00000000000E+00 -0.45593999997E+02  0.45594000000E+02  0.51100000000E-03 0. -1.
    9900012    2    1    2    0    0 -0.25447259344E+02 -0.27850677537E+02  0.21456936976E+02  0.47787269686E+02  0.19999993804E+02 0.  0.
        -12    1    1    2    0    0  0.25447259344E+02  0.27850677537E+02 -0.21456936976E+02  0.43400730314E+02  0.00000000000E+00 0.  1.
         11    1    3    3    0    0 -0.83854422008E+01 -0.22343417337E+02  0.11937756843E+02  0.26684339563E+02  0.51100000000E-03 0. -1.
        -11    1    3    3    0    0 -0.66188549919E+01 -0.50224042845E+01  0.51295160251E+01  0.97645133577E+01  0.51100000000E-03 0.  1.
         12    1    3    3    0    0 -0.10442962151E+02 -0.48485591587E+00  0.43896641082E+01  0.11338416765E+02  0.00000000000E+00 0. -1.
</event>
<event>
 7    1  0.2642243E-009  0.4778727E+02  0.7816164E-02  0.1312668E+00
        -11   -1    0    0    0    0  0.00000000000E+00  0.00000000000E+00  0.45593999997E+02  0.45594000000E+02  0.51100000000E-03 0.  1.
         11   -1    0    0    0    0 -0.00000000000E+00 -0.00000000000E+00 -0.45593999997E+02  0.45594000000E+02  0.51100000000E-03 0. -1.
    9900012    2    1    2    0    0 -0.22232650773E+01 -0.21843124606E+02 -0.37437395129E+02  0.47787267815E+02  0.19999985277E+02 0.  0.
        -12    1    1    2    0    0  0.22232650773E+01  0.21843124606E+02  0.37437395129E+02  0.43400732185E+02  0.00000000000E+00 0.  1.
         11    1    3    3    0    0 -0.73382619399E+01 -0.15334813429E+02 -0.17463488455E+02  0.24371705325E+02  0.51100000000E-03 0. -1.
        -11    1    3    3    0    0  0.84705734846E+00  0.22688445827E+01 -0.47515864393E+01  0.53331731496E+01  0.51100000000E-03 0.  1.
        -12    1    3    3    0    0  0.42679395142E+01 -0.87771557595E+01 -0.15222320235E+02  0.18082389340E+02  0.00000000000E+00 0.  1.
</event>
<event>
 7    1  0.2642243E-009  0.4778726E+02  0.7816164E-02  0.1312668E+00
        -11   -1    0    0    0    0  0.00000000000E+00  0.00000000000E+00  0.45593999997E+02  0.45594000000E+02  0.51100000000E-03 0.  1.
         11   -1    0    0    0    0 -0.00000000000E+00 -0.00000000000E+00 -0.45593999997E+02  0.45594000000E+02  0.51100000000E-03 0. -1.
    9900012    2    1    2    0    0  0.32531378585E+02  0.32950225473E+01 -0.28539029165E+02  0.47787263233E+02  0.19999964384E+02 0.  0.
        -12    1    1    2    0    0 -0.32531378585E+02 -0.32950225473E+01  0.28539029165E+02  0.43400736767E+02  0.00000000000E+00 0.  1.
         11    1    3    3    0    0  0.13701452917E+02  0.89231868628E+01 -0.62593052098E+01  0.17508054655E+02  0.51100000000E-03 0. -1.
        -11    1    3    3    0    0  0.40353587559E+01 -0.38900813107E+01 -0.58488504509E+01  0.81009817152E+01  0.51100000000E-03 0.  1.
         12    1    3    3    0    0  0.14794566913E+02 -0.17380830048E+01 -0.16430873505E+02  0.22178226863E+02  0.00000000000E+00 0. -1.
</event>
<event>
 7    1  0.2642243E-009  0.4778727E+02  0.7816164E-02  0.1312668E+00
        -11   -1    0    0    0    0  0.00000000000E+00  0.00000000000E+00  0.45593999997E+02  0.45594000000E+02  0.51100000000E-03 0. -1.
         11   -1    0    0    0    0 -0.00000000000E+00 -0.00000000000E+00 -0.45593999997E+02  0.45594000000E+02  0.51100000000E-03 0.  1.
    9900012    2    1    2    0    0 -0.27282851663E+02  0.75415826767E+01  0.32899755872E+02  0.47787269585E+02  0.19999993345E+02 0.  0.
        -12    1    1    2    0    0  0.27282851663E+02 -0.75415826767E+01 -0.32899755872E+02  0.43400730415E+02  0.00000000000E+00 0.  1.
         11    1    3    3    0    0 -0.14004351719E+02 -0.85336027333E+00  0.25084775079E+02  0.28741886365E+02  0.51100000000E-03 0. -1.
        -11    1    3    3    0    0 -0.36673109820E-01 -0.10106628705E+01 -0.21321770658E-01  0.10115528823E+01  0.51100000000E-03 0.  1.
         12    1    3    3    0    0 -0.13241826834E+02  0.94056058205E+01  0.78363025639E+01  0.18033830337E+02  0.00000000000E+00 0. -1.
</event>
<event>
 7    1  0.2642243E-009  0.4778727E+02  0.7816164E-02  0.1312668E+00
        -11   -1    0    0    0    0  0.00000000000E+00  0.00000000000E+00  0.45593999997E+02  0.45594000000E+02  0.51100000000E-03 0.  1.
         11   -1    0    0    0    0 -0.00000000000E+00 -0.00000000000E+00 -0.45593999997E+02  0.45594000000E+02  0.51100000000E-03 0. -1.
    9900012    2    1    2    0    0 -0.30948777437E+02 -0.83057855311E+01 -0.29271326212E+02  0.47787269172E+02  0.19999991464E+02 0.  0.
        -12    1    1    2    0    0  0.30948777437E+02  0.83057855311E+01  0.29271326212E+02  0.43400730828E+02  0.00000000000E+00 0.  1.
         11    1    3    3    0    0 -0.77647954968E+00  0.40615751239E+01 -0.34536187023E+01  0.53876521213E+01  0.51100000000E-03 0. -1.
        -11    1    3    3    0    0 -0.10479580619E+02 -0.81780646065E+01 -0.12596604692E+02  0.18313295735E+02  0.51100000000E-03 0.  1.
         12    1    3    3    0    0 -0.19692717269E+02 -0.41892960486E+01 -0.13221102818E+02  0.24086321316E+02  0.00000000000E+00 0. -1.
</event>
<event>
 7    1  0.2642243E-009  0.4778728E+02  0.7816164E-02  0.1312668E+00
        -11   -1    0    0    0    0  0.00000000000E+00  0.00000000000E+00  0.45593999997E+02  0.45594000000E+02  0.51100000000E-03 0. -1.
         11   -1    0    0    0    0 -0.00000000000E+00 -0.00000000000E+00 -0.45593999997E+02  0.45594000000E+02  0.51100000000E-03 0.  1.
    9900012    2    1    2    0    0  0.12681305518E+02  0.18652794029E+02  0.37079382241E+02  0.47787276249E+02  0.20000023732E+02 0.  0.
        -12    1    1    2    0    0 -0.12681305518E+02 -0.18652794029E+02 -0.37079382241E+02  0.43400723751E+02  0.00000000000E+00 0.  1.
         11    1    3    3    0    0  0.29236093838E+01  0.31179167170E+01  0.72811371434E+01  0.84429766579E+01  0.51100000000E-03 0. -1.
        -11    1    3    3    0    0  0.11254778642E+02  0.18883162493E+02  0.26279741172E+02  0.34261766801E+02  0.51100000000E-03 0.  1.
        -12    1    3    3    0    0 -0.14970825074E+01 -0.33482851817E+01  0.35185039254E+01  0.50825327904E+01  0.00000000000E+00 0.  1.
</event>
<event>
 7    1  0.2642243E-009  0.4778727E+02  0.7816164E-02  0.1312668E+00
        -11   -1    0    0    0    0  0.00000000000E+00  0.00000000000E+00  0.45593999997E+02  0.45594000000E+02  0.51100000000E-03 0.  1.
         11   -1    0    0    0    0 -0.00000000000E+00 -0.00000000000E+00 -0.45593999997E+02  0.45594000000E+02  0.51100000000E-03 0. -1.
    9900012    2    1    2    0    0 -0.92442455860E+01 -0.36057726532E+02 -0.22316082905E+02  0.47787271028E+02  0.19999999924E+02 0.  0.
        -12    1    1    2    0    0  0.92442455860E+01  0.36057726532E+02  0.22316082905E+02  0.43400728972E+02  0.00000000000E+00 0.  1.
         11    1    3    3    0    0 -0.39837983734E+00 -0.66304080895E+01 -0.32866553211E+01  0.74110135196E+01  0.51100000000E-03 0. -1.
        -11    1    3    3    0    0 -0.31310474140E+01 -0.14090301419E+01 -0.97125153352E+01  0.10301542518E+02  0.51100000000E-03 0.  1.
        -12    1    3    3    0    0 -0.57148183346E+01 -0.28018288301E+02 -0.93169122484E+01  0.30074714990E+02  0.00000000000E+00 0.  1.
</event>
<event>
 7    1  0.2642243E-009  0.4778725E+02  0.7816164E-02  0.1312668E+00
        -11   -1    0    0    0    0  0.00000000000E+00  0.00000000000E+00  0.45593999997E+02  0.45594000000E+02  0.51100000000E-03 0.  1.
         11   -1    0    0    0    0 -0.00000000000E+00 -0.00000000000E+00 -0.45593999997E+02  0.45594000000E+02  0.51100000000E-03 0. -1.
    9900012    2    1    2    0    0 -0.13387752823E+02 -0.55888209804E+01 -0.40904254657E+02  0.47787252372E+02  0.19999914867E+02 0.  0.
        -12    1    1    2    0    0  0.13387752823E+02  0.55888209804E+01  0.40904254657E+02  0.43400747628E+02  0.00000000000E+00 0.  1.
         11    1    3    3    0    0 -0.51631445162E+00 -0.10461219419E+01 -0.97858773131E+01  0.98551685312E+01  0.51100000000E-03 0. -1.
        -11    1    3    3    0    0 -0.13648999616E+02 -0.80179226498E+01 -0.30435569128E+02  0.34306065681E+02  0.51100000000E-03 0.  1.
        -12    1    3    3    0    0  0.77756124430E+00  0.34752236113E+01 -0.68280821607E+00  0.36260181601E+01  0.00000000000E+00 0.  1.
</event>
<event>
 7    1  0.2642243E-009  0.4778728E+02  0.7816164E-02  0.1312668E+00
        -11   -1    0    0    0    0  0.00000000000E+00  0.00000000000E+00  0.45593999997E+02  0.45594000000E+02  0.51100000000E-03 0.  1.
         11   -1    0    0    0    0 -0.00000000000E+00 -0.00000000000E+00 -0.45593999997E+02  0.45594000000E+02  0.51100000000E-03 0. -1.
    9900012    2    1    2    0    0 -0.28197961793E+02 -0.15967242510E+02 -0.28871179085E+02  0.47787275761E+02  0.20000021506E+02 0.  0.
        -12    1    1    2    0    0  0.28197961793E+02  0.15967242510E+02  0.28871179085E+02  0.43400724239E+02  0.00000000000E+00 0.  1.
         11    1    3    3    0    0 -0.10525784244E+02  0.22789415830E+01 -0.12217611847E+02  0.16286673945E+02  0.51100000000E-03 0. -1.
        -11    1    3    3    0    0 -0.51999821986E+01 -0.10697327920E+02 -0.97018343677E+01  0.15349209421E+02  0.51100000000E-03 0.  1.
         12    1    3    3    0    0 -0.12472195351E+02 -0.75488561729E+01 -0.69517328705E+01  0.16151392395E+02  0.00000000000E+00 0. -1.
</event>
<event>
 7    1  0.2642243E-009  0.4778727E+02  0.7816164E-02  0.1312668E+00
        -11   -1    0    0    0    0  0.00000000000E+00  0.00000000000E+00  0.45593999997E+02  0.45594000000E+02  0.51100000000E-03 0.  1.
         11   -1    0    0    0    0 -0.00000000000E+00 -0.00000000000E+00 -0.45593999997E+02  0.45594000000E+02  0.51100000000E-03 0. -1.
    9900012    2    1    2    0    0 -0.18970395193E+02  0.25894043128E+01 -0.38949229649E+02  0.47787269606E+02  0.19999993443E+02 0.  0.
        -12    1    1    2    0    0  0.18970395193E+02 -0.25894043128E+01  0.38949229649E+02  0.43400730394E+02  0.00000000000E+00 0.  1.
         11    1    3    3    0    0 -0.29802088823E+01 -0.37449244433E+01 -0.40544067756E+01  0.62725049726E+01  0.51100000000E-03 0. -1.
        -11    1    3    3    0    0 -0.16917420125E+02  0.53890910749E+01 -0.35765470729E+02  0.39930067656E+02  0.51100000000E-03 0.  1.
        -12    1    3    3    0    0  0.92723381521E+00  0.94523768112E+00  0.87064785556E+00  0.15846969774E+01  0.00000000000E+00 0.  1.
</event>
<event>
 7    1  0.2642243E-009  0.4778727E+02  0.7816164E-02  0.1312668E+00
        -11   -1    0    0    0    0  0.00000000000E+00  0.00000000000E+00  0.45593999997E+02  0.45594000000E+02  0.51100000000E-03 0.  1.
         11   -1    0    0    0    0 -0.00000000000E+00 -0.00000000000E+00 -0.45593999997E+02  0.45594000000E+02  0.51100000000E-03 0. -1.
    9900012    2    1    2    0    0  0.81853081757E+01  0.18531840954E+02 -0.38382221839E+02  0.47787270140E+02  0.19999995878E+02 0.  0.
        -12    1    1    2    0    0 -0.81853081757E+01 -0.18531840954E+02  0.38382221839E+02  0.43400729860E+02  0.00000000000E+00 0.  1.
         11    1    3    3    0    0  0.97716635562E+01  0.18945100156E+02 -0.25659978564E+02  0.33359207556E+02  0.51100000000E-03 0. -1.
        -11    1    3    3    0    0 -0.15358911460E+01  0.10226929958E+01 -0.12853470172E+02  0.12985243867E+02  0.51100000000E-03 0.  1.
        -12    1    3    3    0    0 -0.50464234430E-01 -0.14359521979E+01  0.13122689693E+00  0.14428187177E+01  0.00000000000E+00 0.  1.
</event>
<event>
 7    1  0.2642243E-009  0.4778730E+02  0.7816164E-02  0.1312668E+00
        -11   -1    0    0    0    0  0.00000000000E+00  0.00000000000E+00  0.45593999997E+02  0.45594000000E+02  0.51100000000E-03 0.  1.
         11   -1    0    0    0    0 -0.00000000000E+00 -0.00000000000E+00 -0.45593999997E+02  0.45594000000E+02  0.51100000000E-03 0. -1.
    9900012    2    1    2    0    0  0.36301883427E+01 -0.82084949273E+01 -0.42462489609E+02  0.47787300925E+02  0.20000136237E+02 0.  0.
        -12    1    1    2    0    0 -0.36301883427E+01  0.82084949273E+01  0.42462489609E+02  0.43400699075E+02  0.00000000000E+00 0.  1.
         11    1    3    3    0    0  0.82359336349E+01 -0.65522520039E+01 -0.31982876317E+02  0.33669971591E+02  0.51100000000E-03 0.  1.
        -11    1    3    3    0    0 -0.40120486841E+01 -0.40299304410E+01 -0.33968896116E+01  0.66238760026E+01  0.51100000000E-03 0. -1.
         12    1    3    3    0    0 -0.59369660798E+00  0.23736875176E+01 -0.70827236810E+01  0.74934533317E+01  0.00000000000E+00 0. -1.
</event>
<event>
 7    1  0.2642243E-009  0.4778727E+02  0.7816164E-02  0.1312668E+00
        -11   -1    0    0    0    0  0.00000000000E+00  0.00000000000E+00  0.45593999997E+02  0.45594000000E+02  0.51100000000E-03 0. -1.
         11   -1    0    0    0    0 -0.00000000000E+00 -0.00000000000E+00 -0.45593999997E+02  0.45594000000E+02  0.51100000000E-03 0.  1.
    9900012    2    1    2    0    0 -0.26873401188E+02 -0.17400367156E+02 -0.29303083528E+02  0.47787272209E+02  0.20000005308E+02 0.  0.
        -12    1    1    2    0    0  0.26873401188E+02  0.17400367156E+02  0.29303083528E+02  0.43400727791E+02  0.00000000000E+00 0.  1.
         11    1    3    3    0    0 -0.11816624321E+02 -0.84115625210E+01 -0.68307555895E+01  0.16032660932E+02  0.51100000000E-03 0. -1.
        -11    1    3    3    0    0 -0.15994644176E+02 -0.39402039543E+01 -0.20391942978E+02  0.26214217291E+02  0.51100000000E-03 0.  1.
        -12    1    3    3    0    0  0.93786730981E+00 -0.50486006803E+01 -0.20803849611E+01  0.55403939848E+01  0.00000000000E+00 0.  1.
</event>
<event>
 7    1  0.2642243E-009  0.4778727E+02  0.7816164E-02  0.1312668E+00
        -11   -1    0    0    0    0  0.00000000000E+00  0.00000000000E+00  0.45593999997E+02  0.45594000000E+02  0.51100000000E-03 0. -1.
         11   -1    0    0    0    0 -0.00000000000E+00 -0.00000000000E+00 -0.45593999997E+02  0.45594000000E+02  0.51100000000E-03 0.  1.
    9900012    2    1    2    0    0 -0.15898507154E+02 -0.39920874589E+02  0.60978915895E+01  0.47787273745E+02  0.20000012312E+02 0.  0.
        -12    1    1    2    0    0  0.15898507154E+02  0.39920874589E+02 -0.60978915895E+01  0.43400726255E+02  0.00000000000E+00 0.  1.
         11    1    3    3    0    0 -0.37098101601E+01 -0.14012970021E+02  0.89038495223E+01  0.17011894568E+02  0.51100000000E-03 0. -1.
        -11    1    3    3    0    0 -0.97157308571E+01 -0.90862457527E+01 -0.35120432287E+01  0.13758260641E+02  0.51100000000E-03 0.  1.
        -12    1    3    3    0    0 -0.24729661366E+01 -0.16821658815E+02  0.70608529591E+00  0.17017118535E+02  0.00000000000E+00 0.  1.
</event>
<event>
 7    1  0.2642243E-009  0.4778724E+02  0.7816164E-02  0.1312668E+00
        -11   -1    0    0    0    0  0.00000000000E+00  0.00000000000E+00  0.45593999997E+02  0.45594000000E+02  0.51100000000E-03 0. -1.
         11   -1    0    0    0    0 -0.00000000000E+00 -0.00000000000E+00 -0.45593999997E+02  0.45594000000E+02  0.51100000000E-03 0.  1.
    9900012    2    1    2    0    0  0.32945887721E+02 -0.28252321832E+02 -0.29741779711E-01  0.47787238587E+02  0.19999852014E+02 0.  0.
        -12    1    1    2    0    0 -0.32945887721E+02  0.28252321832E+02  0.29741779711E-01  0.43400761413E+02  0.00000000000E+00 0.  1.
         11    1    3    3    0    0  0.51835440570E+01 -0.13774211603E+02 -0.82855299554E+00  0.14740574433E+02  0.51100000000E-03 0. -1.
        -11    1    3    3    0    0  0.18989705882E+02 -0.69075932094E+01  0.48329490405E+01  0.20776938420E+02  0.51100000000E-03 0.  1.
        -12    1    3    3    0    0  0.87726377825E+01 -0.75705170192E+01 -0.40341378247E+01  0.12269725734E+02  0.00000000000E+00 0.  1.
</event>
<event>
 7    1  0.2642243E-009  0.4778727E+02  0.7816164E-02  0.1312668E+00
        -11   -1    0    0    0    0  0.00000000000E+00  0.00000000000E+00  0.45593999997E+02  0.45594000000E+02  0.51100000000E-03 0. -1.
         11   -1    0    0    0    0 -0.00000000000E+00 -0.00000000000E+00 -0.45593999997E+02  0.45594000000E+02  0.51100000000E-03 0.  1.
    9900012    2    1    2    0    0 -0.43188280028E+02 -0.24367766449E+01  0.35295670136E+01  0.47787271256E+02  0.20000000965E+02 0.  0.
        -12    1    1    2    0    0  0.43188280028E+02  0.24367766449E+01 -0.35295670136E+01  0.43400728744E+02  0.00000000000E+00 0.  1.
         11    1    3    3    0    0 -0.25759793632E+01  0.28570126685E+01 -0.32356139371E+01  0.50266677709E+01  0.51100000000E-03 0.  1.
        -11    1    3    3    0    0 -0.39168286156E+02 -0.32834672866E+01  0.78097412267E+01  0.40074029696E+02  0.51100000000E-03 0. -1.
         12    1    3    3    0    0 -0.14440145090E+01 -0.20103220269E+01 -0.10445602761E+01  0.26865737891E+01  0.00000000000E+00 0. -1.
</event>
<event>
 7    1  0.2642243E-009  0.4778727E+02  0.7816164E-02  0.1312668E+00
        -11   -1    0    0    0    0  0.00000000000E+00  0.00000000000E+00  0.45593999997E+02  0.45594000000E+02  0.51100000000E-03 0. -1.
         11   -1    0    0    0    0 -0.00000000000E+00 -0.00000000000E+00 -0.45593999997E+02  0.45594000000E+02  0.51100000000E-03 0.  1.
    9900012    2    1    2    0    0  0.40782800401E+02  0.87462596402E+01  0.11995393944E+02  0.47787270258E+02  0.19999996416E+02 0.  0.
        -12    1    1    2    0    0 -0.40782800401E+02 -0.87462596402E+01 -0.11995393944E+02  0.43400729742E+02  0.00000000000E+00 0.  1.
         11    1    3    3    0    0  0.23683978497E+02 -0.31683685955E+01  0.19769687669E+01  0.23976609493E+02  0.51100000000E-03 0. -1.
        -11    1    3    3    0    0  0.10805817063E+02  0.91082710918E+01  0.40673456724E+01  0.14706107090E+02  0.51100000000E-03 0.  1.
        -12    1    3    3    0    0  0.62930048411E+01  0.28063571438E+01  0.59510795049E+01  0.91045536751E+01  0.00000000000E+00 0.  1.
</event>
<event>
 7    1  0.2642243E-009  0.4778727E+02  0.7816164E-02  0.1312668E+00
        -11   -1    0    0    0    0  0.00000000000E+00  0.00000000000E+00  0.45593999997E+02  0.45594000000E+02  0.51100000000E-03 0. -1.
         11   -1    0    0    0    0 -0.00000000000E+00 -0.00000000000E+00 -0.45593999997E+02  0.45594000000E+02  0.51100000000E-03 0.  1.
    9900012    2    1    2    0    0  0.10226432333E+01  0.30139323628E+02  0.31212154065E+02  0.47787272018E+02  0.20000004440E+02 0.  0.
        -12    1    1    2    0    0 -0.10226432333E+01 -0.30139323628E+02 -0.31212154065E+02  0.43400727982E+02  0.00000000000E+00 0.  1.
         11    1    3    3    0    0 -0.84977101127E+01  0.17131357549E+02  0.18738985740E+02  0.26773943965E+02  0.51100000000E-03 0. -1.
        -11    1    3    3    0    0  0.59466635884E+01  0.10625672101E+02  0.11173132217E+02  0.16525937167E+02  0.51100000000E-03 0.  1.
         12    1    3    3    0    0  0.35736897576E+01  0.23822939784E+01  0.13000361081E+01  0.44873908862E+01  0.00000000000E+00 0. -1.
</event>
<event>
 7    1  0.2642243E-009  0.4778727E+02  0.7816164E-02  0.1312668E+00
        -11   -1    0    0    0    0  0.00000000000E+00  0.00000000000E+00  0.45593999997E+02  0.45594000000E+02  0.51100000000E-03 0. -1.
         11   -1    0    0    0    0 -0.00000000000E+00 -0.00000000000E+00 -0.45593999997E+02  0.45594000000E+02  0.51100000000E-03 0.  1.
    9900012    2    1    2    0    0 -0.35952492073E+01  0.38786562098E+02  0.19138961763E+02  0.47787273351E+02  0.20000010518E+02 0.  0.
        -12    1    1    2    0    0  0.35952492073E+01 -0.38786562098E+02 -0.19138961763E+02  0.43400726649E+02  0.00000000000E+00 0.  1.
         11    1    3    3    0    0  0.17631511385E+01  0.11562942104E+01 -0.12337066375E+01  0.24428979854E+01  0.51100000000E-03 0.  1.
        -11    1    3    3    0    0 -0.91716442388E+01  0.21067300838E+02  0.80324507019E+01  0.24340716653E+02  0.51100000000E-03 0. -1.
        -12    1    3    3    0    0  0.38132438929E+01  0.16562967050E+02  0.12340217699E+02  0.21003658713E+02  0.00000000000E+00 0.  1.
</event>
<event>
 7    1  0.2642243E-009  0.4778727E+02  0.7816164E-02  0.1312668E+00
        -11   -1    0    0    0    0  0.00000000000E+00  0.00000000000E+00  0.45593999997E+02  0.45594000000E+02  0.51100000000E-03 0.  1.
         11   -1    0    0    0    0 -0.00000000000E+00 -0.00000000000E+00 -0.45593999997E+02  0.45594000000E+02  0.51100000000E-03 0. -1.
    9900012    2    1    2    0    0  0.35047838568E+01 -0.27476679486E+02 -0.33412148227E+02  0.47787273340E+02  0.20000010467E+02 0.  0.
        -12    1    1    2    0    0 -0.35047838568E+01  0.27476679486E+02  0.33412148227E+02  0.43400726660E+02  0.00000000000E+00 0.  1.
         11    1    3    3    0    0  0.11301724032E+02 -0.13946251797E+02 -0.17145693785E+02  0.24823410743E+02  0.51100000000E-03 0. -1.
        -11    1    3    3    0    0 -0.70809081624E+01 -0.96129639508E+01 -0.10178985097E+02  0.15689489290E+02  0.51100000000E-03 0.  1.
         12    1    3    3    0    0 -0.71603201233E+00 -0.39174637386E+01 -0.60874693450E+01  0.72743733072E+01  0.00000000000E+00 0. -1.
</event>
<event>
 7    1  0.3189296E-009  0.4778729E+02  0.7816164E-02  0.1312668E+00
        -11   -1    0    0    0    0  0.00000000000E+00  0.00000000000E+00  0.45593999997E+02  0.45594000000E+02  0.51100000000E-03 0.  1.
         11   -1    0    0    0    0 -0.00000000000E+00 -0.00000000000E+00 -0.45593999997E+02  0.45594000000E+02  0.51100000000E-03 0. -1.
    9900012    2    1    2    0    0 -0.41757441635E+02 -0.81244716205E+01 -0.85982843513E+01  0.47787291886E+02  0.20000095023E+02 0.  0.
        -12    1    1    2    0    0  0.41757441635E+02  0.81244716205E+01  0.85982843513E+01  0.43400708114E+02  0.00000000000E+00 0.  1.
         11    1    3    3    0    0 -0.12609255006E+02 -0.26475010904E+01 -0.16056806053E+01  0.12983866307E+02  0.51100000000E-03 0. -1.
        -11    1    3    3    0    0 -0.25317211369E+02 -0.10754048340E+02 -0.64979582224E+01  0.28263655257E+02  0.51100000000E-03 0.  1.
        -12    1    3    3    0    0 -0.38309752610E+01  0.52770778094E+01 -0.49464552362E+00  0.65397703210E+01  0.00000000000E+00 0.  1.
</event>
<event>
 7    1  0.2642243E-009  0.4778727E+02  0.7816164E-02  0.1312668E+00
        -11   -1    0    0    0    0  0.00000000000E+00  0.00000000000E+00  0.45593999997E+02  0.45594000000E+02  0.51100000000E-03 0.  1.
         11   -1    0    0    0    0 -0.00000000000E+00 -0.00000000000E+00 -0.45593999997E+02  0.45594000000E+02  0.51100000000E-03 0. -1.
    9900012    2    1    2    0    0  0.21736416779E+02 -0.27404048821E+02 -0.25693772579E+02  0.47787266648E+02  0.19999979953E+02 0.  0.
        -12    1    1    2    0    0 -0.21736416779E+02  0.27404048821E+02  0.25693772579E+02  0.43400733352E+02  0.00000000000E+00 0.  1.
         11    1    3    3    0    0  0.80757178683E+01 -0.68408786522E+01 -0.58501982078E+01  0.12092959074E+02  0.51100000000E-03 0. -1.
        -11    1    3    3    0    0  0.39762595032E+01 -0.16633474900E+02 -0.18438731670E+02  0.25148955301E+02  0.51100000000E-03 0.  1.
        -12    1    3    3    0    0  0.96844394077E+01 -0.39296952686E+01 -0.14048427015E+01  0.10545352273E+02  0.00000000000E+00 0.  1.
</event>
<event>
 7    1  0.2642243E-009  0.4778727E+02  0.7816164E-02  0.1312668E+00
        -11   -1    0    0    0    0  0.00000000000E+00  0.00000000000E+00  0.45593999997E+02  0.45594000000E+02  0.51100000000E-03 0.  1.
         11   -1    0    0    0    0 -0.00000000000E+00 -0.00000000000E+00 -0.45593999997E+02  0.45594000000E+02  0.51100000000E-03 0. -1.
    9900012    2    1    2    0    0 -0.80372955612E+01 -0.25101614892E+02 -0.34480926693E+02  0.47787268489E+02  0.19999988347E+02 0.  0.
        -12    1    1    2    0    0  0.80372955612E+01  0.25101614892E+02  0.34480926693E+02  0.43400731511E+02  0.00000000000E+00 0.  1.
         11    1    3    3    0    0 -0.49850573329E+01 -0.77765865056E+01 -0.13975351699E+02  0.16752210292E+02  0.51100000000E-03 0. -1.
        -11    1    3    3    0    0 -0.15381563411E+00  0.16760837181E+01 -0.78347043539E+01  0.80134579585E+01  0.51100000000E-03 0.  1.
        -12    1    3    3    0    0 -0.28984225942E+01 -0.19001112104E+02 -0.12670870640E+02  0.23021600238E+02  0.00000000000E+00 0.  1.
</event>
<event>
 7    1  0.2642243E-009  0.4778729E+02  0.7816164E-02  0.1312668E+00
        -11   -1    0    0    0    0  0.00000000000E+00  0.00000000000E+00  0.45593999997E+02  0.45594000000E+02  0.51100000000E-03 0.  1.
         11   -1    0    0    0    0 -0.00000000000E+00 -0.00000000000E+00 -0.45593999997E+02  0.45594000000E+02  0.51100000000E-03 0. -1.
    9900012    2    1    2    0    0 -0.32863095275E+02 -0.15600144835E+02 -0.23670117626E+02  0.47787285508E+02  0.20000065947E+02 0.  0.
        -12    1    1    2    0    0  0.32863095275E+02  0.15600144835E+02  0.23670117626E+02  0.43400714492E+02  0.00000000000E+00 0.  1.
         11    1    3    3    0    0 -0.20323724058E+02 -0.78059667811E+01 -0.12921072274E+02  0.25316812318E+02  0.51100000000E-03 0. -1.
        -11    1    3    3    0    0  0.14170015626E+01 -0.15654872044E+01 -0.61619630963E+01  0.65137111601E+01  0.51100000000E-03 0.  1.
        -12    1    3    3    0    0 -0.13956372780E+02 -0.62286908495E+01 -0.45870822559E+01  0.15956762030E+02  0.00000000000E+00 0.  1.
</event>
<event>
 7    1  0.2642243E-009  0.4778727E+02  0.7816164E-02  0.1312668E+00
        -11   -1    0    0    0    0  0.00000000000E+00  0.00000000000E+00  0.45593999997E+02  0.45594000000E+02  0.51100000000E-03 0.  1.
         11   -1    0    0    0    0 -0.00000000000E+00 -0.00000000000E+00 -0.45593999997E+02  0.45594000000E+02  0.51100000000E-03 0. -1.
    9900012    2    1    2    0    0 -0.16638500237E+02 -0.36366630010E+02  0.16859764094E+02  0.47787272890E+02  0.20000008413E+02 0.  0.
        -12    1    1    2    0    0  0.16638500237E+02  0.36366630010E+02 -0.16859764094E+02  0.43400727110E+02  0.00000000000E+00 0.  1.
         11    1    3    3    0    0 -0.36503835326E+01 -0.14297664528E+02  0.11993835158E+02  0.19015798509E+02  0.51100000000E-03 0. -1.
        -11    1    3    3    0    0 -0.93861960902E+01 -0.20783869408E+02  0.28867844405E+00  0.22806868266E+02  0.51100000000E-03 0.  1.
        -12    1    3    3    0    0 -0.36019206140E+01 -0.12850960737E+01  0.45772504923E+01  0.59646061142E+01  0.00000000000E+00 0.  1.
</event>
<event>
 7    1  0.2642243E-009  0.4778727E+02  0.7816164E-02  0.1312668E+00
        -11   -1    0    0    0    0  0.00000000000E+00  0.00000000000E+00  0.45593999997E+02  0.45594000000E+02  0.51100000000E-03 0.  1.
         11   -1    0    0    0    0 -0.00000000000E+00 -0.00000000000E+00 -0.45593999997E+02  0.45594000000E+02  0.51100000000E-03 0. -1.
    9900012    2    1    2    0    0 -0.40255371314E+02  0.77414565611E+01 -0.14254759217E+02  0.47787271554E+02  0.20000002325E+02 0.  0.
        -12    1    1    2    0    0  0.40255371314E+02 -0.77414565611E+01  0.14254759217E+02  0.43400728446E+02  0.00000000000E+00 0.  1.
         11    1    3    3    0    0 -0.29698259391E+02  0.10502233258E+02 -0.12671156228E+02  0.33953522862E+02  0.51100000000E-03 0. -1.
        -11    1    3    3    0    0 -0.91787258384E+01 -0.53914972426E+01 -0.44924196924E+00  0.10654532798E+02  0.51100000000E-03 0.  1.
        -12    1    3    3    0    0 -0.13783860837E+01  0.26307205452E+01 -0.11343610200E+01  0.31792158949E+01  0.00000000000E+00 0.  1.
</event>
<event>
 7    1  0.2642243E-009  0.4778727E+02  0.7816164E-02  0.1312668E+00
        -11   -1    0    0    0    0  0.00000000000E+00  0.00000000000E+00  0.45593999997E+02  0.45594000000E+02  0.51100000000E-03 0.  1.
         11   -1    0    0    0    0 -0.00000000000E+00 -0.00000000000E+00 -0.45593999997E+02  0.45594000000E+02  0.51100000000E-03 0. -1.
    9900012    2    1    2    0    0  0.16223930847E+02  0.11227789336E+02 -0.38656747549E+02  0.47787270552E+02  0.19999997756E+02 0.  0.
        -12    1    1    2    0    0 -0.16223930847E+02 -0.11227789336E+02  0.38656747549E+02  0.43400729448E+02  0.00000000000E+00 0.  1.
         11    1    3    3    0    0  0.13751057816E+02  0.19240848922E+01 -0.19594740273E+02  0.24015568708E+02  0.51100000000E-03 0. -1.
        -11    1    3    3    0    0  0.31005706461E+00  0.33173935060E+01  0.34299885202E+00  0.33494601849E+01  0.51100000000E-03 0.  1.
         12    1    3    3    0    0  0.21628159664E+01  0.59863109373E+01 -0.19405006129E+02  0.20422241659E+02  0.00000000000E+00 0. -1.
</event>
<event>
 7    1  0.2642243E-009  0.4778726E+02  0.7816164E-02  0.1312668E+00
        -11   -1    0    0    0    0  0.00000000000E+00  0.00000000000E+00  0.45593999997E+02  0.45594000000E+02  0.51100000000E-03 0. -1.
         11   -1    0    0    0    0 -0.00000000000E+00 -0.00000000000E+00 -0.45593999997E+02  0.45594000000E+02  0.51100000000E-03 0.  1.
    9900012    2    1    2    0    0 -0.43261577648E+02 -0.24720949402E+01  0.24390240895E+01  0.47787260462E+02  0.19999951748E+02 0.  0.
        -12    1    1    2    0    0  0.43261577648E+02  0.24720949402E+01 -0.24390240895E+01  0.43400739538E+02  0.00000000000E+00 0.  1.
         11    1    3    3    0    0 -0.10687882892E+02 -0.79051252809E+01 -0.31148102542E+01  0.13653713399E+02  0.51100000000E-03 0. -1.
        -11    1    3    3    0    0 -0.16645900822E+02  0.15066624493E+01  0.59015895629E+01  0.17725258969E+02  0.51100000000E-03 0.  1.
         12    1    3    3    0    0 -0.15927793935E+02  0.39263678915E+01 -0.34775521918E+00  0.16408288093E+02  0.00000000000E+00 0. -1.
</event>
<event>
 7    1  0.2642243E-009  0.4778727E+02  0.7816164E-02  0.1312668E+00
        -11   -1    0    0    0    0  0.00000000000E+00  0.00000000000E+00  0.45593999997E+02  0.45594000000E+02  0.51100000000E-03 0. -1.
         11   -1    0    0    0    0 -0.00000000000E+00 -0.00000000000E+00 -0.45593999997E+02  0.45594000000E+02  0.51100000000E-03 0.  1.
    9900012    2    1    2    0    0 -0.23133392374E+02 -0.36214440158E+00  0.36719727316E+02  0.47787269989E+02  0.19999995187E+02 0.  0.
        -12    1    1    2    0    0  0.23133392374E+02  0.36214440158E+00 -0.36719727316E+02  0.43400730011E+02  0.00000000000E+00 0.  1.
         11    1    3    3    0    0 -0.83351782236E+01 -0.50688687703E+00  0.19293274600E+02  0.21022905969E+02  0.51100000000E-03 0. -1.
        -11    1    3    3    0    0 -0.58003495645E+01  0.67068699202E+01  0.54399610453E+01  0.10402852284E+02  0.51100000000E-03 0.  1.
        -12    1    3    3    0    0 -0.89978645863E+01 -0.65621274448E+01  0.11986491671E+02  0.16361511736E+02  0.00000000000E+00 0.  1.
</event>
<event>
 7    1  0.2642243E-009  0.4778727E+02  0.7816164E-02  0.1312668E+00
        -11   -1    0    0    0    0  0.00000000000E+00  0.00000000000E+00  0.45593999997E+02  0.45594000000E+02  0.51100000000E-03 0.  1.
         11   -1    0    0    0    0 -0.00000000000E+00 -0.00000000000E+00 -0.45593999997E+02  0.45594000000E+02  0.51100000000E-03 0. -1.
    9900012    2    1    2    0    0 -0.19396701112E+02  0.34191104412E+02 -0.18394550611E+02  0.47787272735E+02  0.20000007708E+02 0.  0.
        -12    1    1    2    0    0  0.19396701112E+02 -0.34191104412E+02  0.18394550611E+02  0.43400727265E+02  0.00000000000E+00 0.  1.
         11    1    3    3    0    0 -0.59579919031E+01  0.14521054836E+02  0.22937341563E+01  0.15862531882E+02  0.51100000000E-03 0.  1.
        -11    1    3    3    0    0 -0.23714878566E+01  0.40285855857E+01 -0.68338004820E+01  0.82797515521E+01  0.51100000000E-03 0. -1.
         12    1    3    3    0    0 -0.11067221353E+02  0.15641463990E+02 -0.13854484286E+02  0.23644989301E+02  0.00000000000E+00 0. -1.
</event>
<event>
 7    1  0.2642243E-009  0.4778727E+02  0.7816164E-02  0.1312668E+00
        -11   -1    0    0    0    0  0.00000000000E+00  0.00000000000E+00  0.45593999997E+02  0.45594000000E+02  0.51100000000E-03 0. -1.
         11   -1    0    0    0    0 -0.00000000000E+00 -0.00000000000E+00 -0.45593999997E+02  0.45594000000E+02  0.51100000000E-03 0.  1.
    9900012    2    1    2    0    0 -0.26175539194E+02  0.22509549149E+02  0.26301801609E+02  0.47787269328E+02  0.19999992174E+02 0.  0.
        -12    1    1    2    0    0  0.26175539194E+02 -0.22509549149E+02 -0.26301801609E+02  0.43400730672E+02  0.00000000000E+00 0.  1.
         11    1    3    3    0    0  0.25057616246E+00  0.72468608228E+01  0.23106411977E+01  0.76104430360E+01  0.51100000000E-03 0.  1.
        -11    1    3    3    0    0 -0.37637789182E+01  0.48973726775E+01  0.97341617876E+00  0.62528257777E+01  0.51100000000E-03 0. -1.
         12    1    3    3    0    0 -0.22662336438E+02  0.10365315649E+02  0.23017744233E+02  0.33924000514E+02  0.00000000000E+00 0. -1.
</event>
<event>
 7    1  0.2642243E-009  0.4778727E+02  0.7816164E-02  0.1312668E+00
        -11   -1    0    0    0    0  0.00000000000E+00  0.00000000000E+00  0.45593999997E+02  0.45594000000E+02  0.51100000000E-03 0.  1.
         11   -1    0    0    0    0 -0.00000000000E+00 -0.00000000000E+00 -0.45593999997E+02  0.45594000000E+02  0.51100000000E-03 0. -1.
    9900012    2    1    2    0    0  0.25098364840E+02  0.11355940412E+02 -0.33537112674E+02  0.47787271587E+02  0.20000002473E+02 0.  0.
        -12    1    1    2    0    0 -0.25098364840E+02 -0.11355940412E+02  0.33537112674E+02  0.43400728413E+02  0.00000000000E+00 0.  1.
         11    1    3    3    0    0  0.18484066394E+02  0.48854624069E+01 -0.29908240567E+02  0.35496919690E+02  0.51100000000E-03 0. -1.
        -11    1    3    3    0    0  0.66344216383E+01  0.76063038810E+01 -0.42999762566E+01  0.10970925452E+02  0.51100000000E-03 0.  1.
         12    1    3    3    0    0 -0.20123191334E-01 -0.11358258759E+01  0.67110415031E+00  0.13194264450E+01  0.00000000000E+00 0. -1.
</event>
<event>
 7    1  0.2642243E-009  0.4778727E+02  0.7816164E-02  0.1312668E+00
        -11   -1    0    0    0    0  0.00000000000E+00  0.00000000000E+00  0.45593999997E+02  0.45594000000E+02  0.51100000000E-03 0. -1.
         11   -1    0    0    0    0 -0.00000000000E+00 -0.00000000000E+00 -0.45593999997E+02  0.45594000000E+02  0.51100000000E-03 0.  1.
    9900012    2    1    2    0    0 -0.12252243561E+02 -0.40777250721E+02  0.84096106112E+01  0.47787271903E+02  0.20000003916E+02 0.  0.
        -12    1    1    2    0    0  0.12252243561E+02  0.40777250721E+02 -0.84096106112E+01  0.43400728097E+02  0.00000000000E+00 0.  1.
         11    1    3    3    0    0  0.24126994658E+00 -0.39080660963E+01 -0.90221843182E+00  0.40181077835E+01  0.51100000000E-03 0. -1.
        -11    1    3    3    0    0  0.68142533504E+00  0.17917125436E+01  0.57164889856E+00  0.20003392338E+01  0.51100000000E-03 0.  1.
        -12    1    3    3    0    0 -0.13174938843E+02 -0.38660897169E+02  0.87401801444E+01  0.41768824886E+02  0.00000000000E+00 0.  1.
</event>
<event>
 7    1  0.2642243E-009  0.4778728E+02  0.7816164E-02  0.1312668E+00
        -11   -1    0    0    0    0  0.00000000000E+00  0.00000000000E+00  0.45593999997E+02  0.45594000000E+02  0.51100000000E-03 0. -1.
         11   -1    0    0    0    0 -0.00000000000E+00 -0.00000000000E+00 -0.45593999997E+02  0.45594000000E+02  0.51100000000E-03 0.  1.
    9900012    2    1    2    0    0 -0.70879669094E+01 -0.41396254228E+02  0.10942292367E+02  0.47787275337E+02  0.20000019570E+02 0.  0.
        -12    1    1    2    0    0  0.70879669094E+01  0.41396254228E+02 -0.10942292367E+02  0.43400724663E+02  0.00000000000E+00 0.  1.
         11    1    3    3    0    0 -0.10618815914E+02 -0.13188381336E+02  0.50620946919E+01  0.17672505669E+02  0.51100000000E-03 0. -1.
        -11    1    3    3    0    0  0.43156208129E+01 -0.76873773520E+01  0.24161507808E+00  0.88192251168E+01  0.51100000000E-03 0.  1.
         12    1    3    3    0    0 -0.78477180804E+00 -0.20520495540E+02  0.56385825973E+01  0.21295544551E+02  0.00000000000E+00 0. -1.
</event>
<event>
 7    1  0.2642243E-009  0.4778728E+02  0.7816164E-02  0.1312668E+00
        -11   -1    0    0    0    0  0.00000000000E+00  0.00000000000E+00  0.45593999997E+02  0.45594000000E+02  0.51100000000E-03 0.  1.
         11   -1    0    0    0    0 -0.00000000000E+00 -0.00000000000E+00 -0.45593999997E+02  0.45594000000E+02  0.51100000000E-03 0. -1.
    9900012    2    1    2    0    0  0.37596241316E+02 -0.87886966997E+01 -0.19821815279E+02  0.47787275216E+02  0.20000019020E+02 0.  0.
        -12    1    1    2    0    0 -0.37596241316E+02  0.87886966997E+01  0.19821815279E+02  0.43400724784E+02  0.00000000000E+00 0.  1.
         11    1    3    3    0    0  0.19243813202E+02 -0.63766058382E+01 -0.21047817708E+02  0.29223211307E+02  0.51100000000E-03 0. -1.
        -11    1    3    3    0    0  0.13011565125E+02 -0.20186750203E+01  0.78513468617E+00  0.13190614564E+02  0.51100000000E-03 0.  1.
         12    1    3    3    0    0  0.53408629893E+01 -0.39341584126E+00  0.44086774278E+00  0.53734493448E+01  0.00000000000E+00 0. -1.
</event>
<event>
 7    1  0.2642243E-009  0.4778727E+02  0.7816164E-02  0.1312668E+00
        -11   -1    0    0    0    0  0.00000000000E+00  0.00000000000E+00  0.45593999997E+02  0.45594000000E+02  0.51100000000E-03 0.  1.
         11   -1    0    0    0    0 -0.00000000000E+00 -0.00000000000E+00 -0.45593999997E+02  0.45594000000E+02  0.51100000000E-03 0. -1.
    9900012    2    1    2    0    0  0.23566106027E+02 -0.32980400168E+02 -0.15509843878E+02  0.47787269526E+02  0.19999993078E+02 0.  0.
        -12    1    1    2    0    0 -0.23566106027E+02  0.32980400168E+02  0.15509843878E+02  0.43400730474E+02  0.00000000000E+00 0.  1.
         11    1    3    3    0    0  0.13763963253E+01 -0.78724304656E+01  0.22494448789E+01  0.83023870546E+01  0.51100000000E-03 0. -1.
        -11    1    3    3    0    0  0.21444104809E+02 -0.18927539539E+02 -0.12046960531E+02  0.31035957249E+02  0.51100000000E-03 0.  1.
        -12    1    3    3    0    0  0.74560489335E+00 -0.61804301635E+01 -0.57123282259E+01  0.84489252230E+01  0.00000000000E+00 0.  1.
</event>
<event>
 7    1  0.2642243E-009  0.4778728E+02  0.7816164E-02  0.1312668E+00
        -11   -1    0    0    0    0  0.00000000000E+00  0.00000000000E+00  0.45593999997E+02  0.45594000000E+02  0.51100000000E-03 0. -1.
         11   -1    0    0    0    0 -0.00000000000E+00 -0.00000000000E+00 -0.45593999997E+02  0.45594000000E+02  0.51100000000E-03 0.  1.
    9900012    2    1    2    0    0  0.35313426202E+02  0.44156116140E+01  0.24841238420E+02  0.47787276247E+02  0.20000023721E+02 0.  0.
        -12    1    1    2    0    0 -0.35313426202E+02 -0.44156116140E+01 -0.24841238420E+02  0.43400723753E+02  0.00000000000E+00 0.  1.
         11    1    3    3    0    0  0.31828286352E+02  0.67547545031E+01  0.14969714707E+02  0.35815623395E+02  0.51100000000E-03 0. -1.
        -11    1    3    3    0    0  0.40179184425E+01 -0.15858453229E+01  0.10130800414E+02  0.11013250714E+02  0.51100000000E-03 0.  1.
         12    1    3    3    0    0 -0.53277859265E+00 -0.75329756621E+00 -0.25927670024E+00  0.95840213863E+00  0.00000000000E+00 0. -1.
</event>
<event>
 7    1  0.2642243E-009  0.4778728E+02  0.7816164E-02  0.1312668E+00
        -11   -1    0    0    0    0  0.00000000000E+00  0.00000000000E+00  0.45593999997E+02  0.45594000000E+02  0.51100000000E-03 0.  1.
         11   -1    0    0    0    0 -0.00000000000E+00 -0.00000000000E+00 -0.45593999997E+02  0.45594000000E+02  0.51100000000E-03 0. -1.
    9900012    2    1    2    0    0  0.56835603057E+01  0.35670119504E+02 -0.24061641293E+02  0.47787275757E+02  0.20000021485E+02 0.  0.
        -12    1    1    2    0    0 -0.56835603057E+01 -0.35670119504E+02  0.24061641293E+02  0.43400724243E+02  0.00000000000E+00 0.  1.
         11    1    3    3    0    0 -0.56085430117E+01  0.89357304393E+01 -0.99577916633E+01  0.14507261915E+02  0.51100000000E-03 0. -1.
        -11    1    3    3    0    0  0.34435370291E+01  0.12438055966E+02 -0.22079431447E+01  0.13093440979E+02  0.51100000000E-03 0.  1.
         12    1    3    3    0    0  0.78485662884E+01  0.14296333099E+02 -0.11895906485E+02  0.20186572863E+02  0.00000000000E+00 0. -1.
</event>
<event>
 7    1  0.2642243E-009  0.4778727E+02  0.7816164E-02  0.1312668E+00
        -11   -1    0    0    0    0  0.00000000000E+00  0.00000000000E+00  0.45593999997E+02  0.45594000000E+02  0.51100000000E-03 0.  1.
         11   -1    0    0    0    0 -0.00000000000E+00 -0.00000000000E+00 -0.45593999997E+02  0.45594000000E+02  0.51100000000E-03 0. -1.
    9900012    2    1    2    0    0  0.10624079913E+02  0.33212556834E+02 -0.25839469025E+02  0.47787272300E+02  0.20000005724E+02 0.  0.
        -12    1    1    2    0    0 -0.10624079913E+02 -0.33212556834E+02  0.25839469025E+02  0.43400727700E+02  0.00000000000E+00 0.  1.
         11    1    3    3    0    0  0.37824579210E+00  0.21514817556E+02 -0.19594919012E+02  0.29103114879E+02  0.51100000000E-03 0. -1.
        -11    1    3    3    0    0  0.90121058191E+01  0.62942785191E+01 -0.97376942584E+00  0.11035588817E+02  0.51100000000E-03 0.  1.
        -12    1    3    3    0    0  0.12337283014E+01  0.54034607586E+01 -0.52707805871E+01  0.76485686039E+01  0.00000000000E+00 0.  1.
</event>
<event>
 7    1  0.2642243E-009  0.4778727E+02  0.7816164E-02  0.1312668E+00
        -11   -1    0    0    0    0  0.00000000000E+00  0.00000000000E+00  0.45593999997E+02  0.45594000000E+02  0.51100000000E-03 0. -1.
         11   -1    0    0    0    0 -0.00000000000E+00 -0.00000000000E+00 -0.45593999997E+02  0.45594000000E+02  0.51100000000E-03 0.  1.
    9900012    2    1    2    0    0 -0.70705517031E+00  0.31690119671E+02  0.29645564788E+02  0.47787272778E+02  0.20000007906E+02 0.  0.
        -12    1    1    2    0    0  0.70705517031E+00 -0.31690119671E+02 -0.29645564788E+02  0.43400727222E+02  0.00000000000E+00 0.  1.
         11    1    3    3    0    0  0.13032992577E+01  0.29492397800E+02  0.16933529642E+02  0.34032991983E+02  0.51100000000E-03 0. -1.
        -11    1    3    3    0    0 -0.30756681616E+01  0.24256303244E+01  0.11369464260E+02  0.12025312259E+02  0.51100000000E-03 0.  1.
        -12    1    3    3    0    0  0.10653137335E+01 -0.22790845369E+00  0.13425708858E+01  0.17289685357E+01  0.00000000000E+00 0.  1.
</event>
<event>
 7    1  0.2642243E-009  0.4778727E+02  0.7816164E-02  0.1312668E+00
        -11   -1    0    0    0    0  0.00000000000E+00  0.00000000000E+00  0.45593999997E+02  0.45594000000E+02  0.51100000000E-03 0. -1.
         11   -1    0    0    0    0 -0.00000000000E+00 -0.00000000000E+00 -0.45593999997E+02  0.45594000000E+02  0.51100000000E-03 0.  1.
    9900012    2    1    2    0    0 -0.23472922292E+02  0.36387561711E+02  0.29310288084E+01  0.47787266619E+02  0.19999979822E+02 0.  0.
        -12    1    1    2    0    0  0.23472922292E+02 -0.36387561711E+02 -0.29310288084E+01  0.43400733381E+02  0.00000000000E+00 0.  1.
         11    1    3    3    0    0 -0.73433356417E+01  0.15223770843E+01 -0.71233887258E+00  0.75332355110E+01  0.51100000000E-03 0. -1.
        -11    1    3    3    0    0 -0.96092248092E-01  0.12773349013E+02  0.17268875364E+01  0.12889911541E+02  0.51100000000E-03 0.  1.
         12    1    3    3    0    0 -0.16033494402E+02  0.22091835614E+02  0.19164801445E+01  0.27364119566E+02  0.00000000000E+00 0. -1.
</event>
<event>
 7    1  0.2642243E-009  0.4778728E+02  0.7816164E-02  0.1312668E+00
        -11   -1    0    0    0    0  0.00000000000E+00  0.00000000000E+00  0.45593999997E+02  0.45594000000E+02  0.51100000000E-03 0.  1.
         11   -1    0    0    0    0 -0.00000000000E+00 -0.00000000000E+00 -0.45593999997E+02  0.45594000000E+02  0.51100000000E-03 0. -1.
    9900012    2    1    2    0    0  0.26763694261E+02 -0.34125092978E+02 -0.16749272928E+01  0.47787277856E+02  0.20000031055E+02 0.  0.
        -12    1    1    2    0    0 -0.26763694261E+02  0.34125092978E+02  0.16749272928E+01  0.43400722144E+02  0.00000000000E+00 0.  1.
         11    1    3    3    0    0 -0.57705108104E+00 -0.75659928150E+01  0.38583679403E+01  0.85125929452E+01  0.51100000000E-03 0. -1.
        -11    1    3    3    0    0  0.43032383379E-01 -0.24034506830E+01 -0.70775184982E+00  0.25058611122E+01  0.51100000000E-03 0.  1.
         12    1    3    3    0    0  0.27297712958E+02 -0.24155649480E+02 -0.48255433833E+01  0.36768823798E+02  0.00000000000E+00 0. -1.
</event>
<event>
 7    1  0.2642243E-009  0.4778727E+02  0.7816164E-02  0.1312668E+00
        -11   -1    0    0    0    0  0.00000000000E+00  0.00000000000E+00  0.45593999997E+02  0.45594000000E+02  0.51100000000E-03 0. -1.
         11   -1    0    0    0    0 -0.00000000000E+00 -0.00000000000E+00 -0.45593999997E+02  0.45594000000E+02  0.51100000000E-03 0.  1.
    9900012    2    1    2    0    0  0.93223966235E+00 -0.18613662222E+02  0.39195479471E+02  0.47787273012E+02  0.20000008971E+02 0.  0.
        -12    1    1    2    0    0 -0.93223966235E+00  0.18613662222E+02 -0.39195479471E+02  0.43400726988E+02  0.00000000000E+00 0.  1.
         11    1    3    3    0    0  0.17083507001E+01  0.96051749988E-01 -0.14208841162E+01  0.22240953185E+01  0.51100000000E-03 0. -1.
        -11    1    3    3    0    0 -0.77591924892E+00 -0.96248503167E+01  0.11260555858E+02  0.14833742373E+02  0.51100000000E-03 0.  1.
         12    1    3    3    0    0 -0.19178881894E-03 -0.90848636554E+01  0.29355807729E+02  0.30729435320E+02  0.00000000000E+00 0. -1.
</event>
<event>
 7    1  0.2642243E-009  0.4778728E+02  0.7816164E-02  0.1312668E+00
        -11   -1    0    0    0    0  0.00000000000E+00  0.00000000000E+00  0.45593999997E+02  0.45594000000E+02  0.51100000000E-03 0. -1.
         11   -1    0    0    0    0 -0.00000000000E+00 -0.00000000000E+00 -0.45593999997E+02  0.45594000000E+02  0.51100000000E-03 0.  1.
    9900012    2    1    2    0    0  0.23900221869E+02  0.31803044765E+02  0.17348437681E+02  0.47787279364E+02  0.20000037934E+02 0.  0.
        -12    1    1    2    0    0 -0.23900221869E+02 -0.31803044765E+02 -0.17348437681E+02  0.43400720636E+02  0.00000000000E+00 0.  1.
         11    1    3    3    0    0  0.68643497987E+01  0.15425495700E+02  0.10139164132E+02  0.19694361257E+02  0.51100000000E-03 0. -1.
        -11    1    3    3    0    0  0.18695797774E+02  0.11766406856E+02  0.46907145172E+01  0.22582825059E+02  0.51100000000E-03 0.  1.
        -12    1    3    3    0    0 -0.16599257035E+01  0.46111422081E+01  0.25185590318E+01  0.55100930483E+01  0.00000000000E+00 0.  1.
</event>
<event>
 7    1  0.2642243E-009  0.4778727E+02  0.7816164E-02  0.1312668E+00
        -11   -1    0    0    0    0  0.00000000000E+00  0.00000000000E+00  0.45593999997E+02  0.45594000000E+02  0.51100000000E-03 0. -1.
         11   -1    0    0    0    0 -0.00000000000E+00 -0.00000000000E+00 -0.45593999997E+02  0.45594000000E+02  0.51100000000E-03 0.  1.
    9900012    2    1    2    0    0 -0.98739397533E+01  0.76171890685E+01  0.41570505803E+02  0.47787271801E+02  0.20000003448E+02 0.  0.
        -12    1    1    2    0    0  0.98739397533E+01 -0.76171890685E+01 -0.41570505803E+02  0.43400728199E+02  0.00000000000E+00 0.  1.
         11    1    3    3    0    0 -0.56734600737E+01 -0.40341553060E+01  0.27648355682E+02  0.28511298294E+02  0.51100000000E-03 0. -1.
        -11    1    3    3    0    0 -0.38818283043E+01  0.79711728514E+01  0.12483811645E+02  0.15311882349E+02  0.51100000000E-03 0.  1.
         12    1    3    3    0    0 -0.31865137539E+00  0.36801715230E+01  0.14383384758E+01  0.39640911580E+01  0.00000000000E+00 0. -1.
</event>
<event>
 7    1  0.2642243E-009  0.4778727E+02  0.7816164E-02  0.1312668E+00
        -11   -1    0    0    0    0  0.00000000000E+00  0.00000000000E+00  0.45593999997E+02  0.45594000000E+02  0.51100000000E-03 0.  1.
         11   -1    0    0    0    0 -0.00000000000E+00 -0.00000000000E+00 -0.45593999997E+02  0.45594000000E+02  0.51100000000E-03 0. -1.
    9900012    2    1    2    0    0 -0.17211764995E+02 -0.13304072105E+02 -0.37555027277E+02  0.47787271175E+02  0.20000000594E+02 0.  0.
        -12    1    1    2    0    0  0.17211764995E+02  0.13304072105E+02  0.37555027277E+02  0.43400728825E+02  0.00000000000E+00 0.  1.
         11    1    3    3    0    0 -0.12223862929E+02 -0.23419969270E+01 -0.14810639812E+02  0.19345873628E+02  0.51100000000E-03 0. -1.
        -11    1    3    3    0    0  0.84995281211E+00 -0.75885132104E+01 -0.19534315031E+02  0.20973731583E+02  0.51100000000E-03 0.  1.
        -12    1    3    3    0    0 -0.58378548782E+01 -0.33735619671E+01 -0.32100724340E+01  0.74676659645E+01  0.00000000000E+00 0.  1.
</event>
<event>
 7    1  0.2642243E-009  0.4778727E+02  0.7816164E-02  0.1312668E+00
        -11   -1    0    0    0    0  0.00000000000E+00  0.00000000000E+00  0.45593999997E+02  0.45594000000E+02  0.51100000000E-03 0. -1.
         11   -1    0    0    0    0 -0.00000000000E+00 -0.00000000000E+00 -0.45593999997E+02  0.45594000000E+02  0.51100000000E-03 0.  1.
    9900012    2    1    2    0    0 -0.27047303605E+02  0.23289337194E+02  0.24691570569E+02  0.47787268251E+02  0.19999987262E+02 0.  0.
        -12    1    1    2    0    0  0.27047303605E+02 -0.23289337194E+02 -0.24691570569E+02  0.43400731749E+02  0.00000000000E+00 0.  1.
         11    1    3    3    0    0 -0.14772880901E+02  0.21741534599E+02  0.17706567786E+02  0.31693136163E+02  0.51100000000E-03 0. -1.
        -11    1    3    3    0    0 -0.82750902114E+01  0.53495121351E+00  0.37318175145E+00  0.83007563323E+01  0.51100000000E-03 0.  1.
        -12    1    3    3    0    0 -0.39993324923E+01  0.10128513810E+01  0.66118210315E+01  0.77933757549E+01  0.00000000000E+00 0.  1.
</event>
<event>
 7    1  0.2642243E-009  0.4778727E+02  0.7816164E-02  0.1312668E+00
        -11   -1    0    0    0    0  0.00000000000E+00  0.00000000000E+00  0.45593999997E+02  0.45594000000E+02  0.51100000000E-03 0.  1.
         11   -1    0    0    0    0 -0.00000000000E+00 -0.00000000000E+00 -0.45593999997E+02  0.45594000000E+02  0.51100000000E-03 0. -1.
    9900012    2    1    2    0    0 -0.66387375441E+01 -0.20006086200E+02 -0.37938197741E+02  0.47787272252E+02  0.20000005507E+02 0.  0.
        -12    1    1    2    0    0  0.66387375441E+01  0.20006086200E+02  0.37938197741E+02  0.43400727748E+02  0.00000000000E+00 0.  1.
         11    1    3    3    0    0 -0.11489515924E+02 -0.19116396658E+02 -0.36202864890E+02  0.42521677106E+02  0.51100000000E-03 0. -1.
        -11    1    3    3    0    0  0.41262915712E+01 -0.78790728661E+00 -0.17041062793E+01  0.45333275301E+01  0.51100000000E-03 0.  1.
         12    1    3    3    0    0  0.72448680851E+00 -0.10178225529E+00 -0.31226570806E-01  0.73226761632E+00  0.00000000000E+00 0. -1.
</event>
<event>
 7    1  0.2642243E-009  0.4778727E+02  0.7816164E-02  0.1312668E+00
        -11   -1    0    0    0    0  0.00000000000E+00  0.00000000000E+00  0.45593999997E+02  0.45594000000E+02  0.51100000000E-03 0.  1.
         11   -1    0    0    0    0 -0.00000000000E+00 -0.00000000000E+00 -0.45593999997E+02  0.45594000000E+02  0.51100000000E-03 0. -1.
    9900012    2    1    2    0    0 -0.28982065535E+02 -0.30427853864E+02 -0.10853983933E+02  0.47787269814E+02  0.19999994388E+02 0.  0.
        -12    1    1    2    0    0  0.28982065535E+02  0.30427853864E+02  0.10853983933E+02  0.43400730186E+02  0.00000000000E+00 0.  1.
         11    1    3    3    0    0 -0.26683412033E+01 -0.13153455319E+02 -0.55274501740E+01  0.14515031426E+02  0.51100000000E-03 0. -1.
        -11    1    3    3    0    0 -0.18594994774E+02 -0.94203995706E+01 -0.72969116438E+01  0.22085349861E+02  0.51100000000E-03 0.  1.
         12    1    3    3    0    0 -0.77187295584E+01 -0.78539989747E+01  0.19703778848E+01  0.11186888526E+02  0.00000000000E+00 0. -1.
</event>
<event>
 7    1  0.2642243E-009  0.4778727E+02  0.7816164E-02  0.1312668E+00
        -11   -1    0    0    0    0  0.00000000000E+00  0.00000000000E+00  0.45593999997E+02  0.45594000000E+02  0.51100000000E-03 0. -1.
         11   -1    0    0    0    0 -0.00000000000E+00 -0.00000000000E+00 -0.45593999997E+02  0.45594000000E+02  0.51100000000E-03 0.  1.
    9900012    2    1    2    0    0  0.42117712921E+02  0.76432506892E+01  0.71625521501E+01  0.47787272171E+02  0.20000005137E+02 0.  0.
        -12    1    1    2    0    0 -0.42117712921E+02 -0.76432506892E+01 -0.71625521501E+01  0.43400727829E+02  0.00000000000E+00 0.  1.
         11    1    3    3    0    0  0.22173261518E+02  0.73457847099E+01 -0.21290444232E+01  0.23455210717E+02  0.51100000000E-03 0. -1.
        -11    1    3    3    0    0  0.13450798391E+02  0.76005507747E+00  0.11230597704E+02  0.17539326843E+02  0.51100000000E-03 0.  1.
        -12    1    3    3    0    0  0.64936530119E+01 -0.46258909821E+00 -0.19390011305E+01  0.67927346111E+01  0.00000000000E+00 0.  1.
</event>
<event>
 7    1  0.2642243E-009  0.4778727E+02  0.7816164E-02  0.1312668E+00
        -11   -1    0    0    0    0  0.00000000000E+00  0.00000000000E+00  0.45593999997E+02  0.45594000000E+02  0.51100000000E-03 0.  1.
         11   -1    0    0    0    0 -0.00000000000E+00 -0.00000000000E+00 -0.45593999997E+02  0.45594000000E+02  0.51100000000E-03 0. -1.
    9900012    2    1    2    0    0 -0.23545697315E+02 -0.40083512402E+00 -0.36456309603E+02  0.47787273731E+02  0.20000012248E+02 0.  0.
        -12    1    1    2    0    0  0.23545697315E+02  0.40083512402E+00  0.36456309603E+02  0.43400726269E+02  0.00000000000E+00 0.  1.
         11    1    3    3    0    0 -0.13569310210E+02  0.96663815471E+00 -0.13161597371E+02  0.18928502701E+02  0.51100000000E-03 0. -1.
        -11    1    3    3    0    0  0.75417015589E+00  0.48295406318E+00 -0.15358609734E+02  0.15384697283E+02  0.51100000000E-03 0.  1.
        -12    1    3    3    0    0 -0.10730557261E+02 -0.18504273419E+01 -0.79361024972E+01  0.13474073747E+02  0.00000000000E+00 0.  1.
</event>
<event>
 7    1  0.2642243E-009  0.4778727E+02  0.7816164E-02  0.1312668E+00
        -11   -1    0    0    0    0  0.00000000000E+00  0.00000000000E+00  0.45593999997E+02  0.45594000000E+02  0.51100000000E-03 0.  1.
         11   -1    0    0    0    0 -0.00000000000E+00 -0.00000000000E+00 -0.45593999997E+02  0.45594000000E+02  0.51100000000E-03 0. -1.
    9900012    2    1    2    0    0  0.40009611254E+02 -0.15721925774E+01 -0.16744627527E+02  0.47787270361E+02  0.19999996885E+02 0.  0.
        -12    1    1    2    0    0 -0.40009611254E+02  0.15721925774E+01  0.16744627527E+02  0.43400729639E+02  0.00000000000E+00 0.  1.
         11    1    3    3    0    0  0.11227114929E+02 -0.50655264229E+01 -0.83306898932E+01  0.14869702819E+02  0.51100000000E-03 0. -1.
        -11    1    3    3    0    0  0.62377778644E+01  0.51502266429E+01  0.15112487635E+01  0.82291299810E+01  0.51100000000E-03 0.  1.
        -12    1    3    3    0    0  0.22544718460E+02 -0.16568927974E+01 -0.99251863970E+01  0.24688437561E+02  0.00000000000E+00 0.  1.
</event>
<event>
 7    1  0.2642243E-009  0.4778727E+02  0.7816164E-02  0.1312668E+00
        -11   -1    0    0    0    0  0.00000000000E+00  0.00000000000E+00  0.45593999997E+02  0.45594000000E+02  0.51100000000E-03 0. -1.
         11   -1    0    0    0    0 -0.00000000000E+00 -0.00000000000E+00 -0.45593999997E+02  0.45594000000E+02  0.51100000000E-03 0.  1.
    9900012    2    1    2    0    0 -0.12044216688E+02 -0.37969417574E+02  0.17230296873E+02  0.47787274697E+02  0.20000016653E+02 0.  0.
        -12    1    1    2    0    0  0.12044216688E+02  0.37969417574E+02 -0.17230296873E+02  0.43400725303E+02  0.00000000000E+00 0.  1.
         11    1    3    3    0    0 -0.81061849310E+01 -0.30941948264E+02  0.14972049821E+02  0.35316804394E+02  0.51100000000E-03 0. -1.
        -11    1    3    3    0    0 -0.52077073589E+01 -0.71268124399E+01 -0.10846905416E+01  0.88931560945E+01  0.51100000000E-03 0.  1.
         12    1    3    3    0    0  0.12696756023E+01  0.99343130184E-01  0.33429375932E+01  0.35773142082E+01  0.00000000000E+00 0. -1.
</event>
<event>
 7    1  0.2642243E-009  0.4778727E+02  0.7816164E-02  0.1312668E+00
        -11   -1    0    0    0    0  0.00000000000E+00  0.00000000000E+00  0.45593999997E+02  0.45594000000E+02  0.51100000000E-03 0. -1.
         11   -1    0    0    0    0 -0.00000000000E+00 -0.00000000000E+00 -0.45593999997E+02  0.45594000000E+02  0.51100000000E-03 0.  1.
    9900012    2    1    2    0    0  0.35710783819E+02 -0.50570167755E+01  0.24141038030E+02  0.47787271702E+02  0.20000002999E+02 0.  0.
        -12    1    1    2    0    0 -0.35710783819E+02  0.50570167755E+01 -0.24141038030E+02  0.43400728298E+02  0.00000000000E+00 0.  1.
         11    1    3    3    0    0  0.17781120460E+02  0.66899240918E+01  0.11161440069E+02  0.22034088904E+02  0.51100000000E-03 0. -1.
        -11    1    3    3    0    0  0.84306035272E+01 -0.73943851687E+01  0.37865439454E+01  0.11835958904E+02  0.51100000000E-03 0.  1.
         12    1    3    3    0    0  0.94990598318E+01 -0.43525556986E+01  0.91930540155E+01  0.13917223894E+02  0.00000000000E+00 0. -1.
</event>
<event>
 7    1  0.2642243E-009  0.4778728E+02  0.7816164E-02  0.1312668E+00
        -11   -1    0    0    0    0  0.00000000000E+00  0.00000000000E+00  0.45593999997E+02  0.45594000000E+02  0.51100000000E-03 0.  1.
         11   -1    0    0    0    0 -0.00000000000E+00 -0.00000000000E+00 -0.45593999997E+02  0.45594000000E+02  0.51100000000E-03 0. -1.
    9900012    2    1    2    0    0 -0.35110190778E+02  0.20603728171E+02 -0.15046050491E+02  0.47787277122E+02  0.20000027708E+02 0.  0.
        -12    1    1    2    0    0  0.35110190778E+02 -0.20603728171E+02  0.15046050491E+02  0.43400722878E+02  0.00000000000E+00 0.  1.
         11    1    3    3    0    0 -0.21727867440E+02  0.17258509476E+02 -0.78886248701E+01  0.28847647658E+02  0.51100000000E-03 0. -1.
        -11    1    3    3    0    0  0.21861232018E+00  0.19595578113E+01 -0.46357939009E+01  0.50376823555E+01  0.51100000000E-03 0.  1.
        -12    1    3    3    0    0 -0.13600935658E+02  0.13856608837E+01 -0.25216317204E+01  0.13901947108E+02  0.00000000000E+00 0.  1.
</event>
<event>
 7    1  0.2642243E-009  0.4778727E+02  0.7816164E-02  0.1312668E+00
        -11   -1    0    0    0    0  0.00000000000E+00  0.00000000000E+00  0.45593999997E+02  0.45594000000E+02  0.51100000000E-03 0.  1.
         11   -1    0    0    0    0 -0.00000000000E+00 -0.00000000000E+00 -0.45593999997E+02  0.45594000000E+02  0.51100000000E-03 0. -1.
    9900012    2    1    2    0    0  0.20310917873E+02 -0.33432432700E+02 -0.18797939190E+02  0.47787268914E+02  0.19999990285E+02 0.  0.
        -12    1    1    2    0    0 -0.20310917873E+02  0.33432432700E+02  0.18797939190E+02  0.43400731086E+02  0.00000000000E+00 0.  1.
         11    1    3    3    0    0  0.93999217140E-01 -0.12741507029E+02 -0.19526726080E+01  0.12890607736E+02  0.51100000000E-03 0. -1.
        -11    1    3    3    0    0  0.18755815939E+02 -0.20408575150E+02 -0.12693623397E+02  0.30486368206E+02  0.51100000000E-03 0.  1.
         12    1    3    3    0    0  0.14611027164E+01 -0.28235052063E+00 -0.41516431845E+01  0.44102929716E+01  0.00000000000E+00 0. -1.
</event>
<event>
 7    1  0.2642243E-009  0.4778727E+02  0.7816164E-02  0.1312668E+00
        -11   -1    0    0    0    0  0.00000000000E+00  0.00000000000E+00  0.45593999997E+02  0.45594000000E+02  0.51100000000E-03 0. -1.
         11   -1    0    0    0    0 -0.00000000000E+00 -0.00000000000E+00 -0.45593999997E+02  0.45594000000E+02  0.51100000000E-03 0.  1.
    9900012    2    1    2    0    0  0.18324465604E+01 -0.23209390916E+02  0.36627719490E+02  0.47787268184E+02  0.19999986959E+02 0.  0.
        -12    1    1    2    0    0 -0.18324465604E+01  0.23209390916E+02 -0.36627719490E+02  0.43400731816E+02  0.00000000000E+00 0.  1.
         11    1    3    3    0    0 -0.73454724639E+00 -0.78046199424E+01  0.18855324705E+02  0.20419963812E+02  0.51100000000E-03 0. -1.
        -11    1    3    3    0    0 -0.21655359645E+01 -0.99620256994E+01  0.25289844267E+01  0.10503678619E+02  0.51100000000E-03 0.  1.
        -12    1    3    3    0    0  0.47325297713E+01 -0.54427452745E+01  0.15243410359E+02  0.16863625753E+02  0.00000000000E+00 0.  1.
</event>
<event>
 7    1  0.2642243E-009  0.4778727E+02  0.7816164E-02  0.1312668E+00
        -11   -1    0    0    0    0  0.00000000000E+00  0.00000000000E+00  0.45593999997E+02  0.45594000000E+02  0.51100000000E-03 0. -1.
         11   -1    0    0    0    0 -0.00000000000E+00 -0.00000000000E+00 -0.45593999997E+02  0.45594000000E+02  0.51100000000E-03 0.  1.
    9900012    2    1    2    0    0 -0.22051470740E+02  0.37149115610E+02  0.41592536215E+01  0.47787267943E+02  0.19999985861E+02 0.  0.
        -12    1    1    2    0    0  0.22051470740E+02 -0.37149115610E+02 -0.41592536215E+01  0.43400732057E+02  0.00000000000E+00 0.  1.
         11    1    3    3    0    0 -0.15517121437E+02  0.23672286382E+02  0.73362317722E+01  0.29240015341E+02  0.51100000000E-03 0. -1.
        -11    1    3    3    0    0 -0.69708730663E+01  0.31648821359E+01 -0.30058865664E+01  0.82246522450E+01  0.51100000000E-03 0.  1.
         12    1    3    3    0    0  0.43652376335E+00  0.10311947092E+02 -0.17109158426E+00  0.10322600358E+02  0.00000000000E+00 0. -1.
</event>
<event>
 7    1  0.2642243E-009  0.4778727E+02  0.7816164E-02  0.1312668E+00
        -11   -1    0    0    0    0  0.00000000000E+00  0.00000000000E+00  0.45593999997E+02  0.45594000000E+02  0.51100000000E-03 0.  1.
         11   -1    0    0    0    0 -0.00000000000E+00 -0.00000000000E+00 -0.45593999997E+02  0.45594000000E+02  0.51100000000E-03 0. -1.
    9900012    2    1    2    0    0 -0.25082365536E+02 -0.13067708433E+02 -0.32920100352E+02  0.47787273373E+02  0.20000010615E+02 0.  0.
        -12    1    1    2    0    0  0.25082365536E+02  0.13067708433E+02  0.32920100352E+02  0.43400726627E+02  0.00000000000E+00 0.  1.
         11    1    3    3    0    0 -0.94595007110E+01 -0.30434846075E+01 -0.26221823193E+02  0.28041557805E+02  0.51100000000E-03 0. -1.
        -11    1    3    3    0    0 -0.63696939593E+01 -0.42244945944E+01 -0.30944530301E+01  0.82459078051E+01  0.51100000000E-03 0.  1.
         12    1    3    3    0    0 -0.92531708660E+01 -0.57997292313E+01 -0.36038241287E+01  0.11499807763E+02  0.00000000000E+00 0. -1.
</event>
<event>
 7    1  0.2642243E-009  0.4778727E+02  0.7816164E-02  0.1312668E+00
        -11   -1    0    0    0    0  0.00000000000E+00  0.00000000000E+00  0.45593999997E+02  0.45594000000E+02  0.51100000000E-03 0.  1.
         11   -1    0    0    0    0 -0.00000000000E+00 -0.00000000000E+00 -0.45593999997E+02  0.45594000000E+02  0.51100000000E-03 0. -1.
    9900012    2    1    2    0    0  0.18971152541E+02  0.12766810119E+02 -0.36888036782E+02  0.47787270433E+02  0.19999997212E+02 0.  0.
        -12    1    1    2    0    0 -0.18971152541E+02 -0.12766810119E+02  0.36888036782E+02  0.43400729567E+02  0.00000000000E+00 0.  1.
         11    1    3    3    0    0 -0.42703049305E+00  0.75469034794E+01 -0.17456292600E+02  0.19022624918E+02  0.51100000000E-03 0. -1.
        -11    1    3    3    0    0  0.88701363198E+01 -0.10527355008E+01 -0.75580075767E+01  0.11700899502E+02  0.51100000000E-03 0.  1.
         12    1    3    3    0    0  0.10528046714E+02  0.62726421401E+01 -0.11873736606E+02  0.17063746013E+02  0.00000000000E+00 0. -1.
</event>
<event>
 7    1  0.2642243E-009  0.4778727E+02  0.7816164E-02  0.1312668E+00
        -11   -1    0    0    0    0  0.00000000000E+00  0.00000000000E+00  0.45593999997E+02  0.45594000000E+02  0.51100000000E-03 0.  1.
         11   -1    0    0    0    0 -0.00000000000E+00 -0.00000000000E+00 -0.45593999997E+02  0.45594000000E+02  0.51100000000E-03 0. -1.
    9900012    2    1    2    0    0  0.28252118227E+02 -0.46678646134E+01 -0.32613682444E+02  0.47787269282E+02  0.19999991963E+02 0.  0.
        -12    1    1    2    0    0 -0.28252118227E+02  0.46678646134E+01  0.32613682444E+02  0.43400730718E+02  0.00000000000E+00 0.  1.
         11    1    3    3    0    0  0.94899980060E+01 -0.31194553600E+01 -0.10283432374E+02  0.14336667868E+02  0.51100000000E-03 0. -1.
        -11    1    3    3    0    0  0.82959000389E+01 -0.88542465347E+01 -0.10443976776E+02  0.16009256395E+02  0.51100000000E-03 0.  1.
        -12    1    3    3    0    0  0.10466220182E+02  0.73058372813E+01 -0.11886273293E+02  0.17441345019E+02  0.00000000000E+00 0.  1.
</event>
<event>
 7    1  0.2642243E-009  0.4778728E+02  0.7816164E-02  0.1312668E+00
        -11   -1    0    0    0    0  0.00000000000E+00  0.00000000000E+00  0.45593999997E+02  0.45594000000E+02  0.51100000000E-03 0. -1.
         11   -1    0    0    0    0 -0.00000000000E+00 -0.00000000000E+00 -0.45593999997E+02  0.45594000000E+02  0.51100000000E-03 0.  1.
    9900012    2    1    2    0    0  0.33730506628E+02 -0.24206705072E+02  0.12645582937E+02  0.47787280932E+02  0.20000045079E+02 0.  0.
        -12    1    1    2    0    0 -0.33730506628E+02  0.24206705072E+02 -0.12645582937E+02  0.43400719068E+02  0.00000000000E+00 0.  1.
         11    1    3    3    0    0  0.24911258319E+02 -0.90754091441E+01  0.95737298284E+01  0.28188475398E+02  0.51100000000E-03 0. -1.
        -11    1    3    3    0    0  0.10226620792E+02 -0.14644996247E+02  0.27123596789E+01  0.18067002606E+02  0.51100000000E-03 0.  1.
         12    1    3    3    0    0 -0.14073724821E+01 -0.48629968106E+00  0.35949342975E+00  0.15318029277E+01  0.00000000000E+00 0. -1.
</event>
<event>
 7    1  0.2642243E-009  0.4778727E+02  0.7816164E-02  0.1312668E+00
        -11   -1    0    0    0    0  0.00000000000E+00  0.00000000000E+00  0.45593999997E+02  0.45594000000E+02  0.51100000000E-03 0. -1.
         11   -1    0    0    0    0 -0.00000000000E+00 -0.00000000000E+00 -0.45593999997E+02  0.45594000000E+02  0.51100000000E-03 0.  1.
    9900012    2    1    2    0    0  0.63229089852E+01 -0.39086752264E+02  0.17772735033E+02  0.47787268541E+02  0.19999988587E+02 0.  0.
        -12    1    1    2    0    0 -0.63229089852E+01  0.39086752264E+02 -0.17772735033E+02  0.43400731459E+02  0.00000000000E+00 0.  1.
         11    1    3    3    0    0  0.24154498080E+01 -0.29226959753E+02  0.14082170572E+02  0.32532400810E+02  0.51100000000E-03 0. -1.
        -11    1    3    3    0    0  0.29284290344E+01 -0.20278405372E+01 -0.31917550386E+01  0.47827956617E+01  0.51100000000E-03 0.  1.
        -12    1    3    3    0    0  0.97903014276E+00 -0.78319519741E+01  0.68823194989E+01  0.10472072070E+02  0.00000000000E+00 0.  1.
</event>
<event>
 7    1  0.2642243E-009  0.4778728E+02  0.7816164E-02  0.1312668E+00
        -11   -1    0    0    0    0  0.00000000000E+00  0.00000000000E+00  0.45593999997E+02  0.45594000000E+02  0.51100000000E-03 0. -1.
         11   -1    0    0    0    0 -0.00000000000E+00 -0.00000000000E+00 -0.45593999997E+02  0.45594000000E+02  0.51100000000E-03 0.  1.
    9900012    2    1    2    0    0 -0.14121610634E+02 -0.80962948397E+01  0.40232484844E+02  0.47787277498E+02  0.20000029424E+02 0.  0.
        -12    1    1    2    0    0  0.14121610634E+02  0.80962948397E+01 -0.40232484844E+02  0.43400722502E+02  0.00000000000E+00 0.  1.
         11    1    3    3    0    0  0.55229259487E+00  0.17246735175E+01  0.14884640170E+02  0.14994400258E+02  0.51100000000E-03 0. -1.
        -11    1    3    3    0    0  0.16078285606E+01 -0.24532577040E+01  0.36831885765E+01  0.47084460700E+01  0.51100000000E-03 0.  1.
         12    1    3    3    0    0 -0.16281731789E+02 -0.73677106532E+01  0.21664656097E+02  0.28084431170E+02  0.00000000000E+00 0. -1.
</event>
<event>
 7    1  0.2642243E-009  0.4778727E+02  0.7816164E-02  0.1312668E+00
        -11   -1    0    0    0    0  0.00000000000E+00  0.00000000000E+00  0.45593999997E+02  0.45594000000E+02  0.51100000000E-03 0.  1.
         11   -1    0    0    0    0 -0.00000000000E+00 -0.00000000000E+00 -0.45593999997E+02  0.45594000000E+02  0.51100000000E-03 0. -1.
    9900012    2    1    2    0    0 -0.15376509504E+02  0.18203775901E+00 -0.40585134728E+02  0.47787270246E+02  0.19999996360E+02 0.  0.
        -12    1    1    2    0    0  0.15376509504E+02 -0.18203775901E+00  0.40585134728E+02  0.43400729754E+02  0.00000000000E+00 0.  1.
         11    1    3    3    0    0 -0.45823529769E+01  0.50322281538E+01 -0.10894696420E+02  0.12845843271E+02  0.51100000000E-03 0. -1.
        -11    1    3    3    0    0 -0.11047708607E+02 -0.67087471774E+01 -0.30322280498E+02  0.32962097158E+02  0.51100000000E-03 0.  1.
        -12    1    3    3    0    0  0.25355208001E+00  0.18585567826E+01  0.63184219049E+00  0.19793298172E+01  0.00000000000E+00 0.  1.
</event>
<event>
 7    1  0.2642243E-009  0.4778728E+02  0.7816164E-02  0.1312668E+00
        -11   -1    0    0    0    0  0.00000000000E+00  0.00000000000E+00  0.45593999997E+02  0.45594000000E+02  0.51100000000E-03 0.  1.
         11   -1    0    0    0    0 -0.00000000000E+00 -0.00000000000E+00 -0.45593999997E+02  0.45594000000E+02  0.51100000000E-03 0. -1.
    9900012    2    1    2    0    0  0.24837648967E+02 -0.27457183833E+01 -0.35484855229E+02  0.47787277353E+02  0.20000028762E+02 0.  0.
        -12    1    1    2    0    0 -0.24837648967E+02  0.27457183833E+01  0.35484855229E+02  0.43400722647E+02  0.00000000000E+00 0.  1.
         11    1    3    3    0    0  0.22931732281E+02  0.20318523444E+01 -0.25598131011E+02  0.34427562807E+02  0.51100000000E-03 0. -1.
        -11    1    3    3    0    0  0.21664754540E+01  0.15167435133E+01 -0.35232058896E+01  0.44053497908E+01  0.51100000000E-03 0.  1.
         12    1    3    3    0    0 -0.26055876721E+00 -0.62943142410E+01 -0.63635183290E+01  0.89543647546E+01  0.00000000000E+00 0. -1.
</event>
<event>
 7    1  0.2642243E-009  0.4778727E+02  0.7816164E-02  0.1312668E+00
        -11   -1    0    0    0    0  0.00000000000E+00  0.00000000000E+00  0.45593999997E+02  0.45594000000E+02  0.51100000000E-03 0.  1.
         11   -1    0    0    0    0 -0.00000000000E+00 -0.00000000000E+00 -0.45593999997E+02  0.45594000000E+02  0.51100000000E-03 0. -1.
    9900012    2    1    2    0    0 -0.38366448438E+02 -0.11903376668E+02 -0.16430116923E+02  0.47787268625E+02  0.19999988967E+02 0.  0.
        -12    1    1    2    0    0  0.38366448438E+02  0.11903376668E+02  0.16430116923E+02  0.43400731375E+02  0.00000000000E+00 0.  1.
         11    1    3    3    0    0 -0.54857163092E+01 -0.64777568198E+01 -0.88127478816E+01  0.12235969203E+02  0.51100000000E-03 0. -1.
        -11    1    3    3    0    0 -0.14832543602E+02  0.13289019858E+01 -0.17385513158E+00  0.14892970022E+02  0.51100000000E-03 0.  1.
        -12    1    3    3    0    0 -0.18048188526E+02 -0.67545218337E+01 -0.74435139098E+01  0.20658329400E+02  0.00000000000E+00 0.  1.
</event>
<event>
 7    1  0.2642243E-009  0.4778731E+02  0.7816164E-02  0.1312668E+00
        -11   -1    0    0    0    0  0.00000000000E+00  0.00000000000E+00  0.45593999997E+02  0.45594000000E+02  0.51100000000E-03 0.  1.
         11   -1    0    0    0    0 -0.00000000000E+00 -0.00000000000E+00 -0.45593999997E+02  0.45594000000E+02  0.51100000000E-03 0. -1.
    9900012    2    1    2    0    0  0.28551833158E+01 -0.34015388203E+02 -0.26803386222E+02  0.47787306234E+02  0.20000160444E+02 0.  0.
        -12    1    1    2    0    0 -0.28551833158E+01  0.34015388203E+02  0.26803386222E+02  0.43400693766E+02  0.00000000000E+00 0.  1.
         11    1    3    3    0    0  0.39038765775E+01 -0.30971035142E+02 -0.28876015654E+02  0.42523752779E+02  0.51100000000E-03 0. -1.
        -11    1    3    3    0    0 -0.16902272691E+01 -0.33186290909E+01  0.24620664900E+01  0.44645200108E+01  0.51100000000E-03 0.  1.
         12    1    3    3    0    0  0.64153400738E+00  0.27427602973E+00 -0.38943705805E+00  0.79903344442E+00  0.00000000000E+00 0. -1.
</event>
<event>
 7    1  0.2642243E-009  0.4778726E+02  0.7816164E-02  0.1312668E+00
        -11   -1    0    0    0    0  0.00000000000E+00  0.00000000000E+00  0.45593999997E+02  0.45594000000E+02  0.51100000000E-03 0.  1.
         11   -1    0    0    0    0 -0.00000000000E+00 -0.00000000000E+00 -0.45593999997E+02  0.45594000000E+02  0.51100000000E-03 0. -1.
    9900012    2    1    2    0    0 -0.24136798288E+02 -0.24972867814E+02  0.26026818467E+02  0.47787257633E+02  0.19999938853E+02 0.  0.
        -12    1    1    2    0    0  0.24136798288E+02  0.24972867814E+02 -0.26026818467E+02  0.43400742367E+02  0.00000000000E+00 0.  1.
         11    1    3    3    0    0 -0.12222879879E+02 -0.22480707818E+01  0.61093868470E+01  0.13848365343E+02  0.51100000000E-03 0. -1.
        -11    1    3    3    0    0 -0.65290637487E+00 -0.10960683403E+02  0.10128325875E+02  0.14938067234E+02  0.51100000000E-03 0.  1.
         12    1    3    3    0    0 -0.11261012034E+02 -0.11764113630E+02  0.97891057445E+01  0.19000825056E+02  0.00000000000E+00 0. -1.
</event>
<event>
 7    1  0.2642243E-009  0.4778727E+02  0.7816164E-02  0.1312668E+00
        -11   -1    0    0    0    0  0.00000000000E+00  0.00000000000E+00  0.45593999997E+02  0.45594000000E+02  0.51100000000E-03 0.  1.
         11   -1    0    0    0    0 -0.00000000000E+00 -0.00000000000E+00 -0.45593999997E+02  0.45594000000E+02  0.51100000000E-03 0. -1.
    9900012    2    1    2    0    0  0.41041278631E+01  0.28315823939E+02 -0.32634237336E+02  0.47787271926E+02  0.20000004020E+02 0.  0.
        -12    1    1    2    0    0 -0.41041278631E+01 -0.28315823939E+02  0.32634237336E+02  0.43400728074E+02  0.00000000000E+00 0.  1.
         11    1    3    3    0    0  0.52299097979E+01  0.19126296019E+02 -0.26460430035E+02  0.33065412652E+02  0.51100000000E-03 0. -1.
        -11    1    3    3    0    0  0.19526735632E+01  0.31930174142E+01 -0.69931074235E+01  0.79316988060E+01  0.51100000000E-03 0.  1.
         12    1    3    3    0    0 -0.30784554981E+01  0.59965105056E+01  0.81930012291E+00  0.67901604686E+01  0.00000000000E+00 0. -1.
</event>
<event>
 7    1  0.2642243E-009  0.4778727E+02  0.7816164E-02  0.1312668E+00
        -11   -1    0    0    0    0  0.00000000000E+00  0.00000000000E+00  0.45593999997E+02  0.45594000000E+02  0.51100000000E-03 0.  1.
         11   -1    0    0    0    0 -0.00000000000E+00 -0.00000000000E+00 -0.45593999997E+02  0.45594000000E+02  0.51100000000E-03 0. -1.
    9900012    2    1    2    0    0  0.20546370645E+01  0.42221769288E+02 -0.98348466131E+01  0.47787267942E+02  0.19999985856E+02 0.  0.
        -12    1    1    2    0    0 -0.20546370645E+01 -0.42221769288E+02  0.98348466131E+01  0.43400732058E+02  0.00000000000E+00 0.  1.
         11    1    3    3    0    0 -0.44098149762E+01  0.12482175974E+02 -0.85737223546E+01  0.15772124158E+02  0.51100000000E-03 0. -1.
        -11    1    3    3    0    0  0.32161732802E+01  0.33761795976E+01  0.23267543030E+01  0.52111558307E+01  0.51100000000E-03 0.  1.
         12    1    3    3    0    0  0.32482787606E+01  0.26363413716E+02 -0.35878785615E+01  0.26803987954E+02  0.00000000000E+00 0. -1.
</event>
<event>
 7    1  0.2642243E-009  0.4778727E+02  0.7816164E-02  0.1312668E+00
        -11   -1    0    0    0    0  0.00000000000E+00  0.00000000000E+00  0.45593999997E+02  0.45594000000E+02  0.51100000000E-03 0.  1.
         11   -1    0    0    0    0 -0.00000000000E+00 -0.00000000000E+00 -0.45593999997E+02  0.45594000000E+02  0.51100000000E-03 0. -1.
    9900012    2    1    2    0    0 -0.41463465617E+02 -0.11457752260E+02 -0.57553998207E+01  0.47787266194E+02  0.19999977884E+02 0.  0.
        -12    1    1    2    0    0  0.41463465617E+02  0.11457752260E+02  0.57553998207E+01  0.43400733806E+02  0.00000000000E+00 0.  1.
         11    1    3    3    0    0 -0.10398902571E+02 -0.31997481587E+01 -0.88443818569E+01  0.14021364187E+02  0.51100000000E-03 0. -1.
        -11    1    3    3    0    0 -0.22917706673E+02 -0.17598312762E+01  0.38987106733E+01  0.23313477442E+02  0.51100000000E-03 0.  1.
         12    1    3    3    0    0 -0.81468563725E+01 -0.64981728247E+01 -0.80972863707E+00  0.10452424565E+02  0.00000000000E+00 0. -1.
</event>
<event>
 7    1  0.2642243E-009  0.4778727E+02  0.7816164E-02  0.1312668E+00
        -11   -1    0    0    0    0  0.00000000000E+00  0.00000000000E+00  0.45593999997E+02  0.45594000000E+02  0.51100000000E-03 0. -1.
         11   -1    0    0    0    0 -0.00000000000E+00 -0.00000000000E+00 -0.45593999997E+02  0.45594000000E+02  0.51100000000E-03 0.  1.
    9900012    2    1    2    0    0 -0.40453646850E+02  0.10645576335E+02  0.11567085532E+02  0.47787270667E+02  0.19999998279E+02 0.  0.
        -12    1    1    2    0    0  0.40453646850E+02 -0.10645576335E+02 -0.11567085532E+02  0.43400729333E+02  0.00000000000E+00 0.  1.
         11    1    3    3    0    0 -0.99977581941E+01  0.18743300501E+01  0.58279203106E+01  0.11723179494E+02  0.51100000000E-03 0. -1.
        -11    1    3    3    0    0 -0.13456930180E+02  0.11943915525E+02  0.53336921273E+01  0.18766842033E+02  0.51100000000E-03 0.  1.
        -12    1    3    3    0    0 -0.16998958476E+02 -0.31726692402E+01  0.40547309385E+00  0.17297249139E+02  0.00000000000E+00 0.  1.
</event>
<event>
 7    1  0.2642243E-009  0.4778728E+02  0.7816164E-02  0.1312668E+00
        -11   -1    0    0    0    0  0.00000000000E+00  0.00000000000E+00  0.45593999997E+02  0.45594000000E+02  0.51100000000E-03 0.  1.
         11   -1    0    0    0    0 -0.00000000000E+00 -0.00000000000E+00 -0.45593999997E+02  0.45594000000E+02  0.51100000000E-03 0. -1.
    9900012    2    1    2    0    0 -0.54779508706E+01  0.10097351800E+02 -0.41852813080E+02  0.47787280861E+02  0.20000044757E+02 0.  0.
        -12    1    1    2    0    0  0.54779508706E+01 -0.10097351800E+02  0.41852813080E+02  0.43400719139E+02  0.00000000000E+00 0.  1.
         11    1    3    3    0    0 -0.69108093939E+01  0.84355343989E+01 -0.26229385637E+02  0.28405953570E+02  0.51100000000E-03 0. -1.
        -11    1    3    3    0    0  0.71012494571E-01 -0.22363545181E+01  0.85360186256E+00  0.23947777989E+01  0.51100000000E-03 0.  1.
         12    1    3    3    0    0  0.13618460287E+01  0.38981719193E+01 -0.16477029306E+02  0.16986549492E+02  0.00000000000E+00 0. -1.
</event>
<event>
 7    1  0.2642243E-009  0.4778727E+02  0.7816164E-02  0.1312668E+00
        -11   -1    0    0    0    0  0.00000000000E+00  0.00000000000E+00  0.45593999997E+02  0.45594000000E+02  0.51100000000E-03 0.  1.
         11   -1    0    0    0    0 -0.00000000000E+00 -0.00000000000E+00 -0.45593999997E+02  0.45594000000E+02  0.51100000000E-03 0. -1.
    9900012    2    1    2    0    0 -0.27877570263E+02  0.42770787114E+01 -0.32987432665E+02  0.47787273740E+02  0.20000012289E+02 0.  0.
        -12    1    1    2    0    0  0.27877570263E+02 -0.42770787114E+01  0.32987432665E+02  0.43400726260E+02  0.00000000000E+00 0.  1.
         11    1    3    3    0    0  0.58145224129E+00 -0.18384124006E+01 -0.96922355699E+01  0.98821696741E+01  0.51100000000E-03 0.  1.
        -11    1    3    3    0    0 -0.21999842825E+02  0.19944393650E+01 -0.18900740143E+02  0.29072475831E+02  0.51100000000E-03 0. -1.
        -12    1    3    3    0    0 -0.64591796797E+01  0.41210517470E+01 -0.43944569520E+01  0.88326282351E+01  0.00000000000E+00 0.  1.
</event>
<event>
 7    1  0.2642243E-009  0.4778727E+02  0.7816164E-02  0.1312668E+00
        -11   -1    0    0    0    0  0.00000000000E+00  0.00000000000E+00  0.45593999997E+02  0.45594000000E+02  0.51100000000E-03 0.  1.
         11   -1    0    0    0    0 -0.00000000000E+00 -0.00000000000E+00 -0.45593999997E+02  0.45594000000E+02  0.51100000000E-03 0. -1.
    9900012    2    1    2    0    0 -0.15258179375E+02 -0.34686309048E+01 -0.40481846242E+02  0.47787270590E+02  0.19999997927E+02 0.  0.
        -12    1    1    2    0    0  0.15258179375E+02  0.34686309048E+01  0.40481846242E+02  0.43400729410E+02  0.00000000000E+00 0.  1.
         11    1    3    3    0    0 -0.44329694286E+01  0.19306882168E+01 -0.31905262509E+02  0.32269560749E+02  0.51100000000E-03 0. -1.
        -11    1    3    3    0    0 -0.63971525720E+01 -0.41432244449E+01 -0.27729314671E+01  0.81104265617E+01  0.51100000000E-03 0.  1.
         12    1    3    3    0    0 -0.44280573747E+01 -0.12560946767E+01 -0.58036522659E+01  0.74072832789E+01  0.00000000000E+00 0. -1.
</event>
<event>
 7    1  0.2642243E-009  0.4778727E+02  0.7816164E-02  0.1312668E+00
        -11   -1    0    0    0    0  0.00000000000E+00  0.00000000000E+00  0.45593999997E+02  0.45594000000E+02  0.51100000000E-03 0.  1.
         11   -1    0    0    0    0 -0.00000000000E+00 -0.00000000000E+00 -0.45593999997E+02  0.45594000000E+02  0.51100000000E-03 0. -1.
    9900012    2    1    2    0    0  0.39160180153E+02 -0.18656056920E+02 -0.14335958743E+01  0.47787269977E+02  0.19999995133E+02 0.  0.
        -12    1    1    2    0    0 -0.39160180153E+02  0.18656056920E+02  0.14335958743E+01  0.43400730023E+02  0.00000000000E+00 0.  1.
         11    1    3    3    0    0  0.25584690580E+02 -0.18827097980E+02 -0.41775035075E+01  0.32038844334E+02  0.51100000000E-03 0. -1.
        -11    1    3    3    0    0  0.11409525882E+02  0.29088233813E+01  0.32649862867E+01  0.12218783492E+02  0.51100000000E-03 0.  1.
        -12    1    3    3    0    0  0.21659636904E+01 -0.27377823215E+01 -0.52107865348E+00  0.35296421505E+01  0.00000000000E+00 0.  1.
</event>
<event>
 7    1  0.2642243E-009  0.4778728E+02  0.7816164E-02  0.1312668E+00
        -11   -1    0    0    0    0  0.00000000000E+00  0.00000000000E+00  0.45593999997E+02  0.45594000000E+02  0.51100000000E-03 0.  1.
         11   -1    0    0    0    0 -0.00000000000E+00 -0.00000000000E+00 -0.45593999997E+02  0.45594000000E+02  0.51100000000E-03 0. -1.
    9900012    2    1    2    0    0 -0.19401558747E+02 -0.10129881872E+02 -0.37477827057E+02  0.47787279851E+02  0.20000040153E+02 0.  0.
        -12    1    1    2    0    0  0.19401558747E+02  0.10129881872E+02  0.37477827057E+02  0.43400720149E+02  0.00000000000E+00 0.  1.
         11    1    3    3    0    0 -0.52269358588E+01 -0.54719979099E+01 -0.27487761256E+02  0.28510360200E+02  0.51100000000E-03 0. -1.
        -11    1    3    3    0    0 -0.29817226464E+01  0.14127626359E+01 -0.37391299775E+00  0.33205992526E+01  0.51100000000E-03 0.  1.
         12    1    3    3    0    0 -0.11192900241E+02 -0.60706465976E+01 -0.96161528031E+01  0.15956320399E+02  0.00000000000E+00 0. -1.
</event>
<event>
 7    1  0.2642243E-009  0.4778727E+02  0.7816164E-02  0.1312668E+00
        -11   -1    0    0    0    0  0.00000000000E+00  0.00000000000E+00  0.45593999997E+02  0.45594000000E+02  0.51100000000E-03 0.  1.
         11   -1    0    0    0    0 -0.00000000000E+00 -0.00000000000E+00 -0.45593999997E+02  0.45594000000E+02  0.51100000000E-03 0. -1.
    9900012    2    1    2    0    0 -0.95247513968E+01 -0.16771849353E+02 -0.38879393852E+02  0.47787273207E+02  0.20000009858E+02 0.  0.
        -12    1    1    2    0    0  0.95247513968E+01  0.16771849353E+02  0.38879393852E+02  0.43400726793E+02  0.00000000000E+00 0.  1.
         11    1    3    3    0    0 -0.51887415321E+01 -0.17032309397E+02 -0.36099265991E+02  0.40251454724E+02  0.51100000000E-03 0. -1.
        -11    1    3    3    0    0 -0.37429518682E+01 -0.11870095575E+01 -0.39597891431E+01  0.55766128337E+01  0.51100000000E-03 0.  1.
         12    1    3    3    0    0 -0.59305799646E+00  0.14474696013E+01  0.11796612818E+01  0.19592056486E+01  0.00000000000E+00 0. -1.
</event>
<event>
 7    1  0.2642243E-009  0.4778724E+02  0.7816164E-02  0.1312668E+00
        -11   -1    0    0    0    0  0.00000000000E+00  0.00000000000E+00  0.45593999997E+02  0.45594000000E+02  0.51100000000E-03 0.  1.
         11   -1    0    0    0    0 -0.00000000000E+00 -0.00000000000E+00 -0.45593999997E+02  0.45594000000E+02  0.51100000000E-03 0. -1.
    9900012    2    1    2    0    0  0.43121996342E+02 -0.31678577319E+01  0.37528208767E+01  0.47787244757E+02  0.19999880145E+02 0.  0.
        -12    1    1    2    0    0 -0.43121996342E+02  0.31678577319E+01 -0.37528208767E+01  0.43400755243E+02  0.00000000000E+00 0.  1.
         11    1    3    3    0    0  0.13100364270E+02  0.63232991393E+01  0.54905515112E+01  0.15548305766E+02  0.51100000000E-03 0. -1.
        -11    1    3    3    0    0  0.21121259373E+02 -0.75194043844E+01 -0.41689504687E+01  0.22804148484E+02  0.51100000000E-03 0.  1.
         12    1    3    3    0    0  0.89003726980E+01 -0.19717524869E+01  0.24312198342E+01  0.94347905072E+01  0.00000000000E+00 0. -1.
</event>
<event>
 7    1  0.2642243E-009  0.4778727E+02  0.7816164E-02  0.1312668E+00
        -11   -1    0    0    0    0  0.00000000000E+00  0.00000000000E+00  0.45593999997E+02  0.45594000000E+02  0.51100000000E-03 0. -1.
         11   -1    0    0    0    0 -0.00000000000E+00 -0.00000000000E+00 -0.45593999997E+02  0.45594000000E+02  0.51100000000E-03 0.  1.
    9900012    2    1    2    0    0 -0.17277012884E+01  0.33307214040E+02  0.27771707143E+02  0.47787272166E+02  0.20000005114E+02 0.  0.
        -12    1    1    2    0    0  0.17277012884E+01 -0.33307214040E+02 -0.27771707143E+02  0.43400727834E+02  0.00000000000E+00 0.  1.
         11    1    3    3    0    0 -0.11095301015E+01  0.27122571166E+02  0.25838263220E+02  0.37476402845E+02  0.51100000000E-03 0. -1.
        -11    1    3    3    0    0 -0.17814331930E+01  0.35118018730E+01 -0.27439215737E+01  0.47995169007E+01  0.51100000000E-03 0.  1.
        -12    1    3    3    0    0  0.11632620061E+01  0.26728410018E+01  0.46773654964E+01  0.55113524205E+01  0.00000000000E+00 0.  1.
</event>
<event>
 7    1  0.2642243E-009  0.4778728E+02  0.7816164E-02  0.1312668E+00
        -11   -1    0    0    0    0  0.00000000000E+00  0.00000000000E+00  0.45593999997E+02  0.45594000000E+02  0.51100000000E-03 0.  1.
         11   -1    0    0    0    0 -0.00000000000E+00 -0.00000000000E+00 -0.45593999997E+02  0.45594000000E+02  0.51100000000E-03 0. -1.
    9900012    2    1    2    0    0 -0.17479686053E+02  0.38222518778E+02 -0.10822317848E+02  0.47787275008E+02  0.20000018071E+02 0.  0.
        -12    1    1    2    0    0  0.17479686053E+02 -0.38222518778E+02  0.10822317848E+02  0.43400724992E+02  0.00000000000E+00 0.  1.
         11    1    3    3    0    0 -0.11135045499E+02  0.10289449924E+02  0.28584643996E+01  0.15428312837E+02  0.51100000000E-03 0. -1.
        -11    1    3    3    0    0 -0.58100297022E+01  0.24340915866E+02 -0.93678960211E+01  0.26720668151E+02  0.51100000000E-03 0.  1.
         12    1    3    3    0    0 -0.53461085251E+00  0.35921529880E+01 -0.43128862268E+01  0.56382940202E+01  0.00000000000E+00 0. -1.
</event>
<event>
 7    1  0.2642243E-009  0.4778727E+02  0.7816164E-02  0.1312668E+00
        -11   -1    0    0    0    0  0.00000000000E+00  0.00000000000E+00  0.45593999997E+02  0.45594000000E+02  0.51100000000E-03 0.  1.
         11   -1    0    0    0    0 -0.00000000000E+00 -0.00000000000E+00 -0.45593999997E+02  0.45594000000E+02  0.51100000000E-03 0. -1.
    9900012    2    1    2    0    0  0.20183623648E+02  0.20830896006E+02 -0.32284955810E+02  0.47787271163E+02  0.20000000540E+02 0.  0.
        -12    1    1    2    0    0 -0.20183623648E+02 -0.20830896006E+02  0.32284955810E+02  0.43400728837E+02  0.00000000000E+00 0.  1.
         11    1    3    3    0    0  0.14984084494E+02  0.16509643036E+02 -0.13040528193E+02  0.25829178793E+02  0.51100000000E-03 0. -1.
        -11    1    3    3    0    0  0.38078318007E+01  0.67211559571E+01 -0.12942513654E+02  0.15072563828E+02  0.51100000000E-03 0.  1.
         12    1    3    3    0    0  0.13917073528E+01 -0.23999029871E+01 -0.63019139625E+01  0.68855285413E+01  0.00000000000E+00 0. -1.
</event>
<event>
 7    1  0.2642243E-009  0.4778727E+02  0.7816164E-02  0.1312668E+00
        -11   -1    0    0    0    0  0.00000000000E+00  0.00000000000E+00  0.45593999997E+02  0.45594000000E+02  0.51100000000E-03 0.  1.
         11   -1    0    0    0    0 -0.00000000000E+00 -0.00000000000E+00 -0.45593999997E+02  0.45594000000E+02  0.51100000000E-03 0. -1.
    9900012    2    1    2    0    0  0.38374313387E+02  0.20036169508E+02 -0.30963933941E+01  0.47787266498E+02  0.19999979271E+02 0.  0.
        -12    1    1    2    0    0 -0.38374313387E+02 -0.20036169508E+02  0.30963933941E+01  0.43400733502E+02  0.00000000000E+00 0.  1.
         11    1    3    3    0    0  0.22172058533E+02  0.17835151938E+01 -0.18052252830E+01  0.22316808567E+02  0.51100000000E-03 0. -1.
        -11    1    3    3    0    0  0.28253099646E+01  0.67412410413E+01 -0.26385227413E+01  0.77710044197E+01  0.51100000000E-03 0.  1.
        -12    1    3    3    0    0  0.13376944889E+02  0.11511413273E+02  0.13473546301E+01  0.17699453511E+02  0.00000000000E+00 0.  1.
</event>
<event>
 7    1  0.2642243E-009  0.4778727E+02  0.7816164E-02  0.1312668E+00
        -11   -1    0    0    0    0  0.00000000000E+00  0.00000000000E+00  0.45593999997E+02  0.45594000000E+02  0.51100000000E-03 0.  1.
         11   -1    0    0    0    0 -0.00000000000E+00 -0.00000000000E+00 -0.45593999997E+02  0.45594000000E+02  0.51100000000E-03 0. -1.
    9900012    2    1    2    0    0  0.78979816339E+01  0.37445178808E+02 -0.20472027395E+02  0.47787269182E+02  0.19999991510E+02 0.  0.
        -12    1    1    2    0    0 -0.78979816339E+01 -0.37445178808E+02  0.20472027395E+02  0.43400730818E+02  0.00000000000E+00 0.  1.
         11    1    3    3    0    0 -0.64318666573E+01  0.13767684655E+02 -0.61278358345E+01  0.16385006004E+02  0.51100000000E-03 0. -1.
        -11    1    3    3    0    0  0.96367804750E+01  0.14682731233E+02 -0.71374340347E+01  0.18957665976E+02  0.51100000000E-03 0.  1.
         12    1    3    3    0    0  0.46930678162E+01  0.89947629194E+01 -0.72067575259E+01  0.12444597203E+02  0.00000000000E+00 0. -1.
</event>
<event>
 7    1  0.2642243E-009  0.4778727E+02  0.7816164E-02  0.1312668E+00
        -11   -1    0    0    0    0  0.00000000000E+00  0.00000000000E+00  0.45593999997E+02  0.45594000000E+02  0.51100000000E-03 0.  1.
         11   -1    0    0    0    0 -0.00000000000E+00 -0.00000000000E+00 -0.45593999997E+02  0.45594000000E+02  0.51100000000E-03 0. -1.
    9900012    2    1    2    0    0 -0.22124068693E+02  0.22088757688E+02 -0.30103748025E+02  0.47787271010E+02  0.19999999843E+02 0.  0.
        -12    1    1    2    0    0  0.22124068693E+02 -0.22088757688E+02  0.30103748025E+02  0.43400728990E+02  0.00000000000E+00 0.  1.
         11    1    3    3    0    0 -0.96580484968E+01  0.60047424748E+01 -0.69171739089E+01  0.13310977729E+02  0.51100000000E-03 0. -1.
        -11    1    3    3    0    0 -0.82750399202E+00 -0.29469987802E+01 -0.16893113772E+01  0.34961890477E+01  0.51100000000E-03 0.  1.
        -12    1    3    3    0    0 -0.11638516204E+02  0.19031013993E+02 -0.21497262739E+02  0.30980104233E+02  0.00000000000E+00 0.  1.
</event>
<event>
 7    1  0.2642243E-009  0.4778727E+02  0.7816164E-02  0.1312668E+00
        -11   -1    0    0    0    0  0.00000000000E+00  0.00000000000E+00  0.45593999997E+02  0.45594000000E+02  0.51100000000E-03 0. -1.
         11   -1    0    0    0    0 -0.00000000000E+00 -0.00000000000E+00 -0.45593999997E+02  0.45594000000E+02  0.51100000000E-03 0.  1.
    9900012    2    1    2    0    0  0.97614524179E+01 -0.15494436773E+02  0.39347928667E+02  0.47787274032E+02  0.20000013620E+02 0.  0.
        -12    1    1    2    0    0 -0.97614524179E+01  0.15494436773E+02 -0.39347928667E+02  0.43400725968E+02  0.00000000000E+00 0.  1.
         11    1    3    3    0    0  0.11652614579E+02 -0.51620345005E+01  0.19390832396E+02  0.23204189449E+02  0.51100000000E-03 0. -1.
        -11    1    3    3    0    0 -0.22017171646E+01 -0.11788445299E+02  0.13958862355E+02  0.18402848680E+02  0.51100000000E-03 0.  1.
         12    1    3    3    0    0  0.31055500344E+00  0.14560430262E+01  0.59982339157E+01  0.61802359026E+01  0.00000000000E+00 0. -1.
</event>
<event>
 7    1  0.2642243E-009  0.4778727E+02  0.7816164E-02  0.1312668E+00
        -11   -1    0    0    0    0  0.00000000000E+00  0.00000000000E+00  0.45593999997E+02  0.45594000000E+02  0.51100000000E-03 0.  1.
         11   -1    0    0    0    0 -0.00000000000E+00 -0.00000000000E+00 -0.45593999997E+02  0.45594000000E+02  0.51100000000E-03 0. -1.
    9900012    2    1    2    0    0 -0.37241597529E+02 -0.13806986652E+02 -0.17494395164E+02  0.47787270408E+02  0.19999997098E+02 0.  0.
        -12    1    1    2    0    0  0.37241597529E+02  0.13806986652E+02  0.17494395164E+02  0.43400729592E+02  0.00000000000E+00 0.  1.
         11    1    3    3    0    0 -0.16976168541E+02 -0.10039621059E+02 -0.42015846822E+01  0.20165257337E+02  0.51100000000E-03 0. -1.
        -11    1    3    3    0    0 -0.41266111051E+01 -0.53228148155E+01 -0.12721108538E+00  0.67362793658E+01  0.51100000000E-03 0.  1.
         12    1    3    3    0    0 -0.16138817883E+02  0.15554492225E+01 -0.13165599397E+02  0.20885733705E+02  0.00000000000E+00 0. -1.
</event>
<event>
 7    1  0.2642243E-009  0.4778727E+02  0.7816164E-02  0.1312668E+00
        -11   -1    0    0    0    0  0.00000000000E+00  0.00000000000E+00  0.45593999997E+02  0.45594000000E+02  0.51100000000E-03 0. -1.
         11   -1    0    0    0    0 -0.00000000000E+00 -0.00000000000E+00 -0.45593999997E+02  0.45594000000E+02  0.51100000000E-03 0.  1.
    9900012    2    1    2    0    0 -0.19487974386E+01  0.34583994539E+02  0.26149050270E+02  0.47787270516E+02  0.19999997591E+02 0.  0.
        -12    1    1    2    0    0  0.19487974386E+01 -0.34583994539E+02 -0.26149050270E+02  0.43400729484E+02  0.00000000000E+00 0.  1.
         11    1    3    3    0    0 -0.63592307431E+01  0.11134289514E+02  0.48200457049E+01  0.13698359737E+02  0.51100000000E-03 0.  1.
        -11    1    3    3    0    0  0.32395858991E+01  0.43099397520E+01  0.11135985538E+02  0.12372577405E+02  0.51100000000E-03 0. -1.
        -12    1    3    3    0    0  0.11708474053E+01  0.19139765273E+02  0.10193019027E+02  0.21716333375E+02  0.00000000000E+00 0.  1.
</event>
<event>
 7    1  0.2642243E-009  0.4778727E+02  0.7816164E-02  0.1312668E+00
        -11   -1    0    0    0    0  0.00000000000E+00  0.00000000000E+00  0.45593999997E+02  0.45594000000E+02  0.51100000000E-03 0.  1.
         11   -1    0    0    0    0 -0.00000000000E+00 -0.00000000000E+00 -0.45593999997E+02  0.45594000000E+02  0.51100000000E-03 0. -1.
    9900012    2    1    2    0    0 -0.11342617610E+02 -0.18197851305E+01 -0.41852796835E+02  0.47787271952E+02  0.20000004137E+02 0.  0.
        -12    1    1    2    0    0  0.11342617610E+02  0.18197851305E+01  0.41852796835E+02  0.43400728048E+02  0.00000000000E+00 0.  1.
         11    1    3    3    0    0  0.11627733276E+01  0.31839638573E+01 -0.20233969735E+02  0.20515925501E+02  0.51100000000E-03 0. -1.
        -11    1    3    3    0    0 -0.62245722176E+01  0.10972702987E+01 -0.36907244689E+01  0.73192041075E+01  0.51100000000E-03 0.  1.
         12    1    3    3    0    0 -0.62808187204E+01 -0.61010192865E+01 -0.17928102631E+02  0.19952142343E+02  0.00000000000E+00 0. -1.
</event>
<event>
 7    1  0.2642243E-009  0.4778728E+02  0.7816164E-02  0.1312668E+00
        -11   -1    0    0    0    0  0.00000000000E+00  0.00000000000E+00  0.45593999997E+02  0.45594000000E+02  0.51100000000E-03 0.  1.
         11   -1    0    0    0    0 -0.00000000000E+00 -0.00000000000E+00 -0.45593999997E+02  0.45594000000E+02  0.51100000000E-03 0. -1.
    9900012    2    1    2    0    0 -0.44601130012E+01  0.72273550053E+01 -0.42561664685E+02  0.47787279164E+02  0.20000037019E+02 0.  0.
        -12    1    1    2    0    0  0.44601130012E+01 -0.72273550053E+01  0.42561664685E+02  0.43400720836E+02  0.00000000000E+00 0.  1.
         11    1    3    3    0    0 -0.79424246736E+01  0.82414379095E+01 -0.18179450937E+02  0.21482454356E+02  0.51100000000E-03 0. -1.
        -11    1    3    3    0    0  0.29868684839E+01  0.60238513292E+00 -0.15656608868E+01  0.34257182403E+01  0.51100000000E-03 0.  1.
         12    1    3    3    0    0  0.49544318846E+00 -0.16164680371E+01 -0.22816552861E+02  0.22879106568E+02  0.00000000000E+00 0. -1.
</event>
<event>
 7    1  0.2642243E-009  0.4778727E+02  0.7816164E-02  0.1312668E+00
        -11   -1    0    0    0    0  0.00000000000E+00  0.00000000000E+00  0.45593999997E+02  0.45594000000E+02  0.51100000000E-03 0. -1.
         11   -1    0    0    0    0 -0.00000000000E+00 -0.00000000000E+00 -0.45593999997E+02  0.45594000000E+02  0.51100000000E-03 0.  1.
    9900012    2    1    2    0    0  0.45513654355E+01 -0.13410358447E+02  0.41025243791E+02  0.47787271100E+02  0.20000000252E+02 0.  0.
        -12    1    1    2    0    0 -0.45513654355E+01  0.13410358447E+02 -0.41025243791E+02  0.43400728900E+02  0.00000000000E+00 0.  1.
         11    1    3    3    0    0  0.70343949753E+01 -0.31102447391E+01  0.86084841515E+01  0.11543930641E+02  0.51100000000E-03 0. -1.
        -11    1    3    3    0    0 -0.22637955857E+01 -0.24860471705E+01  0.25752427894E+02  0.25970998127E+02  0.51100000000E-03 0.  1.
        -12    1    3    3    0    0 -0.21923395417E+00 -0.78140665371E+01  0.66643317447E+01  0.10272342331E+02  0.00000000000E+00 0.  1.
</event>
<event>
 7    1  0.2642243E-009  0.4778727E+02  0.7816164E-02  0.1312668E+00
        -11   -1    0    0    0    0  0.00000000000E+00  0.00000000000E+00  0.45593999997E+02  0.45594000000E+02  0.51100000000E-03 0.  1.
         11   -1    0    0    0    0 -0.00000000000E+00 -0.00000000000E+00 -0.45593999997E+02  0.45594000000E+02  0.51100000000E-03 0. -1.
    9900012    2    1    2    0    0 -0.38140600455E+02 -0.16567480801E+02 -0.12427261282E+02  0.47787266756E+02  0.19999980448E+02 0.  0.
        -12    1    1    2    0    0  0.38140600455E+02  0.16567480801E+02  0.12427261282E+02  0.43400733244E+02  0.00000000000E+00 0.  1.
         11    1    3    3    0    0 -0.26596423955E+02 -0.23152063364E+01 -0.93534160884E+01  0.28288095382E+02  0.51100000000E-03 0. -1.
        -11    1    3    3    0    0 -0.75355664356E+00 -0.76784643930E+00  0.12961343267E+01  0.16844584362E+01  0.51100000000E-03 0.  1.
         12    1    3    3    0    0 -0.10790619857E+02 -0.13484428025E+02 -0.43699795203E+01  0.17814712938E+02  0.00000000000E+00 0. -1.
</event>
<event>
 7    1  0.2642243E-009  0.4778727E+02  0.7816164E-02  0.1312668E+00
        -11   -1    0    0    0    0  0.00000000000E+00  0.00000000000E+00  0.45593999997E+02  0.45594000000E+02  0.51100000000E-03 0.  1.
         11   -1    0    0    0    0 -0.00000000000E+00 -0.00000000000E+00 -0.45593999997E+02  0.45594000000E+02  0.51100000000E-03 0. -1.
    9900012    2    1    2    0    0 -0.21819345005E+02  0.26562920781E+00 -0.37516250050E+02  0.47787269671E+02  0.19999993736E+02 0.  0.
        -12    1    1    2    0    0  0.21819345005E+02 -0.26562920781E+00  0.37516250050E+02  0.43400730329E+02  0.00000000000E+00 0.  1.
         11    1    3    3    0    0 -0.15923629495E+02 -0.18190677654E+01 -0.94832276408E+01  0.18622636510E+02  0.51100000000E-03 0. -1.
        -11    1    3    3    0    0 -0.77172607244E+00 -0.12056230687E+01 -0.10652037198E+02  0.10747789765E+02  0.51100000000E-03 0.  1.
         12    1    3    3    0    0 -0.51239894373E+01  0.32903200419E+01 -0.17380985212E+02  0.18416843396E+02  0.00000000000E+00 0. -1.
</event>
<event>
 7    1  0.2642243E-009  0.4778728E+02  0.7816164E-02  0.1312668E+00
        -11   -1    0    0    0    0  0.00000000000E+00  0.00000000000E+00  0.45593999997E+02  0.45594000000E+02  0.51100000000E-03 0. -1.
         11   -1    0    0    0    0 -0.00000000000E+00 -0.00000000000E+00 -0.45593999997E+02  0.45594000000E+02  0.51100000000E-03 0.  1.
    9900012    2    1    2    0    0 -0.39297058883E+02  0.15794469718E+02  0.94814899580E+01  0.47787276938E+02  0.20000026871E+02 0.  0.
        -12    1    1    2    0    0  0.39297058883E+02 -0.15794469718E+02 -0.94814899580E+01  0.43400723062E+02  0.00000000000E+00 0.  1.
         11    1    3    3    0    0 -0.27944380022E+02  0.90950039103E+01  0.14042005129E+02  0.32569700324E+02  0.51100000000E-03 0. -1.
        -11    1    3    3    0    0 -0.38031505594E+01  0.25031706896E+01 -0.47478918449E+01  0.65781680513E+01  0.51100000000E-03 0.  1.
         12    1    3    3    0    0 -0.75495283017E+01  0.41962951175E+01  0.18737667433E+00  0.86394085625E+01  0.00000000000E+00 0. -1.
</event>
<event>
 7    1  0.2642243E-009  0.4778725E+02  0.7816164E-02  0.1312668E+00
        -11   -1    0    0    0    0  0.00000000000E+00  0.00000000000E+00  0.45593999997E+02  0.45594000000E+02  0.51100000000E-03 0. -1.
         11   -1    0    0    0    0 -0.00000000000E+00 -0.00000000000E+00 -0.45593999997E+02  0.45594000000E+02  0.51100000000E-03 0.  1.
    9900012    2    1    2    0    0  0.38667482979E+01  0.24191928565E+02  0.35824901037E+02  0.47787254794E+02  0.19999925910E+02 0.  0.
        -12    1    1    2    0    0 -0.38667482979E+01 -0.24191928565E+02 -0.35824901037E+02  0.43400745206E+02  0.00000000000E+00 0.  1.
         11    1    3    3    0    0  0.80851756412E+01  0.60046151469E+01  0.89532998916E+01  0.13475423831E+02  0.51100000000E-03 0. -1.
        -11    1    3    3    0    0 -0.47778932541E+01  0.27217031794E+01  0.44800557753E+01  0.70927309378E+01  0.51100000000E-03 0.  1.
         12    1    3    3    0    0  0.55946591081E+00  0.15465610239E+02  0.22391545370E+02  0.27219100026E+02  0.00000000000E+00 0. -1.
</event>
<event>
 7    1  0.2642243E-009  0.4778727E+02  0.7816164E-02  0.1312668E+00
        -11   -1    0    0    0    0  0.00000000000E+00  0.00000000000E+00  0.45593999997E+02  0.45594000000E+02  0.51100000000E-03 0.  1.
         11   -1    0    0    0    0 -0.00000000000E+00 -0.00000000000E+00 -0.45593999997E+02  0.45594000000E+02  0.51100000000E-03 0. -1.
    9900012    2    1    2    0    0  0.24241276142E+02  0.26561753621E+02 -0.24299320495E+02  0.47787271885E+02  0.20000003834E+02 0.  0.
        -12    1    1    2    0    0 -0.24241276142E+02 -0.26561753621E+02  0.24299320495E+02  0.43400728115E+02  0.00000000000E+00 0.  1.
         11    1    3    3    0    0  0.14076704884E+02  0.16183175820E+02 -0.11797662575E+02  0.24479249223E+02  0.51100000000E-03 0. -1.
        -11    1    3    3    0    0  0.52145966594E+01  0.24227470945E+01 -0.12694509127E+02  0.13936006747E+02  0.51100000000E-03 0.  1.
        -12    1    3    3    0    0  0.49499745987E+01  0.79558307055E+01  0.19285120733E+00  0.93720159160E+01  0.00000000000E+00 0.  1.
</event>
<event>
 7    1  0.2642243E-009  0.4778726E+02  0.7816164E-02  0.1312668E+00
        -11   -1    0    0    0    0  0.00000000000E+00  0.00000000000E+00  0.45593999997E+02  0.45594000000E+02  0.51100000000E-03 0.  1.
         11   -1    0    0    0    0 -0.00000000000E+00 -0.00000000000E+00 -0.45593999997E+02  0.45594000000E+02  0.51100000000E-03 0. -1.
    9900012    2    1    2    0    0 -0.29477143638E+02 -0.29525370476E+02  0.11957213099E+02  0.47787257565E+02  0.19999938542E+02 0.  0.
        -12    1    1    2    0    0  0.29477143638E+02  0.29525370476E+02 -0.11957213099E+02  0.43400742435E+02  0.00000000000E+00 0.  1.
         11    1    3    3    0    0 -0.17474011736E+01 -0.13695446601E+01 -0.18523389965E+01  0.28914051007E+01  0.51100000000E-03 0. -1.
        -11    1    3    3    0    0 -0.50453148669E+01 -0.16387873764E+02  0.61691010764E+01  0.18222936563E+02  0.51100000000E-03 0.  1.
        -12    1    3    3    0    0 -0.22684427597E+02 -0.11767952052E+02  0.76404510193E+01  0.26672915902E+02  0.00000000000E+00 0.  1.
</event>
<event>
 7    1  0.2642243E-009  0.4778727E+02  0.7816164E-02  0.1312668E+00
        -11   -1    0    0    0    0  0.00000000000E+00  0.00000000000E+00  0.45593999997E+02  0.45594000000E+02  0.51100000000E-03 0.  1.
         11   -1    0    0    0    0 -0.00000000000E+00 -0.00000000000E+00 -0.45593999997E+02  0.45594000000E+02  0.51100000000E-03 0. -1.
    9900012    2    1    2    0    0  0.24238576523E+02 -0.31885454739E+02  0.16716244160E+02  0.47787266889E+02  0.19999981054E+02 0.  0.
        -12    1    1    2    0    0 -0.24238576523E+02  0.31885454739E+02 -0.16716244160E+02  0.43400733111E+02  0.00000000000E+00 0.  1.
         11    1    3    3    0    0  0.19463242542E+02 -0.23436294720E+02  0.83188797016E+01  0.31579763776E+02  0.51100000000E-03 0. -1.
        -11    1    3    3    0    0 -0.49849159743E+00 -0.68549592316E+01  0.81931135335E+01  0.10694207291E+02  0.51100000000E-03 0.  1.
         12    1    3    3    0    0  0.52738255783E+01 -0.15942007875E+01  0.20425092520E+00  0.55132958221E+01  0.00000000000E+00 0. -1.
</event>
<event>
 7    1  0.2642243E-009  0.4778727E+02  0.7816164E-02  0.1312668E+00
        -11   -1    0    0    0    0  0.00000000000E+00  0.00000000000E+00  0.45593999997E+02  0.45594000000E+02  0.51100000000E-03 0.  1.
         11   -1    0    0    0    0 -0.00000000000E+00 -0.00000000000E+00 -0.45593999997E+02  0.45594000000E+02  0.51100000000E-03 0. -1.
    9900012    2    1    2    0    0 -0.67479209492E+01  0.42824918740E+02 -0.20286701303E+01  0.47787267233E+02  0.19999982624E+02 0.  0.
        -12    1    1    2    0    0  0.67479209492E+01 -0.42824918740E+02  0.20286701303E+01  0.43400732767E+02  0.00000000000E+00 0.  1.
         11    1    3    3    0    0 -0.36975688999E+01  0.49140339971E+01 -0.21729575360E+01  0.65223838133E+01  0.51100000000E-03 0. -1.
        -11    1    3    3    0    0 -0.48651608675E+00  0.70696458392E+01  0.65629770211E+01  0.96586364377E+01  0.51100000000E-03 0.  1.
        -12    1    3    3    0    0 -0.25638359626E+01  0.30841238903E+02 -0.64186896154E+01  0.31606246982E+02  0.00000000000E+00 0.  1.
</event>
<event>
 7    1  0.2642243E-009  0.4778726E+02  0.7816164E-02  0.1312668E+00
        -11   -1    0    0    0    0  0.00000000000E+00  0.00000000000E+00  0.45593999997E+02  0.45594000000E+02  0.51100000000E-03 0.  1.
         11   -1    0    0    0    0 -0.00000000000E+00 -0.00000000000E+00 -0.45593999997E+02  0.45594000000E+02  0.51100000000E-03 0. -1.
    9900012    2    1    2    0    0 -0.37529068781E+01  0.14104571985E+02 -0.40872981031E+02  0.47787264530E+02  0.19999970300E+02 0.  0.
        -12    1    1    2    0    0  0.37529068781E+01 -0.14104571985E+02  0.40872981031E+02  0.43400735470E+02  0.00000000000E+00 0.  1.
         11    1    3    3    0    0 -0.28718216792E+01  0.17316787086E+02 -0.34342588003E+02  0.38568534140E+02  0.51100000000E-03 0. -1.
        -11    1    3    3    0    0  0.22589385200E+01 -0.23087047177E+01 -0.29986585963E+01  0.44073659196E+01  0.51100000000E-03 0.  1.
        -12    1    3    3    0    0 -0.31400237189E+01 -0.90351038371E+00 -0.35317344324E+01  0.48113644707E+01  0.00000000000E+00 0.  1.
</event>
<event>
 7    1  0.2642243E-009  0.4778727E+02  0.7816164E-02  0.1312668E+00
        -11   -1    0    0    0    0  0.00000000000E+00  0.00000000000E+00  0.45593999997E+02  0.45594000000E+02  0.51100000000E-03 0.  1.
         11   -1    0    0    0    0 -0.00000000000E+00 -0.00000000000E+00 -0.45593999997E+02  0.45594000000E+02  0.51100000000E-03 0. -1.
    9900012    2    1    2    0    0 -0.12151793520E+02  0.36920973918E+02 -0.19308004590E+02  0.47787269107E+02  0.19999991165E+02 0.  0.
        -12    1    1    2    0    0  0.12151793520E+02 -0.36920973918E+02  0.19308004590E+02  0.43400730893E+02  0.00000000000E+00 0.  1.
         11    1    3    3    0    0  0.20271774315E+01  0.12024300915E+02 -0.32781835080E+01  0.12626945324E+02  0.51100000000E-03 0. -1.
        -11    1    3    3    0    0 -0.16558664712E+02  0.21312263062E+02 -0.13677976686E+02  0.30257048441E+02  0.51100000000E-03 0.  1.
        -12    1    3    3    0    0  0.23796937601E+01  0.35844099409E+01 -0.23518443961E+01  0.49032753421E+01  0.00000000000E+00 0.  1.
</event>
<event>
 7    1  0.2642243E-009  0.4778727E+02  0.7816164E-02  0.1312668E+00
        -11   -1    0    0    0    0  0.00000000000E+00  0.00000000000E+00  0.45593999997E+02  0.45594000000E+02  0.51100000000E-03 0.  1.
         11   -1    0    0    0    0 -0.00000000000E+00 -0.00000000000E+00 -0.45593999997E+02  0.45594000000E+02  0.51100000000E-03 0. -1.
    9900012    2    1    2    0    0  0.23510966416E+02  0.10810453760E+00 -0.36480762071E+02  0.47787271553E+02  0.20000002321E+02 0.  0.
        -12    1    1    2    0    0 -0.23510966416E+02 -0.10810453760E+00  0.36480762071E+02  0.43400728447E+02  0.00000000000E+00 0.  1.
         11    1    3    3    0    0  0.85782729143E+01  0.76850386889E+01 -0.82548819375E+01  0.14170026884E+02  0.51100000000E-03 0.  1.
        -11    1    3    3    0    0  0.51302585922E+01 -0.58712555596E+01 -0.16425053788E+02  0.18181682740E+02  0.51100000000E-03 0. -1.
         12    1    3    3    0    0  0.98024349097E+01 -0.17056785918E+01 -0.11800826346E+02  0.15435561929E+02  0.00000000000E+00 0. -1.
</event>
<event>
 7    1  0.2642243E-009  0.4778727E+02  0.7816164E-02  0.1312668E+00
        -11   -1    0    0    0    0  0.00000000000E+00  0.00000000000E+00  0.45593999997E+02  0.45594000000E+02  0.51100000000E-03 0. -1.
         11   -1    0    0    0    0 -0.00000000000E+00 -0.00000000000E+00 -0.45593999997E+02  0.45594000000E+02  0.51100000000E-03 0.  1.
    9900012    2    1    2    0    0 -0.31999987397E+02  0.69582178446E+01  0.28481696970E+02  0.47787273609E+02  0.20000011691E+02 0.  0.
        -12    1    1    2    0    0  0.31999987397E+02 -0.69582178446E+01 -0.28481696970E+02  0.43400726391E+02  0.00000000000E+00 0.  1.
         11    1    3    3    0    0 -0.38257046885E+01  0.59946625681E+01  0.13277392356E+02  0.15061910360E+02  0.51100000000E-03 0. -1.
        -11    1    3    3    0    0 -0.13705811748E+02 -0.20422819219E+01  0.48497408109E+01  0.14681286637E+02  0.51100000000E-03 0.  1.
        -12    1    3    3    0    0 -0.14468470961E+02  0.30058371984E+01  0.10354563804E+02  0.18044076612E+02  0.00000000000E+00 0.  1.
</event>
<event>
 7    1  0.2642243E-009  0.4778727E+02  0.7816164E-02  0.1312668E+00
        -11   -1    0    0    0    0  0.00000000000E+00  0.00000000000E+00  0.45593999997E+02  0.45594000000E+02  0.51100000000E-03 0. -1.
         11   -1    0    0    0    0 -0.00000000000E+00 -0.00000000000E+00 -0.45593999997E+02  0.45594000000E+02  0.51100000000E-03 0.  1.
    9900012    2    1    2    0    0 -0.48671340633E+00  0.12797036355E+02  0.41468328574E+02  0.47787270695E+02  0.19999998409E+02 0.  0.
        -12    1    1    2    0    0  0.48671340633E+00 -0.12797036355E+02 -0.41468328574E+02  0.43400729305E+02  0.00000000000E+00 0.  1.
         11    1    3    3    0    0  0.13993028275E+01 -0.17046433514E+01  0.19187528651E+02  0.19313858064E+02  0.51100000000E-03 0.  1.
        -11    1    3    3    0    0 -0.16186612772E+01  0.18660984189E+01  0.11796541263E+02  0.12052417752E+02  0.51100000000E-03 0. -1.
         12    1    3    3    0    0 -0.26735495661E+00  0.12635581288E+02  0.10484258661E+02  0.16420994879E+02  0.00000000000E+00 0. -1.
</event>
<event>
 7    1  0.2642243E-009  0.4778727E+02  0.7816164E-02  0.1312668E+00
        -11   -1    0    0    0    0  0.00000000000E+00  0.00000000000E+00  0.45593999997E+02  0.45594000000E+02  0.51100000000E-03 0. -1.
         11   -1    0    0    0    0 -0.00000000000E+00 -0.00000000000E+00 -0.45593999997E+02  0.45594000000E+02  0.51100000000E-03 0.  1.
    9900012    2    1    2    0    0  0.90304132968E+01 -0.32373021699E+02  0.27460197440E+02  0.47787270264E+02  0.19999996440E+02 0.  0.
        -12    1    1    2    0    0 -0.90304132968E+01  0.32373021699E+02 -0.27460197440E+02  0.43400729736E+02  0.00000000000E+00 0.  1.
         11    1    3    3    0    0  0.60310567189E+00 -0.52635603303E+01  0.48357877602E+01  0.71731197763E+01  0.51100000000E-03 0.  1.
        -11    1    3    3    0    0 -0.46059246760E+00 -0.21276613968E+02  0.20929784899E+02  0.29848992337E+02  0.51100000000E-03 0. -1.
        -12    1    3    3    0    0  0.88879000926E+01 -0.58328474005E+01  0.16946247809E+01  0.10765158150E+02  0.00000000000E+00 0.  1.
</event>
<event>
 7    1  0.2642243E-009  0.4778727E+02  0.7816164E-02  0.1312668E+00
        -11   -1    0    0    0    0  0.00000000000E+00  0.00000000000E+00  0.45593999997E+02  0.45594000000E+02  0.51100000000E-03 0.  1.
         11   -1    0    0    0    0 -0.00000000000E+00 -0.00000000000E+00 -0.45593999997E+02  0.45594000000E+02  0.51100000000E-03 0. -1.
    9900012    2    1    2    0    0 -0.10983111048E+02 -0.11205978636E+00 -0.41987880163E+02  0.47787269980E+02  0.19999995145E+02 0.  0.
        -12    1    1    2    0    0  0.10983111048E+02  0.11205978636E+00  0.41987880163E+02  0.43400730020E+02  0.00000000000E+00 0.  1.
         11    1    3    3    0    0 -0.67311921337E+01 -0.46815581163E+01 -0.16567332372E+02  0.18485195052E+02  0.51100000000E-03 0. -1.
        -11    1    3    3    0    0  0.22921597962E+01  0.62484909162E+01 -0.18363519545E+02  0.19532446994E+02  0.51100000000E-03 0.  1.
        -12    1    3    3    0    0 -0.65440787105E+01 -0.16789925863E+01 -0.70570282468E+01  0.97696279330E+01  0.00000000000E+00 0.  1.
</event>
<event>
 7    1  0.2642243E-009  0.4778727E+02  0.7816164E-02  0.1312668E+00
        -11   -1    0    0    0    0  0.00000000000E+00  0.00000000000E+00  0.45593999997E+02  0.45594000000E+02  0.51100000000E-03 0.  1.
         11   -1    0    0    0    0 -0.00000000000E+00 -0.00000000000E+00 -0.45593999997E+02  0.45594000000E+02  0.51100000000E-03 0. -1.
    9900012    2    1    2    0    0 -0.20214004197E+02  0.21962629295E+02 -0.31506508846E+02  0.47787272461E+02  0.20000006460E+02 0.  0.
        -12    1    1    2    0    0  0.20214004197E+02 -0.21962629295E+02  0.31506508846E+02  0.43400727539E+02  0.00000000000E+00 0.  1.
         11    1    3    3    0    0 -0.59763131542E+01  0.17734886855E+02 -0.17938721808E+02  0.25923739527E+02  0.51100000000E-03 0. -1.
        -11    1    3    3    0    0 -0.48830776313E+01 -0.13412458013E+01 -0.87085230692E+00  0.51382654130E+01  0.51100000000E-03 0.  1.
         12    1    3    3    0    0 -0.93546134113E+01  0.55689882416E+01 -0.12696934731E+02  0.16725267521E+02  0.00000000000E+00 0. -1.
</event>
<event>
 7    1  0.2642243E-009  0.4778727E+02  0.7816164E-02  0.1312668E+00
        -11   -1    0    0    0    0  0.00000000000E+00  0.00000000000E+00  0.45593999997E+02  0.45594000000E+02  0.51100000000E-03 0. -1.
         11   -1    0    0    0    0 -0.00000000000E+00 -0.00000000000E+00 -0.45593999997E+02  0.45594000000E+02  0.51100000000E-03 0.  1.
    9900012    2    1    2    0    0 -0.32952874836E+02  0.27503021120E+02  0.64276849495E+01  0.47787271152E+02  0.20000000491E+02 0.  0.
        -12    1    1    2    0    0  0.32952874836E+02 -0.27503021120E+02 -0.64276849495E+01  0.43400728848E+02  0.00000000000E+00 0.  1.
         11    1    3    3    0    0 -0.48353679679E+01  0.54483123909E+00  0.50082512957E+00  0.48916715482E+01  0.51100000000E-03 0. -1.
        -11    1    3    3    0    0 -0.14763864345E+01  0.16566867502E+01  0.57399061051E+01  0.61539296590E+01  0.51100000000E-03 0.  1.
        -12    1    3    3    0    0 -0.26641120434E+02  0.25301503131E+02  0.18695371492E+00  0.36741669945E+02  0.00000000000E+00 0.  1.
</event>
<event>
 7    1  0.2642243E-009  0.4778727E+02  0.7816164E-02  0.1312668E+00
        -11   -1    0    0    0    0  0.00000000000E+00  0.00000000000E+00  0.45593999997E+02  0.45594000000E+02  0.51100000000E-03 0.  1.
         11   -1    0    0    0    0 -0.00000000000E+00 -0.00000000000E+00 -0.45593999997E+02  0.45594000000E+02  0.51100000000E-03 0. -1.
    9900012    2    1    2    0    0 -0.25086776652E+02  0.19776422187E+02 -0.29379755897E+02  0.47787270814E+02  0.19999998949E+02 0.  0.
        -12    1    1    2    0    0  0.25086776652E+02 -0.19776422187E+02  0.29379755897E+02  0.43400729186E+02  0.00000000000E+00 0.  1.
         11    1    3    3    0    0 -0.12803566811E+02  0.16917546131E+02 -0.18021829838E+02  0.27837403635E+02  0.51100000000E-03 0. -1.
        -11    1    3    3    0    0 -0.93279241093E+00  0.42332241191E+01 -0.57899396672E+01  0.72328203168E+01  0.51100000000E-03 0.  1.
         12    1    3    3    0    0 -0.11350417430E+02 -0.13743480626E+01 -0.55679863917E+01  0.12717046862E+02  0.00000000000E+00 0. -1.
</event>
<event>
 7    1  0.2642243E-009  0.4778727E+02  0.7816164E-02  0.1312668E+00
        -11   -1    0    0    0    0  0.00000000000E+00  0.00000000000E+00  0.45593999997E+02  0.45594000000E+02  0.51100000000E-03 0. -1.
         11   -1    0    0    0    0 -0.00000000000E+00 -0.00000000000E+00 -0.45593999997E+02  0.45594000000E+02  0.51100000000E-03 0.  1.
    9900012    2    1    2    0    0 -0.18344268242E+02  0.28077472419E+02  0.27545722480E+02  0.47787268880E+02  0.19999990132E+02 0.  0.
        -12    1    1    2    0    0  0.18344268242E+02 -0.28077472419E+02 -0.27545722480E+02  0.43400731120E+02  0.00000000000E+00 0.  1.
         11    1    3    3    0    0 -0.47511444637E+01  0.64200220337E+01  0.43926144341E+01  0.91151038642E+01  0.51100000000E-03 0. -1.
        -11    1    3    3    0    0 -0.16619788613E+02  0.15654457919E+02  0.12375956508E+02  0.25970054409E+02  0.51100000000E-03 0.  1.
        -12    1    3    3    0    0  0.30266648346E+01  0.60029924664E+01  0.10777151539E+02  0.12702110607E+02  0.00000000000E+00 0.  1.
</event>
<event>
 7    1  0.2642243E-009  0.4778727E+02  0.7816164E-02  0.1312668E+00
        -11   -1    0    0    0    0  0.00000000000E+00  0.00000000000E+00  0.45593999997E+02  0.45594000000E+02  0.51100000000E-03 0. -1.
         11   -1    0    0    0    0 -0.00000000000E+00 -0.00000000000E+00 -0.45593999997E+02  0.45594000000E+02  0.51100000000E-03 0.  1.
    9900012    2    1    2    0    0 -0.40190111361E+02  0.16378070876E+02 -0.37069661147E+00  0.47787266448E+02  0.19999979045E+02 0.  0.
        -12    1    1    2    0    0  0.40190111361E+02 -0.16378070876E+02  0.37069661147E+00  0.43400733552E+02  0.00000000000E+00 0.  1.
         11    1    3    3    0    0 -0.14970652467E+02  0.10285114441E+02 -0.70729517126E+01  0.19491810089E+02  0.51100000000E-03 0. -1.
        -11    1    3    3    0    0 -0.12582340678E+02  0.19742715073E+01 -0.12652133182E+01  0.12798976909E+02  0.51100000000E-03 0.  1.
         12    1    3    3    0    0 -0.12637118216E+02  0.41186849281E+01  0.79674684193E+01  0.15496479450E+02  0.00000000000E+00 0. -1.
</event>
<event>
 7    1  0.2642243E-009  0.4778727E+02  0.7816164E-02  0.1312668E+00
        -11   -1    0    0    0    0  0.00000000000E+00  0.00000000000E+00  0.45593999997E+02  0.45594000000E+02  0.51100000000E-03 0. -1.
         11   -1    0    0    0    0 -0.00000000000E+00 -0.00000000000E+00 -0.45593999997E+02  0.45594000000E+02  0.51100000000E-03 0.  1.
    9900012    2    1    2    0    0 -0.21118707464E+02  0.31574952790E+02  0.20991564903E+02  0.47787271368E+02  0.20000001477E+02 0.  0.
        -12    1    1    2    0    0  0.21118707464E+02 -0.31574952790E+02 -0.20991564903E+02  0.43400728632E+02  0.00000000000E+00 0.  1.
         11    1    3    3    0    0 -0.95052505918E+00  0.19169408772E+01 -0.30244892914E+01  0.37048206367E+01  0.51100000000E-03 0.  1.
        -11    1    3    3    0    0 -0.10366435354E+02  0.80252509900E+01  0.10162935941E+02  0.16587733498E+02  0.51100000000E-03 0. -1.
         12    1    3    3    0    0 -0.98017470508E+01  0.21632760923E+02  0.13853118254E+02  0.27494717233E+02  0.00000000000E+00 0. -1.
</event>
<event>
 7    1  0.2642243E-009  0.4778727E+02  0.7816164E-02  0.1312668E+00
        -11   -1    0    0    0    0  0.00000000000E+00  0.00000000000E+00  0.45593999997E+02  0.45594000000E+02  0.51100000000E-03 0. -1.
         11   -1    0    0    0    0 -0.00000000000E+00 -0.00000000000E+00 -0.45593999997E+02  0.45594000000E+02  0.51100000000E-03 0.  1.
    9900012    2    1    2    0    0  0.12080342974E+02 -0.52224487076E+01  0.41357159088E+02  0.47787271151E+02  0.20000000484E+02 0.  0.
        -12    1    1    2    0    0 -0.12080342974E+02  0.52224487076E+01 -0.41357159088E+02  0.43400728849E+02  0.00000000000E+00 0.  1.
         11    1    3    3    0    0  0.77407728524E+01  0.20775436725E+01  0.30296598182E+02  0.31338787688E+02  0.51100000000E-03 0. -1.
        -11    1    3    3    0    0 -0.15482152228E+01 -0.57325415823E+01  0.67202379809E+01  0.89677534616E+01  0.51100000000E-03 0.  1.
         12    1    3    3    0    0  0.58877853442E+01 -0.15674507978E+01  0.43403229247E+01  0.74807300014E+01  0.00000000000E+00 0. -1.
</event>
<event>
 7    1  0.2642243E-009  0.4778727E+02  0.7816164E-02  0.1312668E+00
        -11   -1    0    0    0    0  0.00000000000E+00  0.00000000000E+00  0.45593999997E+02  0.45594000000E+02  0.51100000000E-03 0. -1.
         11   -1    0    0    0    0 -0.00000000000E+00 -0.00000000000E+00 -0.45593999997E+02  0.45594000000E+02  0.51100000000E-03 0.  1.
    9900012    2    1    2    0    0 -0.18210559258E+02  0.22211011309E+02  0.32537209428E+02  0.47787268563E+02  0.19999988687E+02 0.  0.
        -12    1    1    2    0    0  0.18210559258E+02 -0.22211011309E+02 -0.32537209428E+02  0.43400731437E+02  0.00000000000E+00 0.  1.
         11    1    3    3    0    0 -0.20025324412E+02  0.16391674078E+02  0.18664456847E+02  0.31907092418E+02  0.51100000000E-03 0. -1.
        -11    1    3    3    0    0  0.19806495941E+01  0.47252429041E+01  0.58290713504E+01  0.77607323357E+01  0.51100000000E-03 0.  1.
         12    1    3    3    0    0 -0.16588444036E+00  0.10940943270E+01  0.80436812306E+01  0.81194438100E+01  0.00000000000E+00 0. -1.
</event>
<event>
 7    1  0.2642243E-009  0.4778727E+02  0.7816164E-02  0.1312668E+00
        -11   -1    0    0    0    0  0.00000000000E+00  0.00000000000E+00  0.45593999997E+02  0.45594000000E+02  0.51100000000E-03 0.  1.
         11   -1    0    0    0    0 -0.00000000000E+00 -0.00000000000E+00 -0.45593999997E+02  0.45594000000E+02  0.51100000000E-03 0. -1.
    9900012    2    1    2    0    0 -0.39227189013E+02  0.18112750070E+02 -0.40962391552E+01  0.47787271340E+02  0.20000001349E+02 0.  0.
        -12    1    1    2    0    0  0.39227189013E+02 -0.18112750070E+02  0.40962391552E+01  0.43400728660E+02  0.00000000000E+00 0.  1.
         11    1    3    3    0    0 -0.30033245639E+02  0.12380216364E+02 -0.34780218409E+01  0.32670510204E+02  0.51100000000E-03 0. -1.
        -11    1    3    3    0    0  0.10247674985E+01  0.31288716061E+01 -0.28306770363E+01  0.43419717524E+01  0.51100000000E-03 0.  1.
         12    1    3    3    0    0 -0.10218710873E+02  0.26036620990E+01  0.22124597220E+01  0.10774789383E+02  0.00000000000E+00 0. -1.
</event>
<event>
 7    1  0.2642243E-009  0.4778727E+02  0.7816164E-02  0.1312668E+00
        -11   -1    0    0    0    0  0.00000000000E+00  0.00000000000E+00  0.45593999997E+02  0.45594000000E+02  0.51100000000E-03 0.  1.
         11   -1    0    0    0    0 -0.00000000000E+00 -0.00000000000E+00 -0.45593999997E+02  0.45594000000E+02  0.51100000000E-03 0. -1.
    9900012    2    1    2    0    0  0.35349101400E+02  0.24577276323E+02 -0.54792138498E+01  0.47787271140E+02  0.20000000434E+02 0.  0.
        -12    1    1    2    0    0 -0.35349101400E+02 -0.24577276323E+02  0.54792138498E+01  0.43400728860E+02  0.00000000000E+00 0.  1.
         11    1    3    3    0    0  0.11304750995E+02  0.73109077387E+01 -0.14780992548E+01  0.13543690216E+02  0.51100000000E-03 0. -1.
        -11    1    3    3    0    0  0.25238675061E+02  0.11125268611E+02 -0.45843153732E+01  0.27960298070E+02  0.51100000000E-03 0.  1.
        -12    1    3    3    0    0 -0.11943246555E+01  0.61410999731E+01  0.58320077823E+00  0.62832828530E+01  0.00000000000E+00 0.  1.
</event>
<event>
 7    1  0.2642243E-009  0.4778727E+02  0.7816164E-02  0.1312668E+00
        -11   -1    0    0    0    0  0.00000000000E+00  0.00000000000E+00  0.45593999997E+02  0.45594000000E+02  0.51100000000E-03 0.  1.
         11   -1    0    0    0    0 -0.00000000000E+00 -0.00000000000E+00 -0.45593999997E+02  0.45594000000E+02  0.51100000000E-03 0. -1.
    9900012    2    1    2    0    0 -0.35892778266E+02  0.24323136109E+02 -0.19279585191E+01  0.47787268371E+02  0.19999987812E+02 0.  0.
        -12    1    1    2    0    0  0.35892778266E+02 -0.24323136109E+02  0.19279585191E+01  0.43400731629E+02  0.00000000000E+00 0.  1.
         11    1    3    3    0    0 -0.14650736076E+02  0.13660740916E+02 -0.16092677295E+01  0.20096010868E+02  0.51100000000E-03 0. -1.
        -11    1    3    3    0    0 -0.14537867608E+02 -0.43035627199E+00 -0.17588558398E+01  0.14650200518E+02  0.51100000000E-03 0.  1.
        -12    1    3    3    0    0 -0.67041745829E+01  0.11092751466E+02  0.14401650501E+01  0.13041056985E+02  0.00000000000E+00 0.  1.
</event>
<event>
 7    1  0.2642243E-009  0.4778726E+02  0.7816164E-02  0.1312668E+00
        -11   -1    0    0    0    0  0.00000000000E+00  0.00000000000E+00  0.45593999997E+02  0.45594000000E+02  0.51100000000E-03 0. -1.
         11   -1    0    0    0    0 -0.00000000000E+00 -0.00000000000E+00 -0.45593999997E+02  0.45594000000E+02  0.51100000000E-03 0.  1.
    9900012    2    1    2    0    0 -0.45179083181E+00  0.14199820437E+02  0.41009570825E+02  0.47787263663E+02  0.19999966343E+02 0.  0.
        -12    1    1    2    0    0  0.45179083181E+00 -0.14199820437E+02 -0.41009570825E+02  0.43400736337E+02  0.00000000000E+00 0.  1.
         11    1    3    3    0    0  0.56615624721E+01 -0.22126745633E+01  0.15213352602E+02  0.16382774979E+02  0.51100000000E-03 0. -1.
        -11    1    3    3    0    0 -0.37104225901E+01  0.54341383767E+01  0.80219933599E+01  0.10375426421E+02  0.51100000000E-03 0.  1.
         12    1    3    3    0    0 -0.24029307138E+01  0.10978356623E+02  0.17774224863E+02  0.21029062262E+02  0.00000000000E+00 0. -1.
</event>
<event>
 7    1  0.2642243E-009  0.4778727E+02  0.7816164E-02  0.1312668E+00
        -11   -1    0    0    0    0  0.00000000000E+00  0.00000000000E+00  0.45593999997E+02  0.45594000000E+02  0.51100000000E-03 0.  1.
         11   -1    0    0    0    0 -0.00000000000E+00 -0.00000000000E+00 -0.45593999997E+02  0.45594000000E+02  0.51100000000E-03 0. -1.
    9900012    2    1    2    0    0 -0.35418400097E+02  0.14256034699E+02  0.20637966925E+02  0.47787271094E+02  0.20000000227E+02 0.  0.
        -12    1    1    2    0    0  0.35418400097E+02 -0.14256034699E+02 -0.20637966925E+02  0.43400728906E+02  0.00000000000E+00 0.  1.
         11    1    3    3    0    0 -0.92541376263E+01  0.19140377167E+01  0.15146221218E+02  0.17852468206E+02  0.51100000000E-03 0.  1.
        -11    1    3    3    0    0 -0.14431665072E+02  0.97214465322E+01  0.35047141384E+01  0.17750000025E+02  0.51100000000E-03 0. -1.
        -12    1    3    3    0    0 -0.11732597398E+02  0.26205504502E+01  0.19870315688E+01  0.12184802864E+02  0.00000000000E+00 0.  1.
</event>
<event>
 7    1  0.2642243E-009  0.4778727E+02  0.7816164E-02  0.1312668E+00
        -11   -1    0    0    0    0  0.00000000000E+00  0.00000000000E+00  0.45593999997E+02  0.45594000000E+02  0.51100000000E-03 0.  1.
         11   -1    0    0    0    0 -0.00000000000E+00 -0.00000000000E+00 -0.45593999997E+02  0.45594000000E+02  0.51100000000E-03 0. -1.
    9900012    2    1    2    0    0 -0.11642800734E+02 -0.31100365948E+02 -0.27943438357E+02  0.47787270533E+02  0.19999997670E+02 0.  0.
        -12    1    1    2    0    0  0.11642800734E+02  0.31100365948E+02  0.27943438357E+02  0.43400729467E+02  0.00000000000E+00 0.  1.
         11    1    3    3    0    0 -0.74652180237E+01 -0.31698224295E+02 -0.19186871852E+02  0.37797393499E+02  0.51100000000E-03 0. -1.
        -11    1    3    3    0    0 -0.56542091287E+00  0.99349972915E+00 -0.26131428689E+01  0.28522374436E+01  0.51100000000E-03 0.  1.
         12    1    3    3    0    0 -0.36121617977E+01 -0.39564138201E+00 -0.61434236361E+01  0.71376395908E+01  0.00000000000E+00 0. -1.
</event>
<event>
 7    1  0.2642243E-009  0.4778731E+02  0.7816164E-02  0.1312668E+00
        -11   -1    0    0    0    0  0.00000000000E+00  0.00000000000E+00  0.45593999997E+02  0.45594000000E+02  0.51100000000E-03 0.  1.
         11   -1    0    0    0    0 -0.00000000000E+00 -0.00000000000E+00 -0.45593999997E+02  0.45594000000E+02  0.51100000000E-03 0. -1.
    9900012    2    1    2    0    0  0.23228962657E+02  0.21997582401E+02 -0.29328163549E+02  0.47787314351E+02  0.20000197452E+02 0.  0.
        -12    1    1    2    0    0 -0.23228962657E+02 -0.21997582401E+02  0.29328163549E+02  0.43400685649E+02  0.00000000000E+00 0.  1.
         11    1    3    3    0    0  0.82071173619E+01  0.70129789945E+01 -0.13833401969E+02  0.17547126832E+02  0.51100000000E-03 0. -1.
        -11    1    3    3    0    0  0.27233080613E+01  0.59927686217E+01  0.21533112608E+01  0.69257802591E+01  0.51100000000E-03 0.  1.
        -12    1    3    3    0    0  0.12298537234E+02  0.89918347849E+01 -0.17648072841E+02  0.23314407260E+02  0.00000000000E+00 0.  1.
</event>
<event>
 7    1  0.2642243E-009  0.4778728E+02  0.7816164E-02  0.1312668E+00
        -11   -1    0    0    0    0  0.00000000000E+00  0.00000000000E+00  0.45593999997E+02  0.45594000000E+02  0.51100000000E-03 0. -1.
         11   -1    0    0    0    0 -0.00000000000E+00 -0.00000000000E+00 -0.45593999997E+02  0.45594000000E+02  0.51100000000E-03 0.  1.
    9900012    2    1    2    0    0 -0.35153583167E+02 -0.12859243862E+02  0.21965610433E+02  0.47787278763E+02  0.20000035191E+02 0.  0.
        -12    1    1    2    0    0  0.35153583167E+02  0.12859243862E+02 -0.21965610433E+02  0.43400721237E+02  0.00000000000E+00 0.  1.
         11    1    3    3    0    0 -0.31841672808E+02 -0.17055307647E+02  0.18170007622E+02  0.40434203633E+02  0.51100000000E-03 0. -1.
        -11    1    3    3    0    0  0.46302854544E+00  0.10066164047E+01 -0.22172430525E-01  0.11082255627E+01  0.51100000000E-03 0.  1.
         12    1    3    3    0    0 -0.37749389050E+01  0.31894473804E+01  0.38177752411E+01  0.62448495674E+01  0.00000000000E+00 0. -1.
</event>
<event>
 7    1  0.2642243E-009  0.4778724E+02  0.7816164E-02  0.1312668E+00
        -11   -1    0    0    0    0  0.00000000000E+00  0.00000000000E+00  0.45593999997E+02  0.45594000000E+02  0.51100000000E-03 0. -1.
         11   -1    0    0    0    0 -0.00000000000E+00 -0.00000000000E+00 -0.45593999997E+02  0.45594000000E+02  0.51100000000E-03 0.  1.
    9900012    2    1    2    0    0 -0.33305879473E+02 -0.98406582230E+01  0.26028933920E+02  0.47787244676E+02  0.19999879774E+02 0.  0.
        -12    1    1    2    0    0  0.33305879473E+02  0.98406582230E+01 -0.26028933920E+02  0.43400755324E+02  0.00000000000E+00 0.  1.
         11    1    3    3    0    0 -0.12431678285E+02 -0.10377426902E+02  0.16594815583E+02  0.23186753084E+02  0.51100000000E-03 0. -1.
        -11    1    3    3    0    0 -0.18497442402E+02  0.19344951365E+01  0.10817656678E+02  0.21515560488E+02  0.51100000000E-03 0.  1.
         12    1    3    3    0    0 -0.23767587851E+01 -0.13977264574E+01 -0.13835383408E+01  0.30849311034E+01  0.00000000000E+00 0. -1.
</event>
<event>
 7    1  0.2642243E-009  0.4778727E+02  0.7816164E-02  0.1312668E+00
        -11   -1    0    0    0    0  0.00000000000E+00  0.00000000000E+00  0.45593999997E+02  0.45594000000E+02  0.51100000000E-03 0. -1.
         11   -1    0    0    0    0 -0.00000000000E+00 -0.00000000000E+00 -0.45593999997E+02  0.45594000000E+02  0.51100000000E-03 0.  1.
    9900012    2    1    2    0    0 -0.35365253228E+02 -0.24917285555E+02  0.34714787503E+01  0.47787269361E+02  0.19999992325E+02 0.  0.
        -12    1    1    2    0    0  0.35365253228E+02  0.24917285555E+02 -0.34714787503E+01  0.43400730639E+02  0.00000000000E+00 0.  1.
         11    1    3    3    0    0 -0.14335561141E+02 -0.15395878875E+01 -0.11799907522E+01  0.14466202768E+02  0.51100000000E-03 0. -1.
        -11    1    3    3    0    0 -0.15778958511E+02 -0.22443306954E+02  0.53202713367E+01  0.27946070315E+02  0.51100000000E-03 0.  1.
        -12    1    3    3    0    0 -0.52507335763E+01 -0.93439071319E+00 -0.66880183414E+00  0.53749962779E+01  0.00000000000E+00 0.  1.
</event>
<event>
 7    1  0.2642243E-009  0.4778727E+02  0.7816164E-02  0.1312668E+00
        -11   -1    0    0    0    0  0.00000000000E+00  0.00000000000E+00  0.45593999997E+02  0.45594000000E+02  0.51100000000E-03 0.  1.
         11   -1    0    0    0    0 -0.00000000000E+00 -0.00000000000E+00 -0.45593999997E+02  0.45594000000E+02  0.51100000000E-03 0. -1.
    9900012    2    1    2    0    0  0.42972012577E+02  0.27082564119E+01  0.54492833156E+01  0.47787271823E+02  0.20000003548E+02 0.  0.
        -12    1    1    2    0    0 -0.42972012577E+02 -0.27082564119E+01 -0.54492833156E+01  0.43400728177E+02  0.00000000000E+00 0.  1.
         11    1    3    3    0    0  0.13825377830E+02 -0.17359735691E+01 -0.39753022099E+01  0.14489917332E+02  0.51100000000E-03 0. -1.
        -11    1    3    3    0    0  0.15399619366E+02  0.74646136903E+01  0.87147051708E+01  0.19204552081E+02  0.51100000000E-03 0.  1.
        -12    1    3    3    0    0  0.13747015381E+02 -0.30203837093E+01  0.70988035464E+00  0.14092802410E+02  0.00000000000E+00 0.  1.
</event>
<event>
 7    1  0.2642243E-009  0.4778727E+02  0.7816164E-02  0.1312668E+00
        -11   -1    0    0    0    0  0.00000000000E+00  0.00000000000E+00  0.45593999997E+02  0.45594000000E+02  0.51100000000E-03 0.  1.
         11   -1    0    0    0    0 -0.00000000000E+00 -0.00000000000E+00 -0.45593999997E+02  0.45594000000E+02  0.51100000000E-03 0. -1.
    9900012    2    1    2    0    0  0.10220066203E+02 -0.22357980952E+02 -0.35767220294E+02  0.47787272898E+02  0.20000008450E+02 0.  0.
        -12    1    1    2    0    0 -0.10220066203E+02  0.22357980952E+02  0.35767220294E+02  0.43400727102E+02  0.00000000000E+00 0.  1.
         11    1    3    3    0    0  0.87282816275E+01 -0.56129902176E+01 -0.18083372264E+02  0.20849386371E+02  0.51100000000E-03 0. -1.
        -11    1    3    3    0    0  0.23179028253E+01 -0.13645201398E+02 -0.64775397217E+01  0.15281450056E+02  0.51100000000E-03 0.  1.
        -12    1    3    3    0    0 -0.82611824939E+00 -0.30997893360E+01 -0.11206308309E+02  0.11656436471E+02  0.00000000000E+00 0.  1.
</event>
<event>
 7    1  0.2642243E-009  0.4778727E+02  0.7816164E-02  0.1312668E+00
        -11   -1    0    0    0    0  0.00000000000E+00  0.00000000000E+00  0.45593999997E+02  0.45594000000E+02  0.51100000000E-03 0.  1.
         11   -1    0    0    0    0 -0.00000000000E+00 -0.00000000000E+00 -0.45593999997E+02  0.45594000000E+02  0.51100000000E-03 0. -1.
    9900012    2    1    2    0    0  0.15685155818E+02 -0.28704370571E+02 -0.28524700932E+02  0.47787267676E+02  0.19999984644E+02 0.  0.
        -12    1    1    2    0    0 -0.15685155818E+02  0.28704370571E+02  0.28524700932E+02  0.43400732324E+02  0.00000000000E+00 0.  1.
         11    1    3    3    0    0  0.10152928134E+02 -0.16288712569E+02 -0.21903485693E+02  0.29123303257E+02  0.51100000000E-03 0. -1.
        -11    1    3    3    0    0  0.78156816365E+01 -0.81739214027E+01 -0.77579411983E+01  0.13714354612E+02  0.51100000000E-03 0.  1.
         12    1    3    3    0    0 -0.22834539522E+01 -0.42417365994E+01  0.11367259590E+01  0.49496098065E+01  0.00000000000E+00 0. -1.
</event>
<event>
 7    1  0.2642243E-009  0.4778727E+02  0.7816164E-02  0.1312668E+00
        -11   -1    0    0    0    0  0.00000000000E+00  0.00000000000E+00  0.45593999997E+02  0.45594000000E+02  0.51100000000E-03 0. -1.
         11   -1    0    0    0    0 -0.00000000000E+00 -0.00000000000E+00 -0.45593999997E+02  0.45594000000E+02  0.51100000000E-03 0.  1.
    9900012    2    1    2    0    0 -0.35956165009E+02  0.38354184758E+01  0.24001389897E+02  0.47787274729E+02  0.20000016800E+02 0.  0.
        -12    1    1    2    0    0  0.35956165009E+02 -0.38354184758E+01 -0.24001389897E+02  0.43400725271E+02  0.00000000000E+00 0.  1.
         11    1    3    3    0    0 -0.19795381712E+02 -0.27270356486E+01  0.20258178876E+02  0.28455011372E+02  0.51100000000E-03 0. -1.
        -11    1    3    3    0    0 -0.15614004548E+02  0.68801184569E+01  0.51224619520E+01  0.17814959577E+02  0.51100000000E-03 0.  1.
         12    1    3    3    0    0 -0.54677874958E+00 -0.31766433247E+00 -0.13792509316E+01  0.15173037802E+01  0.00000000000E+00 0. -1.
</event>
<event>
 7    1  0.2642243E-009  0.4778727E+02  0.7816164E-02  0.1312668E+00
        -11   -1    0    0    0    0  0.00000000000E+00  0.00000000000E+00  0.45593999997E+02  0.45594000000E+02  0.51100000000E-03 0.  1.
         11   -1    0    0    0    0 -0.00000000000E+00 -0.00000000000E+00 -0.45593999997E+02  0.45594000000E+02  0.51100000000E-03 0. -1.
    9900012    2    1    2    0    0 -0.20122737206E+02  0.17490505833E+02 -0.34245889665E+02  0.47787270676E+02  0.19999998320E+02 0.  0.
        -12    1    1    2    0    0  0.20122737206E+02 -0.17490505833E+02  0.34245889665E+02  0.43400729324E+02  0.00000000000E+00 0.  1.
         11    1    3    3    0    0 -0.17279394178E+01  0.57247643849E+01 -0.13838056145E+02  0.15074830017E+02  0.51100000000E-03 0. -1.
        -11    1    3    3    0    0 -0.15628071688E+02  0.89243479401E+01 -0.80155189747E+01  0.19700993770E+02  0.51100000000E-03 0.  1.
        -12    1    3    3    0    0 -0.27667261003E+01  0.28413935077E+01 -0.12392314545E+02  0.13011446889E+02  0.00000000000E+00 0.  1.
</event>
<event>
 7    1  0.2642243E-009  0.4778728E+02  0.7816164E-02  0.1312668E+00
        -11   -1    0    0    0    0  0.00000000000E+00  0.00000000000E+00  0.45593999997E+02  0.45594000000E+02  0.51100000000E-03 0. -1.
         11   -1    0    0    0    0 -0.00000000000E+00 -0.00000000000E+00 -0.45593999997E+02  0.45594000000E+02  0.51100000000E-03 0.  1.
    9900012    2    1    2    0    0  0.65855732004E+01  0.20025344845E+02  0.37937299178E+02  0.47787275588E+02  0.20000020718E+02 0.  0.
        -12    1    1    2    0    0 -0.65855732004E+01 -0.20025344845E+02 -0.37937299178E+02  0.43400724412E+02  0.00000000000E+00 0.  1.
         11    1    3    3    0    0  0.13064714658E+01  0.36371427420E+01  0.18809670282E+02  0.19202587623E+02  0.51100000000E-03 0. -1.
        -11    1    3    3    0    0 -0.27160944103E+01  0.10173259904E+02  0.64078507696E+01  0.12326107969E+02  0.51100000000E-03 0.  1.
         12    1    3    3    0    0  0.79951961449E+01  0.62149421983E+01  0.12719778126E+02  0.16258579997E+02  0.00000000000E+00 0. -1.
</event>
<event>
 7    1  0.2642243E-009  0.4778727E+02  0.7816164E-02  0.1312668E+00
        -11   -1    0    0    0    0  0.00000000000E+00  0.00000000000E+00  0.45593999997E+02  0.45594000000E+02  0.51100000000E-03 0.  1.
         11   -1    0    0    0    0 -0.00000000000E+00 -0.00000000000E+00 -0.45593999997E+02  0.45594000000E+02  0.51100000000E-03 0. -1.
    9900012    2    1    2    0    0  0.33898039370E+01 -0.21530306210E+02 -0.37531032272E+02  0.47787271439E+02  0.20000001799E+02 0.  0.
        -12    1    1    2    0    0 -0.33898039370E+01  0.21530306210E+02  0.37531032272E+02  0.43400728561E+02  0.00000000000E+00 0.  1.
         11    1    3    3    0    0  0.75555128570E+01 -0.18685987067E+02 -0.19133594172E+02  0.27791119327E+02  0.51100000000E-03 0. -1.
        -11    1    3    3    0    0 -0.86285430761E+00  0.17557713274E+01 -0.70165694783E+01  0.72841950835E+01  0.51100000000E-03 0.  1.
         12    1    3    3    0    0 -0.33028546124E+01 -0.46000904698E+01 -0.11380868622E+02  0.12711957029E+02  0.00000000000E+00 0. -1.
</event>
<event>
 7    1  0.2642243E-009  0.4778727E+02  0.7816164E-02  0.1312668E+00
        -11   -1    0    0    0    0  0.00000000000E+00  0.00000000000E+00  0.45593999997E+02  0.45594000000E+02  0.51100000000E-03 0.  1.
         11   -1    0    0    0    0 -0.00000000000E+00 -0.00000000000E+00 -0.45593999997E+02  0.45594000000E+02  0.51100000000E-03 0. -1.
    9900012    2    1    2    0    0 -0.35674338156E+02  0.20468209993E+02 -0.13857031704E+02  0.47787270158E+02  0.19999995960E+02 0.  0.
        -12    1    1    2    0    0  0.35674338156E+02 -0.20468209993E+02  0.13857031704E+02  0.43400729842E+02  0.00000000000E+00 0.  1.
         11    1    3    3    0    0 -0.29925593336E+02  0.12931820350E+02 -0.12798923754E+02  0.35022643584E+02  0.51100000000E-03 0. -1.
        -11    1    3    3    0    0  0.18888687662E+01  0.88764246168E+00  0.11751335310E+01  0.23951353683E+01  0.51100000000E-03 0.  1.
        -12    1    3    3    0    0 -0.76376135855E+01  0.66487471814E+01 -0.22332414804E+01  0.10369491206E+02  0.00000000000E+00 0.  1.
</event>
<event>
 7    1  0.2642243E-009  0.4778727E+02  0.7816164E-02  0.1312668E+00
        -11   -1    0    0    0    0  0.00000000000E+00  0.00000000000E+00  0.45593999997E+02  0.45594000000E+02  0.51100000000E-03 0.  1.
         11   -1    0    0    0    0 -0.00000000000E+00 -0.00000000000E+00 -0.45593999997E+02  0.45594000000E+02  0.51100000000E-03 0. -1.
    9900012    2    1    2    0    0 -0.30769493093E+00 -0.69845248508E+01 -0.42833923357E+02  0.47787271276E+02  0.20000001058E+02 0.  0.
        -12    1    1    2    0    0  0.30769493093E+00  0.69845248508E+01  0.42833923357E+02  0.43400728724E+02  0.00000000000E+00 0.  1.
         11    1    3    3    0    0 -0.52955940011E+01  0.23620006727E+01 -0.19916428452E+02  0.20743347983E+02  0.51100000000E-03 0. -1.
        -11    1    3    3    0    0  0.14413447812E+01 -0.48227620173E+01 -0.21115118697E+01  0.54584788074E+01  0.51100000000E-03 0.  1.
         12    1    3    3    0    0  0.35465542889E+01 -0.45237635062E+01 -0.20805983035E+02  0.21585444486E+02  0.00000000000E+00 0. -1.
</event>
<event>
 7    1  0.2642243E-009  0.4778727E+02  0.7816164E-02  0.1312668E+00
        -11   -1    0    0    0    0  0.00000000000E+00  0.00000000000E+00  0.45593999997E+02  0.45594000000E+02  0.51100000000E-03 0. -1.
         11   -1    0    0    0    0 -0.00000000000E+00 -0.00000000000E+00 -0.45593999997E+02  0.45594000000E+02  0.51100000000E-03 0.  1.
    9900012    2    1    2    0    0  0.12389365369E+02 -0.27929062892E+02  0.30823601370E+02  0.47787270401E+02  0.19999997067E+02 0.  0.
        -12    1    1    2    0    0 -0.12389365369E+02  0.27929062892E+02 -0.30823601370E+02  0.43400729599E+02  0.00000000000E+00 0.  1.
         11    1    3    3    0    0  0.13110827098E+02 -0.90854313583E+01  0.11962411023E+02  0.19938358204E+02  0.51100000000E-03 0. -1.
        -11    1    3    3    0    0  0.12622351412E+01 -0.22247529552E+01  0.66672544333E+01  0.71410815149E+01  0.51100000000E-03 0.  1.
         12    1    3    3    0    0 -0.19836968696E+01 -0.16618878578E+02  0.12193935915E+02  0.20707830682E+02  0.00000000000E+00 0. -1.
</event>
<event>
 7    1  0.2642243E-009  0.4778727E+02  0.7816164E-02  0.1312668E+00
        -11   -1    0    0    0    0  0.00000000000E+00  0.00000000000E+00  0.45593999997E+02  0.45594000000E+02  0.51100000000E-03 0.  1.
         11   -1    0    0    0    0 -0.00000000000E+00 -0.00000000000E+00 -0.45593999997E+02  0.45594000000E+02  0.51100000000E-03 0. -1.
    9900012    2    1    2    0    0 -0.41823235611E+02  0.72619705333E+01 -0.90390348980E+01  0.47787269535E+02  0.19999993120E+02 0.  0.
        -12    1    1    2    0    0  0.41823235611E+02 -0.72619705333E+01  0.90390348980E+01  0.43400730465E+02  0.00000000000E+00 0.  1.
         11    1    3    3    0    0 -0.25470748841E+02  0.43429493515E-01  0.26669312806E+01  0.25610026462E+02  0.51100000000E-03 0. -1.
        -11    1    3    3    0    0 -0.58548104507E+01  0.57782357767E+01 -0.55432752367E+01  0.99194110065E+01  0.51100000000E-03 0.  1.
        -12    1    3    3    0    0 -0.10497676319E+02  0.14403052630E+01 -0.61626909420E+01  0.12257832067E+02  0.00000000000E+00 0.  1.
</event>
<event>
 7    1  0.2642243E-009  0.4778727E+02  0.7816164E-02  0.1312668E+00
        -11   -1    0    0    0    0  0.00000000000E+00  0.00000000000E+00  0.45593999997E+02  0.45594000000E+02  0.51100000000E-03 0.  1.
         11   -1    0    0    0    0 -0.00000000000E+00 -0.00000000000E+00 -0.45593999997E+02  0.45594000000E+02  0.51100000000E-03 0. -1.
    9900012    2    1    2    0    0  0.41397630164E+02  0.12424751469E+02 -0.39351420550E+01  0.47787267572E+02  0.19999984170E+02 0.  0.
        -12    1    1    2    0    0 -0.41397630164E+02 -0.12424751469E+02  0.39351420550E+01  0.43400732428E+02  0.00000000000E+00 0.  1.
         11    1    3    3    0    0  0.33349813678E+02  0.55136219429E+01  0.10590991492E+00  0.33802682090E+02  0.51100000000E-03 0. -1.
        -11    1    3    3    0    0  0.37037050468E+01  0.57949809049E+01 -0.59652645204E+01  0.91040439268E+01  0.51100000000E-03 0.  1.
        -12    1    3    3    0    0  0.43441114393E+01  0.11161486208E+01  0.19242125505E+01  0.48805415560E+01  0.00000000000E+00 0.  1.
</event>
<event>
 7    1  0.2642243E-009  0.4778727E+02  0.7816164E-02  0.1312668E+00
        -11   -1    0    0    0    0  0.00000000000E+00  0.00000000000E+00  0.45593999997E+02  0.45594000000E+02  0.51100000000E-03 0. -1.
         11   -1    0    0    0    0 -0.00000000000E+00 -0.00000000000E+00 -0.45593999997E+02  0.45594000000E+02  0.51100000000E-03 0.  1.
    9900012    2    1    2    0    0 -0.42686655647E+02 -0.43230332176E+01  0.65409641669E+01  0.47787269605E+02  0.19999993439E+02 0.  0.
        -12    1    1    2    0    0  0.42686655647E+02  0.43230332176E+01 -0.65409641669E+01  0.43400730395E+02  0.00000000000E+00 0.  1.
         11    1    3    3    0    0 -0.97495591678E+01 -0.73270707347E+01  0.30754749841E+01  0.12577695185E+02  0.51100000000E-03 0. -1.
        -11    1    3    3    0    0 -0.21449539680E+02  0.41507432506E+01 -0.28791733744E+01  0.22036357720E+02  0.51100000000E-03 0.  1.
        -12    1    3    3    0    0 -0.11487556800E+02 -0.11467057335E+01  0.63446625572E+01  0.13173216700E+02  0.00000000000E+00 0.  1.
</event>
<event>
 7    1  0.2642243E-009  0.4778727E+02  0.7816164E-02  0.1312668E+00
        -11   -1    0    0    0    0  0.00000000000E+00  0.00000000000E+00  0.45593999997E+02  0.45594000000E+02  0.51100000000E-03 0. -1.
         11   -1    0    0    0    0 -0.00000000000E+00 -0.00000000000E+00 -0.45593999997E+02  0.45594000000E+02  0.51100000000E-03 0.  1.
    9900012    2    1    2    0    0 -0.29943111281E+02  0.26367137243E+02  0.17082371083E+02  0.47787271418E+02  0.20000001705E+02 0.  0.
        -12    1    1    2    0    0  0.29943111281E+02 -0.26367137243E+02 -0.17082371083E+02  0.43400728582E+02  0.00000000000E+00 0.  1.
         11    1    3    3    0    0 -0.17303414262E+02  0.18113245378E+02  0.46135796084E+01  0.25471217488E+02  0.51100000000E-03 0. -1.
        -11    1    3    3    0    0 -0.18419020978E+01  0.30662301712E+01 -0.15308018049E+01  0.38907229698E+01  0.51100000000E-03 0.  1.
         12    1    3    3    0    0 -0.10797794922E+02  0.51876616933E+01  0.13999593280E+02  0.18425330961E+02  0.00000000000E+00 0. -1.
</event>
<event>
 7    1  0.2642243E-009  0.4778727E+02  0.7816164E-02  0.1312668E+00
        -11   -1    0    0    0    0  0.00000000000E+00  0.00000000000E+00  0.45593999997E+02  0.45594000000E+02  0.51100000000E-03 0.  1.
         11   -1    0    0    0    0 -0.00000000000E+00 -0.00000000000E+00 -0.45593999997E+02  0.45594000000E+02  0.51100000000E-03 0. -1.
    9900012    2    1    2    0    0  0.25839596224E+02 -0.27880946889E+02 -0.20942568545E+02  0.47787272936E+02  0.20000008626E+02 0.  0.
        -12    1    1    2    0    0 -0.25839596224E+02  0.27880946889E+02  0.20942568545E+02  0.43400727064E+02  0.00000000000E+00 0.  1.
         11    1    3    3    0    0  0.10333250084E+01 -0.66771131665E+00 -0.11294217164E+01  0.16700876175E+01  0.51100000000E-03 0. -1.
        -11    1    3    3    0    0  0.15741081887E+01  0.11745694575E+01 -0.69858048961E+01  0.72566452516E+01  0.51100000000E-03 0.  1.
        -12    1    3    3    0    0  0.23232163026E+02 -0.28387805029E+02 -0.12827341932E+02  0.38860540067E+02  0.00000000000E+00 0.  1.
</event>
<event>
 7    1  0.2642243E-009  0.4778726E+02  0.7816164E-02  0.1312668E+00
        -11   -1    0    0    0    0  0.00000000000E+00  0.00000000000E+00  0.45593999997E+02  0.45594000000E+02  0.51100000000E-03 0. -1.
         11   -1    0    0    0    0 -0.00000000000E+00 -0.00000000000E+00 -0.45593999997E+02  0.45594000000E+02  0.51100000000E-03 0.  1.
    9900012    2    1    2    0    0 -0.24235403753E+02 -0.23971893145E+02  0.26862936344E+02  0.47787264925E+02  0.19999972099E+02 0.  0.
        -12    1    1    2    0    0  0.24235403753E+02  0.23971893145E+02 -0.26862936344E+02  0.43400735075E+02  0.00000000000E+00 0.  1.
         11    1    3    3    0    0 -0.13418220981E+02 -0.12111237221E+02  0.11570720675E+02  0.21461880125E+02  0.51100000000E-03 0. -1.
        -11    1    3    3    0    0  0.22013005986E+01 -0.25007405629E+01 -0.98813362498E+00  0.34750303611E+01  0.51100000000E-03 0.  1.
        -12    1    3    3    0    0 -0.13018483371E+02 -0.93599153618E+01  0.16280349294E+02  0.22850354439E+02  0.00000000000E+00 0.  1.
</event>
<event>
 7    1  0.2642243E-009  0.4778727E+02  0.7816164E-02  0.1312668E+00
        -11   -1    0    0    0    0  0.00000000000E+00  0.00000000000E+00  0.45593999997E+02  0.45594000000E+02  0.51100000000E-03 0.  1.
         11   -1    0    0    0    0 -0.00000000000E+00 -0.00000000000E+00 -0.45593999997E+02  0.45594000000E+02  0.51100000000E-03 0. -1.
    9900012    2    1    2    0    0 -0.38491681980E+02 -0.58899285618E+01 -0.19165658200E+02  0.47787270809E+02  0.19999998926E+02 0.  0.
        -12    1    1    2    0    0  0.38491681980E+02  0.58899285618E+01  0.19165658200E+02  0.43400729191E+02  0.00000000000E+00 0.  1.
         11    1    3    3    0    0 -0.34956384357E+02  0.14555501083E+01 -0.12661923834E+02  0.37207415240E+02  0.51100000000E-03 0.  1.
        -11    1    3    3    0    0 -0.33853700948E+01 -0.58830792344E+01 -0.58898956121E+01  0.89867804324E+01  0.51100000000E-03 0. -1.
        -12    1    3    3    0    0 -0.14992752768E+00 -0.14623994357E+01 -0.61383875423E+00  0.15930751361E+01  0.00000000000E+00 0.  1.
</event>
<event>
 7    1  0.2642243E-009  0.4778727E+02  0.7816164E-02  0.1312668E+00
        -11   -1    0    0    0    0  0.00000000000E+00  0.00000000000E+00  0.45593999997E+02  0.45594000000E+02  0.51100000000E-03 0.  1.
         11   -1    0    0    0    0 -0.00000000000E+00 -0.00000000000E+00 -0.45593999997E+02  0.45594000000E+02  0.51100000000E-03 0. -1.
    9900012    2    1    2    0    0 -0.23215641290E+02  0.15181588190E+02 -0.33379290911E+02  0.47787266340E+02  0.19999978553E+02 0.  0.
        -12    1    1    2    0    0  0.23215641290E+02 -0.15181588190E+02  0.33379290911E+02  0.43400733660E+02  0.00000000000E+00 0.  1.
         11    1    3    3    0    0 -0.37654842583E+01 -0.31017411967E+01  0.37403744389E-01  0.48786339740E+01  0.51100000000E-03 0. -1.
        -11    1    3    3    0    0 -0.92387658740E+00  0.10507018715E+01 -0.74469701328E+00  0.15849593920E+01  0.51100000000E-03 0.  1.
         12    1    3    3    0    0 -0.18526280444E+02  0.17232627515E+02 -0.32671997642E+02  0.41323672974E+02  0.00000000000E+00 0. -1.
</event>
<event>
 7    1  0.2642243E-009  0.4778727E+02  0.7816164E-02  0.1312668E+00
        -11   -1    0    0    0    0  0.00000000000E+00  0.00000000000E+00  0.45593999997E+02  0.45594000000E+02  0.51100000000E-03 0.  1.
         11   -1    0    0    0    0 -0.00000000000E+00 -0.00000000000E+00 -0.45593999997E+02  0.45594000000E+02  0.51100000000E-03 0. -1.
    9900012    2    1    2    0    0 -0.20234776670E+02 -0.35430885382E+02  0.14792892166E+02  0.47787268619E+02  0.19999988940E+02 0.  0.
        -12    1    1    2    0    0  0.20234776670E+02  0.35430885382E+02 -0.14792892166E+02  0.43400731381E+02  0.00000000000E+00 0.  1.
         11    1    3    3    0    0 -0.18745585215E+01 -0.13700087947E+02  0.46058606188E+01  0.14574646881E+02  0.51100000000E-03 0. -1.
        -11    1    3    3    0    0 -0.20633897958E+02 -0.20158214366E+02  0.93657410460E+01  0.30328673841E+02  0.51100000000E-03 0.  1.
        -12    1    3    3    0    0  0.22736798094E+01 -0.15725830683E+01  0.82129050137E+00  0.28839478965E+01  0.00000000000E+00 0.  1.
</event>
<event>
 7    1  0.2642243E-009  0.4778727E+02  0.7816164E-02  0.1312668E+00
        -11   -1    0    0    0    0  0.00000000000E+00  0.00000000000E+00  0.45593999997E+02  0.45594000000E+02  0.51100000000E-03 0.  1.
         11   -1    0    0    0    0 -0.00000000000E+00 -0.00000000000E+00 -0.45593999997E+02  0.45594000000E+02  0.51100000000E-03 0. -1.
    9900012    2    1    2    0    0 -0.98375763862E+01 -0.30886479256E+02 -0.28859506271E+02  0.47787267147E+02  0.19999982230E+02 0.  0.
        -12    1    1    2    0    0  0.98375763862E+01  0.30886479256E+02  0.28859506271E+02  0.43400732853E+02  0.00000000000E+00 0.  1.
         11    1    3    3    0    0 -0.58656229451E+01 -0.27208245629E+02 -0.31035190396E+02  0.41687854417E+02  0.51100000000E-03 0. -1.
        -11    1    3    3    0    0 -0.12754796014E+01 -0.21811304565E+01  0.15122347299E+01  0.29446616820E+01  0.51100000000E-03 0.  1.
         12    1    3    3    0    0 -0.26964738398E+01 -0.14971031707E+01  0.66344939570E+00  0.31547510477E+01  0.00000000000E+00 0. -1.
</event>
<event>
 7    1  0.2642243E-009  0.4778727E+02  0.7816164E-02  0.1312668E+00
        -11   -1    0    0    0    0  0.00000000000E+00  0.00000000000E+00  0.45593999997E+02  0.45594000000E+02  0.51100000000E-03 0.  1.
         11   -1    0    0    0    0 -0.00000000000E+00 -0.00000000000E+00 -0.45593999997E+02  0.45594000000E+02  0.51100000000E-03 0. -1.
    9900012    2    1    2    0    0  0.18670645021E+01  0.34928438323E+01 -0.43219638885E+02  0.47787273355E+02  0.20000010537E+02 0.  0.
        -12    1    1    2    0    0 -0.18670645021E+01 -0.34928438323E+01  0.43219638885E+02  0.43400726645E+02  0.00000000000E+00 0.  1.
         11    1    3    3    0    0  0.22917896469E+01  0.42854991358E+01 -0.14678842522E+02  0.15462413159E+02  0.51100000000E-03 0. -1.
        -11    1    3    3    0    0  0.47074675514E+01 -0.59456284573E+01 -0.17857213559E+02  0.19400794438E+02  0.51100000000E-03 0.  1.
        -12    1    3    3    0    0 -0.51321926962E+01  0.51529731538E+01 -0.10683582804E+02  0.12924065759E+02  0.00000000000E+00 0.  1.
</event>
<event>
 7    1  0.2642243E-009  0.4778727E+02  0.7816164E-02  0.1312668E+00
        -11   -1    0    0    0    0  0.00000000000E+00  0.00000000000E+00  0.45593999997E+02  0.45594000000E+02  0.51100000000E-03 0. -1.
         11   -1    0    0    0    0 -0.00000000000E+00 -0.00000000000E+00 -0.45593999997E+02  0.45594000000E+02  0.51100000000E-03 0.  1.
    9900012    2    1    2    0    0  0.24444235572E+02  0.17726005379E+02  0.31175170296E+02  0.47787272329E+02  0.20000005856E+02 0.  0.
        -12    1    1    2    0    0 -0.24444235572E+02 -0.17726005379E+02 -0.31175170296E+02  0.43400727671E+02  0.00000000000E+00 0.  1.
         11    1    3    3    0    0  0.40290491859E+01  0.88056855139E+01  0.13186394410E+02  0.16360144636E+02  0.51100000000E-03 0. -1.
        -11    1    3    3    0    0  0.15208473816E+02 -0.25884051048E+00  0.10291877067E+02  0.18365386139E+02  0.51100000000E-03 0.  1.
        -12    1    3    3    0    0  0.52067125707E+01  0.91791603754E+01  0.76968988194E+01  0.13061741554E+02  0.00000000000E+00 0.  1.
</event>
<event>
 7    1  0.2642243E-009  0.4778727E+02  0.7816164E-02  0.1312668E+00
        -11   -1    0    0    0    0  0.00000000000E+00  0.00000000000E+00  0.45593999997E+02  0.45594000000E+02  0.51100000000E-03 0. -1.
         11   -1    0    0    0    0 -0.00000000000E+00 -0.00000000000E+00 -0.45593999997E+02  0.45594000000E+02  0.51100000000E-03 0.  1.
    9900012    2    1    2    0    0 -0.25594540813E+02  0.33229984397E+02  0.11149476141E+02  0.47787271888E+02  0.20000003847E+02 0.  0.
        -12    1    1    2    0    0  0.25594540813E+02 -0.33229984397E+02 -0.11149476141E+02  0.43400728112E+02  0.00000000000E+00 0.  1.
         11    1    3    3    0    0 -0.15493778214E+02  0.24633072453E+02  0.14695391983E+02  0.32600612994E+02  0.51100000000E-03 0. -1.
        -11    1    3    3    0    0 -0.29605493507E+01  0.52716466079E+01 -0.40769460329E+01  0.72922287151E+01  0.51100000000E-03 0.  1.
        -12    1    3    3    0    0 -0.71402132483E+01  0.33252653358E+01  0.53103019095E+00  0.78944301789E+01  0.00000000000E+00 0.  1.
</event>
<event>
 7    1  0.2642243E-009  0.4778727E+02  0.7816164E-02  0.1312668E+00
        -11   -1    0    0    0    0  0.00000000000E+00  0.00000000000E+00  0.45593999997E+02  0.45594000000E+02  0.51100000000E-03 0.  1.
         11   -1    0    0    0    0 -0.00000000000E+00 -0.00000000000E+00 -0.45593999997E+02  0.45594000000E+02  0.51100000000E-03 0. -1.
    9900012    2    1    2    0    0 -0.15927089888E+02 -0.24142321752E+01 -0.40300402266E+02  0.47787272678E+02  0.20000007449E+02 0.  0.
        -12    1    1    2    0    0  0.15927089888E+02  0.24142321752E+01  0.40300402266E+02  0.43400727322E+02  0.00000000000E+00 0.  1.
         11    1    3    3    0    0  0.10820884607E+01  0.20988489969E+01 -0.14447500907E+02  0.14639206443E+02  0.51100000000E-03 0. -1.
        -11    1    3    3    0    0 -0.48202523362E+01 -0.62075009202E+01 -0.64283104541E+01  0.10153377557E+02  0.51100000000E-03 0.  1.
        -12    1    3    3    0    0 -0.12188926013E+02  0.16944197480E+01 -0.19424590904E+02  0.22994688678E+02  0.00000000000E+00 0.  1.
</event>
<event>
 7    1  0.2642243E-009  0.4778727E+02  0.7816164E-02  0.1312668E+00
        -11   -1    0    0    0    0  0.00000000000E+00  0.00000000000E+00  0.45593999997E+02  0.45594000000E+02  0.51100000000E-03 0.  1.
         11   -1    0    0    0    0 -0.00000000000E+00 -0.00000000000E+00 -0.45593999997E+02  0.45594000000E+02  0.51100000000E-03 0. -1.
    9900012    2    1    2    0    0  0.31731875558E+02 -0.28178554347E+02 -0.90928813463E+01  0.47787270252E+02  0.19999996387E+02 0.  0.
        -12    1    1    2    0    0 -0.31731875558E+02  0.28178554347E+02  0.90928813463E+01  0.43400729748E+02  0.00000000000E+00 0.  1.
         11    1    3    3    0    0  0.10485664520E+02 -0.19673875946E+01 -0.63196656295E+01  0.12399917270E+02  0.51100000000E-03 0. -1.
        -11    1    3    3    0    0  0.14381086963E+02 -0.22833407608E+02 -0.49446435805E+01  0.27434096771E+02  0.51100000000E-03 0.  1.
        -12    1    3    3    0    0  0.68651240743E+01 -0.33777591447E+01  0.21714278636E+01  0.79532562113E+01  0.00000000000E+00 0.  1.
</event>
<event>
 7    1  0.2642243E-009  0.4778727E+02  0.7816164E-02  0.1312668E+00
        -11   -1    0    0    0    0  0.00000000000E+00  0.00000000000E+00  0.45593999997E+02  0.45594000000E+02  0.51100000000E-03 0. -1.
         11   -1    0    0    0    0 -0.00000000000E+00 -0.00000000000E+00 -0.45593999997E+02  0.45594000000E+02  0.51100000000E-03 0.  1.
    9900012    2    1    2    0    0  0.37863528610E+02  0.61521638511E+01  0.20300916633E+02  0.47787272645E+02  0.20000007297E+02 0.  0.
        -12    1    1    2    0    0 -0.37863528610E+02 -0.61521638511E+01 -0.20300916633E+02  0.43400727355E+02  0.00000000000E+00 0.  1.
         11    1    3    3    0    0  0.29542577506E+02 -0.29019352673E+01  0.12094152151E+02  0.32053917553E+02  0.51100000000E-03 0. -1.
        -11    1    3    3    0    0  0.55291941935E+01  0.82626806204E+01  0.42156736412E+01  0.10798878830E+02  0.51100000000E-03 0.  1.
         12    1    3    3    0    0  0.27917569101E+01  0.79141849798E+00  0.39910908402E+01  0.49344762619E+01  0.00000000000E+00 0. -1.
</event>
<event>
 7    1  0.2642243E-009  0.4778727E+02  0.7816164E-02  0.1312668E+00
        -11   -1    0    0    0    0  0.00000000000E+00  0.00000000000E+00  0.45593999997E+02  0.45594000000E+02  0.51100000000E-03 0.  1.
         11   -1    0    0    0    0 -0.00000000000E+00 -0.00000000000E+00 -0.45593999997E+02  0.45594000000E+02  0.51100000000E-03 0. -1.
    9900012    2    1    2    0    0  0.37621368510E+02  0.14231265399E+01 -0.21592373983E+02  0.47787271067E+02  0.20000000102E+02 0.  0.
        -12    1    1    2    0    0 -0.37621368510E+02 -0.14231265399E+01  0.21592373983E+02  0.43400728933E+02  0.00000000000E+00 0.  1.
         11    1    3    3    0    0  0.15625359987E+02 -0.43492525010E+01 -0.12866459386E+02  0.20702986486E+02  0.51100000000E-03 0. -1.
        -11    1    3    3    0    0  0.22314058195E+02  0.40232605946E+01 -0.10115396466E+02  0.24827908992E+02  0.51100000000E-03 0.  1.
         12    1    3    3    0    0 -0.31804967252E+00  0.17491184463E+01  0.13894818697E+01  0.22563755893E+01  0.00000000000E+00 0. -1.
</event>
<event>
 7    1  0.2642243E-009  0.4778728E+02  0.7816164E-02  0.1312668E+00
        -11   -1    0    0    0    0  0.00000000000E+00  0.00000000000E+00  0.45593999997E+02  0.45594000000E+02  0.51100000000E-03 0. -1.
         11   -1    0    0    0    0 -0.00000000000E+00 -0.00000000000E+00 -0.45593999997E+02  0.45594000000E+02  0.51100000000E-03 0.  1.
    9900012    2    1    2    0    0 -0.58574410343E+01 -0.42973438927E+02  0.16114468277E+01  0.47787276163E+02  0.20000023338E+02 0.  0.
        -12    1    1    2    0    0  0.58574410343E+01  0.42973438927E+02 -0.16114468277E+01  0.43400723837E+02  0.00000000000E+00 0.  1.
         11    1    3    3    0    0  0.29901540318E+01 -0.12277198224E+02  0.68836740201E+01  0.14389426175E+02  0.51100000000E-03 0. -1.
        -11    1    3    3    0    0 -0.15686728496E+00 -0.15673130997E+01  0.15868172227E+01  0.22358593107E+01  0.51100000000E-03 0.  1.
         12    1    3    3    0    0 -0.86907277812E+01 -0.29128927604E+02 -0.68590444151E+01  0.31161990678E+02  0.00000000000E+00 0. -1.
</event>
<event>
 7    1  0.2642243E-009  0.4778727E+02  0.7816164E-02  0.1312668E+00
        -11   -1    0    0    0    0  0.00000000000E+00  0.00000000000E+00  0.45593999997E+02  0.45594000000E+02  0.51100000000E-03 0. -1.
         11   -1    0    0    0    0 -0.00000000000E+00 -0.00000000000E+00 -0.45593999997E+02  0.45594000000E+02  0.51100000000E-03 0.  1.
    9900012    2    1    2    0    0 -0.41564566071E+02 -0.16743822677E+01 -0.12377675019E+02  0.47787267892E+02  0.19999985625E+02 0.  0.
        -12    1    1    2    0    0  0.41564566071E+02  0.16743822677E+01  0.12377675019E+02  0.43400732108E+02  0.00000000000E+00 0.  1.
         11    1    3    3    0    0 -0.23890892428E+02  0.54762469563E+01 -0.64679806742E+01  0.25349532461E+02  0.51100000000E-03 0. -1.
        -11    1    3    3    0    0 -0.18339033508E+02 -0.80991432642E+01 -0.65789302029E+01  0.21099729725E+02  0.51100000000E-03 0.  1.
         12    1    3    3    0    0  0.66535986432E+00  0.94851404017E+00  0.66923585823E+00  0.13380057053E+01  0.00000000000E+00 0. -1.
</event>
<event>
 7    1  0.2642243E-009  0.4778727E+02  0.7816164E-02  0.1312668E+00
        -11   -1    0    0    0    0  0.00000000000E+00  0.00000000000E+00  0.45593999997E+02  0.45594000000E+02  0.51100000000E-03 0. -1.
         11   -1    0    0    0    0 -0.00000000000E+00 -0.00000000000E+00 -0.45593999997E+02  0.45594000000E+02  0.51100000000E-03 0.  1.
    9900012    2    1    2    0    0 -0.41574914636E+02  0.96102901739E+01 -0.79241413002E+01  0.47787271670E+02  0.20000002853E+02 0.  0.
        -12    1    1    2    0    0  0.41574914636E+02 -0.96102901739E+01  0.79241413002E+01  0.43400728330E+02  0.00000000000E+00 0.  1.
         11    1    3    3    0    0 -0.16771292157E+02 -0.35976041700E+00  0.28404379063E+01  0.17013928293E+02  0.51100000000E-03 0. -1.
        -11    1    3    3    0    0 -0.58164486756E+01  0.47386758379E+01 -0.78597147783E+01  0.10865598950E+02  0.51100000000E-03 0.  1.
        -12    1    3    3    0    0 -0.18987173803E+02  0.52313747530E+01 -0.29048644282E+01  0.19907744427E+02  0.00000000000E+00 0.  1.
</event>
<event>
 7    1  0.2642243E-009  0.4778727E+02  0.7816164E-02  0.1312668E+00
        -11   -1    0    0    0    0  0.00000000000E+00  0.00000000000E+00  0.45593999997E+02  0.45594000000E+02  0.51100000000E-03 0.  1.
         11   -1    0    0    0    0 -0.00000000000E+00 -0.00000000000E+00 -0.45593999997E+02  0.45594000000E+02  0.51100000000E-03 0. -1.
    9900012    2    1    2    0    0 -0.23619729329E+02  0.59107082564E+01 -0.35927641527E+02  0.47787268308E+02  0.19999987526E+02 0.  0.
        -12    1    1    2    0    0  0.23619729329E+02 -0.59107082564E+01  0.35927641527E+02  0.43400731692E+02  0.00000000000E+00 0.  1.
         11    1    3    3    0    0 -0.24017471184E+01 -0.38081550696E+01 -0.12716767963E+02  0.13490241730E+02  0.51100000000E-03 0. -1.
        -11    1    3    3    0    0 -0.16175670549E+01 -0.15558900030E+01 -0.41717740133E+01  0.47371949039E+01  0.51100000000E-03 0.  1.
         12    1    3    3    0    0 -0.19600415156E+02  0.11274753329E+02 -0.19039099550E+02  0.29559831674E+02  0.00000000000E+00 0. -1.
</event>
<event>
 7    1  0.2642243E-009  0.4778727E+02  0.7816164E-02  0.1312668E+00
        -11   -1    0    0    0    0  0.00000000000E+00  0.00000000000E+00  0.45593999997E+02  0.45594000000E+02  0.51100000000E-03 0.  1.
         11   -1    0    0    0    0 -0.00000000000E+00 -0.00000000000E+00 -0.45593999997E+02  0.45594000000E+02  0.51100000000E-03 0. -1.
    9900012    2    1    2    0    0  0.19755301108E+02  0.71578479207E+01 -0.37975212633E+02  0.47787268632E+02  0.19999989000E+02 0.  0.
        -12    1    1    2    0    0 -0.19755301108E+02 -0.71578479207E+01  0.37975212633E+02  0.43400731368E+02  0.00000000000E+00 0.  1.
         11    1    3    3    0    0 -0.14995593326E+01 -0.14772893416E+01 -0.80482717903E+01  0.83189988017E+01  0.51100000000E-03 0.  1.
        -11    1    3    3    0    0  0.20312523034E+02  0.77765898596E+01 -0.20281931464E+02  0.29739379382E+02  0.51100000000E-03 0. -1.
         12    1    3    3    0    0  0.94233740708E+00  0.85854740270E+00 -0.96450093792E+01  0.97288904484E+01  0.00000000000E+00 0. -1.
</event>
<event>
 7    1  0.2642243E-009  0.4778728E+02  0.7816164E-02  0.1312668E+00
        -11   -1    0    0    0    0  0.00000000000E+00  0.00000000000E+00  0.45593999997E+02  0.45594000000E+02  0.51100000000E-03 0. -1.
         11   -1    0    0    0    0 -0.00000000000E+00 -0.00000000000E+00 -0.45593999997E+02  0.45594000000E+02  0.51100000000E-03 0.  1.
    9900012    2    1    2    0    0 -0.18262277263E+01  0.18804246946E+02  0.39072855668E+02  0.47787275801E+02  0.20000021689E+02 0.  0.
        -12    1    1    2    0    0  0.18262277263E+01 -0.18804246946E+02 -0.39072855668E+02  0.43400724199E+02  0.00000000000E+00 0.  1.
         11    1    3    3    0    0  0.65835075953E+00  0.29928142394E+00  0.98011234890E+01  0.98277676510E+01  0.51100000000E-03 0. -1.
        -11    1    3    3    0    0  0.30229697392E+01  0.41907813434E+01  0.29689717274E+00  0.51758228819E+01  0.51100000000E-03 0.  1.
        -12    1    3    3    0    0 -0.55075482250E+01  0.14314184179E+02  0.28974835006E+02  0.32783685269E+02  0.00000000000E+00 0.  1.
</event>
<event>
 7    1  0.2642243E-009  0.4778727E+02  0.7816164E-02  0.1312668E+00
        -11   -1    0    0    0    0  0.00000000000E+00  0.00000000000E+00  0.45593999997E+02  0.45594000000E+02  0.51100000000E-03 0.  1.
         11   -1    0    0    0    0 -0.00000000000E+00 -0.00000000000E+00 -0.45593999997E+02  0.45594000000E+02  0.51100000000E-03 0. -1.
    9900012    2    1    2    0    0  0.40526000140E+02 -0.15518063480E+02  0.67574325723E+00  0.47787267166E+02  0.19999982318E+02 0.  0.
        -12    1    1    2    0    0 -0.40526000140E+02  0.15518063480E+02 -0.67574325723E+00  0.43400732834E+02  0.00000000000E+00 0.  1.
         11    1    3    3    0    0  0.29463074751E+02 -0.16462876568E+02  0.17583185126E+01  0.33796312860E+02  0.51100000000E-03 0. -1.
        -11    1    3    3    0    0  0.26830377564E+00 -0.20391367005E+01 -0.18485192584E+01  0.27653370698E+01  0.51100000000E-03 0.  1.
         12    1    3    3    0    0  0.10794621614E+02  0.29839497886E+01  0.76594400303E+00  0.11225617236E+02  0.00000000000E+00 0. -1.
</event>
<event>
 7    1  0.2642243E-009  0.4778727E+02  0.7816164E-02  0.1312668E+00
        -11   -1    0    0    0    0  0.00000000000E+00  0.00000000000E+00  0.45593999997E+02  0.45594000000E+02  0.51100000000E-03 0.  1.
         11   -1    0    0    0    0 -0.00000000000E+00 -0.00000000000E+00 -0.45593999997E+02  0.45594000000E+02  0.51100000000E-03 0. -1.
    9900012    2    1    2    0    0  0.28090377435E+02  0.92838652255E+01 -0.31754746751E+02  0.47787269601E+02  0.19999993417E+02 0.  0.
        -12    1    1    2    0    0 -0.28090377435E+02 -0.92838652255E+01  0.31754746751E+02  0.43400730399E+02  0.00000000000E+00 0.  1.
         11    1    3    3    0    0  0.13329537715E+02  0.12250262452E+02 -0.23468148254E+02  0.29639492044E+02  0.51100000000E-03 0. -1.
        -11    1    3    3    0    0  0.96808690076E+01 -0.24025656210E+01 -0.83924457862E+01  0.13035516593E+02  0.51100000000E-03 0.  1.
         12    1    3    3    0    0  0.50799707122E+01 -0.56383160577E+00  0.10584728952E+00  0.51122609641E+01  0.00000000000E+00 0. -1.
</event>
<event>
 7    1  0.2642243E-009  0.4778727E+02  0.7816164E-02  0.1312668E+00
        -11   -1    0    0    0    0  0.00000000000E+00  0.00000000000E+00  0.45593999997E+02  0.45594000000E+02  0.51100000000E-03 0. -1.
         11   -1    0    0    0    0 -0.00000000000E+00 -0.00000000000E+00 -0.45593999997E+02  0.45594000000E+02  0.51100000000E-03 0.  1.
    9900012    2    1    2    0    0 -0.23856800644E+01 -0.11002296734E+02  0.41915165962E+02  0.47787272582E+02  0.20000007012E+02 0.  0.
        -12    1    1    2    0    0  0.23856800644E+01  0.11002296734E+02 -0.41915165962E+02  0.43400727418E+02  0.00000000000E+00 0.  1.
         11    1    3    3    0    0  0.38988006210E+01 -0.32604264734E+01  0.26552824643E+02  0.27034857570E+02  0.51100000000E-03 0. -1.
        -11    1    3    3    0    0 -0.80828148277E+01 -0.86020017083E+01  0.11925356033E+02  0.16779167015E+02  0.51100000000E-03 0.  1.
        -12    1    3    3    0    0  0.17983341423E+01  0.86013144733E+00  0.34369852858E+01  0.39732479974E+01  0.00000000000E+00 0.  1.
</event>
<event>
 7    1  0.2642243E-009  0.4778727E+02  0.7816164E-02  0.1312668E+00
        -11   -1    0    0    0    0  0.00000000000E+00  0.00000000000E+00  0.45593999997E+02  0.45594000000E+02  0.51100000000E-03 0.  1.
         11   -1    0    0    0    0 -0.00000000000E+00 -0.00000000000E+00 -0.45593999997E+02  0.45594000000E+02  0.51100000000E-03 0. -1.
    9900012    2    1    2    0    0 -0.25165415395E+02  0.10622243483E+02 -0.33726743016E+02  0.47787269786E+02  0.19999994264E+02 0.  0.
        -12    1    1    2    0    0  0.25165415395E+02 -0.10622243483E+02  0.33726743016E+02  0.43400730214E+02  0.00000000000E+00 0.  1.
         11    1    3    3    0    0 -0.12390609410E+02  0.68835557133E+01 -0.79994489507E+01  0.16275801811E+02  0.51100000000E-03 0. -1.
        -11    1    3    3    0    0 -0.14734138215E+02  0.28457872678E+01 -0.25142375545E+02  0.29280238769E+02  0.51100000000E-03 0.  1.
        -12    1    3    3    0    0  0.19593322300E+01  0.89290050187E+00 -0.58491852027E+00  0.22312292059E+01  0.00000000000E+00 0.  1.
</event>
<event>
 7    1  0.2642243E-009  0.4778727E+02  0.7816164E-02  0.1312668E+00
        -11   -1    0    0    0    0  0.00000000000E+00  0.00000000000E+00  0.45593999997E+02  0.45594000000E+02  0.51100000000E-03 0. -1.
         11   -1    0    0    0    0 -0.00000000000E+00 -0.00000000000E+00 -0.45593999997E+02  0.45594000000E+02  0.51100000000E-03 0.  1.
    9900012    2    1    2    0    0  0.58077966715E+00  0.32120309925E+02  0.29181700878E+02  0.47787270964E+02  0.19999999634E+02 0.  0.
        -12    1    1    2    0    0 -0.58077966715E+00 -0.32120309925E+02 -0.29181700878E+02  0.43400729036E+02  0.00000000000E+00 0.  1.
         11    1    3    3    0    0 -0.25022011423E+01  0.16436871386E+01 -0.66545716206E+00  0.30668471533E+01  0.51100000000E-03 0. -1.
        -11    1    3    3    0    0  0.12108246630E+01 -0.11108755682E+01  0.17919764278E+01  0.24313207669E+01  0.51100000000E-03 0.  1.
         12    1    3    3    0    0  0.18721561465E+01  0.31587498355E+02  0.28055181613E+02  0.42289103044E+02  0.00000000000E+00 0. -1.
</event>
<event>
 7    1  0.2642243E-009  0.4778727E+02  0.7816164E-02  0.1312668E+00
        -11   -1    0    0    0    0  0.00000000000E+00  0.00000000000E+00  0.45593999997E+02  0.45594000000E+02  0.51100000000E-03 0.  1.
         11   -1    0    0    0    0 -0.00000000000E+00 -0.00000000000E+00 -0.45593999997E+02  0.45594000000E+02  0.51100000000E-03 0. -1.
    9900012    2    1    2    0    0  0.31371413490E+02 -0.22105686692E+02 -0.20268111927E+02  0.47787270403E+02  0.19999997076E+02 0.  0.
        -12    1    1    2    0    0 -0.31371413490E+02  0.22105686692E+02  0.20268111927E+02  0.43400729597E+02  0.00000000000E+00 0.  1.
         11    1    3    3    0    0  0.23805869257E+02 -0.21792986189E+02 -0.15627817818E+02  0.35859201722E+02  0.51100000000E-03 0. -1.
        -11    1    3    3    0    0  0.24443114711E+01 -0.10861939760E+01 -0.60034601565E+01  0.65723671560E+01  0.51100000000E-03 0.  1.
         12    1    3    3    0    0  0.51212327612E+01  0.77349347348E+00  0.13631660479E+01  0.53557015248E+01  0.00000000000E+00 0. -1.
</event>
<event>
 7    1  0.2642243E-009  0.4778727E+02  0.7816164E-02  0.1312668E+00
        -11   -1    0    0    0    0  0.00000000000E+00  0.00000000000E+00  0.45593999997E+02  0.45594000000E+02  0.51100000000E-03 0. -1.
         11   -1    0    0    0    0 -0.00000000000E+00 -0.00000000000E+00 -0.45593999997E+02  0.45594000000E+02  0.51100000000E-03 0.  1.
    9900012    2    1    2    0    0  0.17558347247E+02 -0.14510431078E+02  0.36942864057E+02  0.47787269904E+02  0.19999994799E+02 0.  0.
        -12    1    1    2    0    0 -0.17558347247E+02  0.14510431078E+02 -0.36942864057E+02  0.43400730096E+02  0.00000000000E+00 0.  1.
         11    1    3    3    0    0  0.12258239708E+02 -0.40186479654E+01  0.17705720786E+02  0.21906768840E+02  0.51100000000E-03 0. -1.
        -11    1    3    3    0    0 -0.32873499028E+01 -0.32547982933E+01  0.14558252478E+01  0.48497225412E+01  0.51100000000E-03 0.  1.
        -12    1    3    3    0    0  0.85874574417E+01 -0.72369848197E+01  0.17781318024E+02  0.21030778522E+02  0.00000000000E+00 0.  1.
</event>
<event>
 7    1  0.2642243E-009  0.4778728E+02  0.7816164E-02  0.1312668E+00
        -11   -1    0    0    0    0  0.00000000000E+00  0.00000000000E+00  0.45593999997E+02  0.45594000000E+02  0.51100000000E-03 0. -1.
         11   -1    0    0    0    0 -0.00000000000E+00 -0.00000000000E+00 -0.45593999997E+02  0.45594000000E+02  0.51100000000E-03 0.  1.
    9900012    2    1    2    0    0  0.33459225086E+01 -0.39373767081E+02  0.17948078758E+02  0.47787282694E+02  0.20000053114E+02 0.  0.
        -12    1    1    2    0    0 -0.33459225086E+01  0.39373767081E+02 -0.17948078758E+02  0.43400717306E+02  0.00000000000E+00 0.  1.
         11    1    3    3    0    0  0.60239923974E+01 -0.31264903914E+02  0.12288285607E+02  0.34128941744E+02  0.51100000000E-03 0. -1.
        -11    1    3    3    0    0 -0.58223444250E+00  0.19222560352E+01  0.18336988038E+01  0.27196537969E+01  0.51100000000E-03 0.  1.
        -12    1    3    3    0    0 -0.20958354462E+01 -0.10031119202E+02  0.38260943470E+01  0.10938687152E+02  0.00000000000E+00 0.  1.
</event>
<event>
 7    1  0.2642243E-009  0.4778727E+02  0.7816164E-02  0.1312668E+00
        -11   -1    0    0    0    0  0.00000000000E+00  0.00000000000E+00  0.45593999997E+02  0.45594000000E+02  0.51100000000E-03 0.  1.
         11   -1    0    0    0    0 -0.00000000000E+00 -0.00000000000E+00 -0.45593999997E+02  0.45594000000E+02  0.51100000000E-03 0. -1.
    9900012    2    1    2    0    0 -0.15995396298E+02 -0.50199647647E+00 -0.40342517477E+02  0.47787269366E+02  0.19999992347E+02 0.  0.
        -12    1    1    2    0    0  0.15995396298E+02  0.50199647647E+00  0.40342517477E+02  0.43400730634E+02  0.00000000000E+00 0.  1.
         11    1    3    3    0    0 -0.62273159659E+00 -0.41149388513E+01 -0.21561915187E+01  0.46871823644E+01  0.51100000000E-03 0.  1.
        -11    1    3    3    0    0 -0.16954821678E+02  0.33074144207E+01 -0.37612330656E+02  0.41389520242E+02  0.51100000000E-03 0. -1.
         12    1    3    3    0    0  0.15821569767E+01  0.30552795408E+00 -0.57399530272E+00  0.17105667590E+01  0.00000000000E+00 0. -1.
</event>
<event>
 7    1  0.2642243E-009  0.4778727E+02  0.7816164E-02  0.1312668E+00
        -11   -1    0    0    0    0  0.00000000000E+00  0.00000000000E+00  0.45593999997E+02  0.45594000000E+02  0.51100000000E-03 0. -1.
         11   -1    0    0    0    0 -0.00000000000E+00 -0.00000000000E+00 -0.45593999997E+02  0.45594000000E+02  0.51100000000E-03 0.  1.
    9900012    2    1    2    0    0 -0.42183426414E+02  0.16781585971E+00  0.10205561296E+02  0.47787272960E+02  0.20000008736E+02 0.  0.
        -12    1    1    2    0    0  0.42183426414E+02 -0.16781585971E+00 -0.10205561296E+02  0.43400727040E+02  0.00000000000E+00 0.  1.
         11    1    3    3    0    0 -0.31620060709E+02  0.27144442425E+01  0.61729113662E+01  0.32331119402E+02  0.51100000000E-03 0. -1.
        -11    1    3    3    0    0 -0.54389718771E+01 -0.35998355631E+01  0.68963448629E+01  0.94921443252E+01  0.51100000000E-03 0.  1.
        -12    1    3    3    0    0 -0.51243938280E+01  0.10532071803E+01 -0.28636949327E+01  0.59640092334E+01  0.00000000000E+00 0.  1.
</event>
<event>
 7    1  0.2642243E-009  0.4778727E+02  0.7816164E-02  0.1312668E+00
        -11   -1    0    0    0    0  0.00000000000E+00  0.00000000000E+00  0.45593999997E+02  0.45594000000E+02  0.51100000000E-03 0.  1.
         11   -1    0    0    0    0 -0.00000000000E+00 -0.00000000000E+00 -0.45593999997E+02  0.45594000000E+02  0.51100000000E-03 0. -1.
    9900012    2    1    2    0    0  0.96671562553E+01  0.42155952854E+02 -0.36117924345E+01  0.47787270563E+02  0.19999997803E+02 0.  0.
        -12    1    1    2    0    0 -0.96671562553E+01 -0.42155952854E+02  0.36117924345E+01  0.43400729437E+02  0.00000000000E+00 0.  1.
         11    1    3    3    0    0  0.57064302611E+01  0.13767622380E+02  0.86013535940E+00  0.14928181585E+02  0.51100000000E-03 0. -1.
        -11    1    3    3    0    0 -0.41730354730E+01  0.10974614938E+02 -0.66874362294E+01  0.13512150150E+02  0.51100000000E-03 0.  1.
        -12    1    3    3    0    0  0.81337614671E+01  0.17413715536E+02  0.22155084355E+01  0.19346938827E+02  0.00000000000E+00 0.  1.
</event>
<event>
 7    1  0.2642243E-009  0.4778727E+02  0.7816164E-02  0.1312668E+00
        -11   -1    0    0    0    0  0.00000000000E+00  0.00000000000E+00  0.45593999997E+02  0.45594000000E+02  0.51100000000E-03 0.  1.
         11   -1    0    0    0    0 -0.00000000000E+00 -0.00000000000E+00 -0.45593999997E+02  0.45594000000E+02  0.51100000000E-03 0. -1.
    9900012    2    1    2    0    0 -0.37735989960E+01 -0.11583615857E+02 -0.41655765943E+02  0.47787273716E+02  0.20000012179E+02 0.  0.
        -12    1    1    2    0    0  0.37735989960E+01  0.11583615857E+02  0.41655765943E+02  0.43400726284E+02  0.00000000000E+00 0.  1.
         11    1    3    3    0    0 -0.46963587328E+01 -0.12676156000E+02 -0.22594229528E+02  0.26329449757E+02  0.51100000000E-03 0. -1.
        -11    1    3    3    0    0  0.50482192908E+01 -0.93293428229E+00 -0.11739751757E+02  0.12813143875E+02  0.51100000000E-03 0.  1.
         12    1    3    3    0    0 -0.41254595539E+01  0.20254744247E+01 -0.73217846575E+01  0.86446800835E+01  0.00000000000E+00 0. -1.
</event>
<event>
 7    1  0.2642243E-009  0.4778727E+02  0.7816164E-02  0.1312668E+00
        -11   -1    0    0    0    0  0.00000000000E+00  0.00000000000E+00  0.45593999997E+02  0.45594000000E+02  0.51100000000E-03 0. -1.
         11   -1    0    0    0    0 -0.00000000000E+00 -0.00000000000E+00 -0.45593999997E+02  0.45594000000E+02  0.51100000000E-03 0.  1.
    9900012    2    1    2    0    0 -0.42178432084E+02 -0.82777405563E+01 -0.60068632404E+01  0.47787268120E+02  0.19999986665E+02 0.  0.
        -12    1    1    2    0    0  0.42178432084E+02  0.82777405563E+01  0.60068632404E+01  0.43400731880E+02  0.00000000000E+00 0.  1.
         11    1    3    3    0    0 -0.23683016657E+02  0.53869812783E+01 -0.40015200796E+01  0.24615381543E+02  0.51100000000E-03 0. -1.
        -11    1    3    3    0    0 -0.34367920068E+01 -0.22252313986E+01 -0.10990355189E+01  0.42392302849E+01  0.51100000000E-03 0.  1.
         12    1    3    3    0    0 -0.15058623420E+02 -0.11439490436E+02 -0.90630764195E+00  0.18932656292E+02  0.00000000000E+00 0. -1.
</event>
<event>
 7    1  0.2642243E-009  0.4778727E+02  0.7816164E-02  0.1312668E+00
        -11   -1    0    0    0    0  0.00000000000E+00  0.00000000000E+00  0.45593999997E+02  0.45594000000E+02  0.51100000000E-03 0.  1.
         11   -1    0    0    0    0 -0.00000000000E+00 -0.00000000000E+00 -0.45593999997E+02  0.45594000000E+02  0.51100000000E-03 0. -1.
    9900012    2    1    2    0    0 -0.29353333673E+01  0.35830317627E+02 -0.24314509762E+02  0.47787271571E+02  0.20000002401E+02 0.  0.
        -12    1    1    2    0    0  0.29353333673E+01 -0.35830317627E+02  0.24314509762E+02  0.43400728429E+02  0.00000000000E+00 0.  1.
         11    1    3    3    0    0 -0.94747735945E+01  0.18457443880E+02 -0.18744190943E+02  0.27960566224E+02  0.51100000000E-03 0. -1.
        -11    1    3    3    0    0  0.51161966075E+01  0.16618916258E+02 -0.53964024817E+01  0.18206729671E+02  0.51100000000E-03 0.  1.
        -12    1    3    3    0    0  0.14232436197E+01  0.75395748944E+00 -0.17391633733E+00  0.16199756755E+01  0.00000000000E+00 0.  1.
</event>
<event>
 7    1  0.2642243E-009  0.4778726E+02  0.7816164E-02  0.1312668E+00
        -11   -1    0    0    0    0  0.00000000000E+00  0.00000000000E+00  0.45593999997E+02  0.45594000000E+02  0.51100000000E-03 0.  1.
         11   -1    0    0    0    0 -0.00000000000E+00 -0.00000000000E+00 -0.45593999997E+02  0.45594000000E+02  0.51100000000E-03 0. -1.
    9900012    2    1    2    0    0  0.38489059834E+02 -0.20055321267E+02  0.19940682008E-01  0.47787262269E+02  0.19999959988E+02 0.  0.
        -12    1    1    2    0    0 -0.38489059834E+02  0.20055321267E+02 -0.19940682008E-01  0.43400737731E+02  0.00000000000E+00 0.  1.
         11    1    3    3    0    0  0.31202325351E+02 -0.12417178596E+02  0.14398615956E+00  0.33582616990E+02  0.51100000000E-03 0. -1.
        -11    1    3    3    0    0 -0.19951493357E+01 -0.34758085782E+01  0.33622480497E+00  0.40218047596E+01  0.51100000000E-03 0.  1.
        -12    1    3    3    0    0  0.92818838186E+01 -0.41623340920E+01 -0.46027028252E+00  0.10182840520E+02  0.00000000000E+00 0.  1.
</event>
<event>
 7    1  0.2642243E-009  0.4778727E+02  0.7816164E-02  0.1312668E+00
        -11   -1    0    0    0    0  0.00000000000E+00  0.00000000000E+00  0.45593999997E+02  0.45594000000E+02  0.51100000000E-03 0.  1.
         11   -1    0    0    0    0 -0.00000000000E+00 -0.00000000000E+00 -0.45593999997E+02  0.45594000000E+02  0.51100000000E-03 0. -1.
    9900012    2    1    2    0    0 -0.25646229311E+02 -0.24476575476E+02 -0.25035804345E+02  0.47787270466E+02  0.19999997362E+02 0.  0.
        -12    1    1    2    0    0  0.25646229311E+02  0.24476575476E+02  0.25035804345E+02  0.43400729534E+02  0.00000000000E+00 0.  1.
         11    1    3    3    0    0 -0.20953593938E+02 -0.17710714161E+02 -0.15515932384E+02  0.31519306036E+02  0.51100000000E-03 0. -1.
        -11    1    3    3    0    0  0.14894479514E+01  0.40111162393E+00  0.12097588063E+01  0.19603220055E+01  0.51100000000E-03 0.  1.
        -12    1    3    3    0    0 -0.61820833247E+01 -0.71669729390E+01 -0.10729630767E+02  0.14307642424E+02  0.00000000000E+00 0.  1.
</event>
<event>
 7    1  0.2642243E-009  0.4778726E+02  0.7816164E-02  0.1312668E+00
        -11   -1    0    0    0    0  0.00000000000E+00  0.00000000000E+00  0.45593999997E+02  0.45594000000E+02  0.51100000000E-03 0.  1.
         11   -1    0    0    0    0 -0.00000000000E+00 -0.00000000000E+00 -0.45593999997E+02  0.45594000000E+02  0.51100000000E-03 0. -1.
    9900012    2    1    2    0    0  0.16274532644E+01 -0.25847392121E+02 -0.34826544553E+02  0.47787257044E+02  0.19999936168E+02 0.  0.
        -12    1    1    2    0    0 -0.16274532644E+01  0.25847392121E+02  0.34826544553E+02  0.43400742956E+02  0.00000000000E+00 0.  1.
         11    1    3    3    0    0  0.40861837067E+01 -0.16804223165E+02 -0.12012824470E+02  0.21056751067E+02  0.51100000000E-03 0. -1.
        -11    1    3    3    0    0 -0.40198569111E+01  0.44948329477E+00 -0.45496686163E+01  0.60877557110E+01  0.51100000000E-03 0.  1.
        -12    1    3    3    0    0  0.15611264688E+01 -0.94926522512E+01 -0.18264051466E+02  0.20642750267E+02  0.00000000000E+00 0.  1.
</event>
<event>
 7    1  0.2642243E-009  0.4778727E+02  0.7816164E-02  0.1312668E+00
        -11   -1    0    0    0    0  0.00000000000E+00  0.00000000000E+00  0.45593999997E+02  0.45594000000E+02  0.51100000000E-03 0.  1.
         11   -1    0    0    0    0 -0.00000000000E+00 -0.00000000000E+00 -0.45593999997E+02  0.45594000000E+02  0.51100000000E-03 0. -1.
    9900012    2    1    2    0    0 -0.95831119933E+01 -0.14477759050E+02 -0.39776649400E+02  0.47787269821E+02  0.19999994423E+02 0.  0.
        -12    1    1    2    0    0  0.95831119933E+01  0.14477759050E+02  0.39776649400E+02  0.43400730179E+02  0.00000000000E+00 0.  1.
         11    1    3    3    0    0  0.39832539677E+01 -0.81921523292E+01 -0.15946632939E+02  0.18364987729E+02  0.51100000000E-03 0. -1.
        -11    1    3    3    0    0 -0.35459971582E+01 -0.62404262308E+01 -0.11156684511E+02  0.13266070440E+02  0.51100000000E-03 0.  1.
         12    1    3    3    0    0 -0.10020368803E+02 -0.45180489820E-01 -0.12673331950E+02  0.16156211652E+02  0.00000000000E+00 0. -1.
</event>
<event>
 7    1  0.2642243E-009  0.4778727E+02  0.7816164E-02  0.1312668E+00
        -11   -1    0    0    0    0  0.00000000000E+00  0.00000000000E+00  0.45593999997E+02  0.45594000000E+02  0.51100000000E-03 0.  1.
         11   -1    0    0    0    0 -0.00000000000E+00 -0.00000000000E+00 -0.45593999997E+02  0.45594000000E+02  0.51100000000E-03 0. -1.
    9900012    2    1    2    0    0 -0.12106711298E+02 -0.12695338397E+02 -0.39697345489E+02  0.47787270578E+02  0.19999997873E+02 0.  0.
        -12    1    1    2    0    0  0.12106711298E+02  0.12695338397E+02  0.39697345489E+02  0.43400729422E+02  0.00000000000E+00 0.  1.
         11    1    3    3    0    0 -0.21985926918E+01 -0.43934607604E+00 -0.17914039456E+01  0.28698367822E+01  0.51100000000E-03 0. -1.
        -11    1    3    3    0    0 -0.78448781284E+01  0.28312981468E+01 -0.18144696744E+02  0.19969686583E+02  0.51100000000E-03 0.  1.
        -12    1    3    3    0    0 -0.20632404780E+01 -0.15087290468E+02 -0.19761244800E+02  0.24947747212E+02  0.00000000000E+00 0.  1.
</event>
<event>
 7    1  0.2642243E-009  0.4778727E+02  0.7816164E-02  0.1312668E+00
        -11   -1    0    0    0    0  0.00000000000E+00  0.00000000000E+00  0.45593999997E+02  0.45594000000E+02  0.51100000000E-03 0.  1.
         11   -1    0    0    0    0 -0.00000000000E+00 -0.00000000000E+00 -0.45593999997E+02  0.45594000000E+02  0.51100000000E-03 0. -1.
    9900012    2    1    2    0    0 -0.14392851330E+02  0.34034760033E+02 -0.22761897678E+02  0.47787273672E+02  0.20000011979E+02 0.  0.
        -12    1    1    2    0    0  0.14392851330E+02 -0.34034760033E+02  0.22761897678E+02  0.43400726328E+02  0.00000000000E+00 0.  1.
         11    1    3    3    0    0 -0.12256653214E+02  0.12258960500E+02 -0.63736999281E+01  0.18469751260E+02  0.51100000000E-03 0. -1.
        -11    1    3    3    0    0 -0.26432198011E+01  0.11841744164E+00 -0.18163551735E+01  0.32093270299E+01  0.51100000000E-03 0.  1.
         12    1    3    3    0    0  0.50702168518E+00  0.21657382091E+02 -0.14571842577E+02  0.26108195382E+02  0.00000000000E+00 0. -1.
</event>
<event>
 7    1  0.2642243E-009  0.4778727E+02  0.7816164E-02  0.1312668E+00
        -11   -1    0    0    0    0  0.00000000000E+00  0.00000000000E+00  0.45593999997E+02  0.45594000000E+02  0.51100000000E-03 0.  1.
         11   -1    0    0    0    0 -0.00000000000E+00 -0.00000000000E+00 -0.45593999997E+02  0.45594000000E+02  0.51100000000E-03 0. -1.
    9900012    2    1    2    0    0  0.31094844325E+02  0.16803024958E+02 -0.25187139138E+02  0.47787274554E+02  0.20000016001E+02 0.  0.
        -12    1    1    2    0    0 -0.31094844325E+02 -0.16803024958E+02  0.25187139138E+02  0.43400725446E+02  0.00000000000E+00 0.  1.
         11    1    3    3    0    0  0.20144933200E+02  0.17549107898E+02 -0.18373624974E+02  0.32424984450E+02  0.51100000000E-03 0. -1.
        -11    1    3    3    0    0  0.10273585045E+02  0.11585265941E+01 -0.25568676413E+01  0.10650178681E+02  0.51100000000E-03 0.  1.
         12    1    3    3    0    0  0.67632608012E+00 -0.19046095341E+01 -0.42566465226E+01  0.47121114230E+01  0.00000000000E+00 0. -1.
</event>
<event>
 7    1  0.2642243E-009  0.4778727E+02  0.7816164E-02  0.1312668E+00
        -11   -1    0    0    0    0  0.00000000000E+00  0.00000000000E+00  0.45593999997E+02  0.45594000000E+02  0.51100000000E-03 0.  1.
         11   -1    0    0    0    0 -0.00000000000E+00 -0.00000000000E+00 -0.45593999997E+02  0.45594000000E+02  0.51100000000E-03 0. -1.
    9900012    2    1    2    0    0  0.24258617207E+02 -0.14404847356E+02 -0.32979436987E+02  0.47787269590E+02  0.19999993368E+02 0.  0.
        -12    1    1    2    0    0 -0.24258617207E+02  0.14404847356E+02  0.32979436987E+02  0.43400730410E+02  0.00000000000E+00 0.  1.
         11    1    3    3    0    0  0.73843064000E+01 -0.97610486136E+00  0.43312120468E+00  0.74611229683E+01  0.51100000000E-03 0. -1.
        -11    1    3    3    0    0  0.50356689205E+01 -0.33973182306E+01 -0.15380982844E+02  0.16537060384E+02  0.51100000000E-03 0.  1.
         12    1    3    3    0    0  0.11838641887E+02 -0.10031424264E+02 -0.18031575347E+02  0.23789086237E+02  0.00000000000E+00 0. -1.
</event>
<event>
 7    1  0.2642243E-009  0.4778727E+02  0.7816164E-02  0.1312668E+00
        -11   -1    0    0    0    0  0.00000000000E+00  0.00000000000E+00  0.45593999997E+02  0.45594000000E+02  0.51100000000E-03 0.  1.
         11   -1    0    0    0    0 -0.00000000000E+00 -0.00000000000E+00 -0.45593999997E+02  0.45594000000E+02  0.51100000000E-03 0. -1.
    9900012    2    1    2    0    0  0.33012479726E+02  0.23127251058E+02 -0.16091286424E+02  0.47787273532E+02  0.20000011343E+02 0.  0.
        -12    1    1    2    0    0 -0.33012479726E+02 -0.23127251058E+02  0.16091286424E+02  0.43400726468E+02  0.00000000000E+00 0.  1.
         11    1    3    3    0    0  0.12396048202E+02  0.86396452357E+01 -0.72666598871E+00  0.15127244447E+02  0.51100000000E-03 0. -1.
        -11    1    3    3    0    0  0.40560410130E+00  0.37816271589E+01  0.16582423394E+01  0.41490946692E+01  0.51100000000E-03 0.  1.
        -12    1    3    3    0    0  0.20210827422E+02  0.10705978664E+02 -0.17022862775E+02  0.28510934416E+02  0.00000000000E+00 0.  1.
</event>
<event>
 7    1  0.2642243E-009  0.4778727E+02  0.7816164E-02  0.1312668E+00
        -11   -1    0    0    0    0  0.00000000000E+00  0.00000000000E+00  0.45593999997E+02  0.45594000000E+02  0.51100000000E-03 0.  1.
         11   -1    0    0    0    0 -0.00000000000E+00 -0.00000000000E+00 -0.45593999997E+02  0.45594000000E+02  0.51100000000E-03 0. -1.
    9900012    2    1    2    0    0 -0.26077689829E+02 -0.47402441027E+01 -0.34367244704E+02  0.47787270404E+02  0.19999997079E+02 0.  0.
        -12    1    1    2    0    0  0.26077689829E+02  0.47402441027E+01  0.34367244704E+02  0.43400729596E+02  0.00000000000E+00 0.  1.
         11    1    3    3    0    0 -0.13671627943E+02  0.37307719790E+00 -0.23186922668E+02  0.26919992204E+02  0.51100000000E-03 0. -1.
        -11    1    3    3    0    0 -0.12531430229E+02 -0.78954401856E+01 -0.97916751880E+01  0.17755326597E+02  0.51100000000E-03 0.  1.
         12    1    3    3    0    0  0.12536834286E+00  0.27821188850E+01 -0.13886468479E+01  0.31119516031E+01  0.00000000000E+00 0. -1.
</event>
<event>
 7    1  0.2642243E-009  0.4778727E+02  0.7816164E-02  0.1312668E+00
        -11   -1    0    0    0    0  0.00000000000E+00  0.00000000000E+00  0.45593999997E+02  0.45594000000E+02  0.51100000000E-03 0.  1.
         11   -1    0    0    0    0 -0.00000000000E+00 -0.00000000000E+00 -0.45593999997E+02  0.45594000000E+02  0.51100000000E-03 0. -1.
    9900012    2    1    2    0    0 -0.43277800400E+02 -0.26542750915E+01 -0.19000364859E+01  0.47787270486E+02  0.19999997454E+02 0.  0.
        -12    1    1    2    0    0  0.43277800400E+02  0.26542750915E+01  0.19000364859E+01  0.43400729514E+02  0.00000000000E+00 0.  1.
         11    1    3    3    0    0 -0.31622059027E+02 -0.41855706340E+01 -0.57021881464E+01  0.32403527100E+02  0.51100000000E-03 0. -1.
        -11    1    3    3    0    0 -0.79536259760E+01  0.52906315863E+01  0.16920080301E+01  0.97012287976E+01  0.51100000000E-03 0.  1.
         12    1    3    3    0    0 -0.37021153970E+01 -0.37593360438E+01  0.21101436304E+01  0.56825145881E+01  0.00000000000E+00 0. -1.
</event>
<event>
 7    1  0.2642243E-009  0.4778727E+02  0.7816164E-02  0.1312668E+00
        -11   -1    0    0    0    0  0.00000000000E+00  0.00000000000E+00  0.45593999997E+02  0.45594000000E+02  0.51100000000E-03 0.  1.
         11   -1    0    0    0    0 -0.00000000000E+00 -0.00000000000E+00 -0.45593999997E+02  0.45594000000E+02  0.51100000000E-03 0. -1.
    9900012    2    1    2    0    0  0.15705367222E+01  0.28071473414E+02 -0.33062801408E+02  0.47787273714E+02  0.20000012172E+02 0.  0.
        -12    1    1    2    0    0 -0.15705367222E+01 -0.28071473414E+02  0.33062801408E+02  0.43400726286E+02  0.00000000000E+00 0.  1.
         11    1    3    3    0    0  0.75973404321E+01  0.14069138732E+02 -0.13218907956E+02  0.20746078524E+02  0.51100000000E-03 0.  1.
        -11    1    3    3    0    0 -0.32996080970E+01 -0.46983842095E+00 -0.58114976993E+01  0.66993781432E+01  0.51100000000E-03 0. -1.
        -12    1    3    3    0    0 -0.27271956130E+01  0.14472173103E+02 -0.14032395752E+02  0.20341817047E+02  0.00000000000E+00 0.  1.
</event>
<event>
 7    1  0.2642243E-009  0.4778727E+02  0.7816164E-02  0.1312668E+00
        -11   -1    0    0    0    0  0.00000000000E+00  0.00000000000E+00  0.45593999997E+02  0.45594000000E+02  0.51100000000E-03 0.  1.
         11   -1    0    0    0    0 -0.00000000000E+00 -0.00000000000E+00 -0.45593999997E+02  0.45594000000E+02  0.51100000000E-03 0. -1.
    9900012    2    1    2    0    0  0.97993551914E+01  0.38148347463E+02 -0.18229089881E+02  0.47787268506E+02  0.19999988425E+02 0.  0.
        -12    1    1    2    0    0 -0.97993551914E+01 -0.38148347463E+02  0.18229089881E+02  0.43400731494E+02  0.00000000000E+00 0.  1.
         11    1    3    3    0    0  0.82358095784E+01  0.14179633463E+02  0.15180383743E+01  0.16467999433E+02  0.51100000000E-03 0. -1.
        -11    1    3    3    0    0  0.52110846941E+00  0.27235928300E+00 -0.54336861843E+00  0.80061434695E+00  0.51100000000E-03 0.  1.
         12    1    3    3    0    0  0.10424371436E+01  0.23696354718E+02 -0.19203759637E+02  0.30518654726E+02  0.00000000000E+00 0. -1.
</event>
<event>
 7    1  0.2642243E-009  0.4778727E+02  0.7816164E-02  0.1312668E+00
        -11   -1    0    0    0    0  0.00000000000E+00  0.00000000000E+00  0.45593999997E+02  0.45594000000E+02  0.51100000000E-03 0. -1.
         11   -1    0    0    0    0 -0.00000000000E+00 -0.00000000000E+00 -0.45593999997E+02  0.45594000000E+02  0.51100000000E-03 0.  1.
    9900012    2    1    2    0    0  0.23553003377E+02 -0.31711913971E+02  0.17978706022E+02  0.47787270444E+02  0.19999997262E+02 0.  0.
        -12    1    1    2    0    0 -0.23553003377E+02  0.31711913971E+02 -0.17978706022E+02  0.43400729556E+02  0.00000000000E+00 0.  1.
         11    1    3    3    0    0  0.88522699614E+01 -0.20006747950E+02  0.11422159250E+01  0.21907471430E+02  0.51100000000E-03 0.  1.
        -11    1    3    3    0    0  0.11147666270E+02 -0.54086563483E+01  0.98893196768E+01  0.15853159644E+02  0.51100000000E-03 0. -1.
         12    1    3    3    0    0  0.35530671457E+01 -0.62965096730E+01  0.69471704204E+01  0.10026639370E+02  0.00000000000E+00 0. -1.
</event>
<event>
 7    1  0.2642243E-009  0.4778727E+02  0.7816164E-02  0.1312668E+00
        -11   -1    0    0    0    0  0.00000000000E+00  0.00000000000E+00  0.45593999997E+02  0.45594000000E+02  0.51100000000E-03 0.  1.
         11   -1    0    0    0    0 -0.00000000000E+00 -0.00000000000E+00 -0.45593999997E+02  0.45594000000E+02  0.51100000000E-03 0. -1.
    9900012    2    1    2    0    0 -0.35789724352E+02 -0.24041770173E+02 -0.49711055087E+01  0.47787274520E+02  0.20000015846E+02 0.  0.
        -12    1    1    2    0    0  0.35789724352E+02  0.24041770173E+02  0.49711055087E+01  0.43400725480E+02  0.00000000000E+00 0.  1.
         11    1    3    3    0    0 -0.18420872600E+02 -0.19414551499E+02 -0.35208217313E+01  0.26993509279E+02  0.51100000000E-03 0. -1.
        -11    1    3    3    0    0 -0.11593958283E+02  0.20229968253E+01 -0.21284360327E+01  0.11960042852E+02  0.51100000000E-03 0.  1.
        -12    1    3    3    0    0 -0.57748934693E+01 -0.66502154990E+01  0.67815225527E+00  0.88337223890E+01  0.00000000000E+00 0.  1.
</event>
<event>
 7    1  0.2642243E-009  0.4778727E+02  0.7816164E-02  0.1312668E+00
        -11   -1    0    0    0    0  0.00000000000E+00  0.00000000000E+00  0.45593999997E+02  0.45594000000E+02  0.51100000000E-03 0.  1.
         11   -1    0    0    0    0 -0.00000000000E+00 -0.00000000000E+00 -0.45593999997E+02  0.45594000000E+02  0.51100000000E-03 0. -1.
    9900012    2    1    2    0    0 -0.49855693803E+01  0.42622013625E+02 -0.64908635779E+01  0.47787271233E+02  0.20000000861E+02 0.  0.
        -12    1    1    2    0    0  0.49855693803E+01 -0.42622013625E+02  0.64908635779E+01  0.43400728767E+02  0.00000000000E+00 0.  1.
         11    1    3    3    0    0 -0.30928910611E+01  0.76967305692E+01 -0.11106904340E+01  0.83689467720E+01  0.51100000000E-03 0. -1.
        -11    1    3    3    0    0  0.20253739133E+00  0.31549827663E+02 -0.10212853704E+02  0.33162253059E+02  0.51100000000E-03 0.  1.
        -12    1    3    3    0    0 -0.20952157105E+01  0.33754553932E+01  0.48326805606E+01  0.62560714019E+01  0.00000000000E+00 0.  1.
</event>
<event>
 7    1  0.2642243E-009  0.4778727E+02  0.7816164E-02  0.1312668E+00
        -11   -1    0    0    0    0  0.00000000000E+00  0.00000000000E+00  0.45593999997E+02  0.45594000000E+02  0.51100000000E-03 0.  1.
         11   -1    0    0    0    0 -0.00000000000E+00 -0.00000000000E+00 -0.45593999997E+02  0.45594000000E+02  0.51100000000E-03 0. -1.
    9900012    2    1    2    0    0 -0.10850023297E+02 -0.78554259624E+01 -0.41281870308E+02  0.47787267993E+02  0.19999986087E+02 0.  0.
        -12    1    1    2    0    0  0.10850023297E+02  0.78554259624E+01  0.41281870308E+02  0.43400732007E+02  0.00000000000E+00 0.  1.
         11    1    3    3    0    0 -0.15134348706E+02 -0.24412265851E+01 -0.31562617538E+02  0.35088558308E+02  0.51100000000E-03 0. -1.
        -11    1    3    3    0    0  0.30477894485E+01 -0.28632460956E+01 -0.87583052506E+01  0.97054165212E+01  0.51100000000E-03 0.  1.
         12    1    3    3    0    0  0.12365359612E+01 -0.25509532817E+01 -0.96094751950E+00  0.29932931637E+01  0.00000000000E+00 0. -1.
</event>
<event>
 7    1  0.2642243E-009  0.4778727E+02  0.7816164E-02  0.1312668E+00
        -11   -1    0    0    0    0  0.00000000000E+00  0.00000000000E+00  0.45593999997E+02  0.45594000000E+02  0.51100000000E-03 0.  1.
         11   -1    0    0    0    0 -0.00000000000E+00 -0.00000000000E+00 -0.45593999997E+02  0.45594000000E+02  0.51100000000E-03 0. -1.
    9900012    2    1    2    0    0 -0.41938747443E+02 -0.98001796743E+01 -0.53592241417E+01  0.47787270258E+02  0.19999996413E+02 0.  0.
        -12    1    1    2    0    0  0.41938747443E+02  0.98001796743E+01  0.53592241417E+01  0.43400729742E+02  0.00000000000E+00 0.  1.
         11    1    3    3    0    0 -0.29203943656E+02  0.13138457688E-01  0.31041092932E+01  0.29368452333E+02  0.51100000000E-03 0. -1.
        -11    1    3    3    0    0 -0.25461565461E+01 -0.36111677188E+01 -0.19672282326E+01  0.48366757831E+01  0.51100000000E-03 0.  1.
         12    1    3    3    0    0 -0.10188647241E+02 -0.62021504133E+01 -0.64961052022E+01  0.13582142142E+02  0.00000000000E+00 0. -1.
</event>
