<event>
 7    1  0.2604986E-013  0.7246165E+02  0.7816164E-02  0.1226708E+00
        -11   -1    0    0    0    0  0.00000000000E+00  0.00000000000E+00  0.45593999997E+02  0.45594000000E+02  0.51100000000E-03 0.  1.
         11   -1    0    0    0    0 -0.00000000000E+00 -0.00000000000E+00 -0.45593999997E+02  0.45594000000E+02  0.51100000000E-03 0. -1.
    9900012    2    1    2    0    0  0.16777484324E+02  0.67959380095E+01 -0.47966107135E+01  0.72461648833E+02  0.70000102312E+02 0.  0.
        -12    1    1    2    0    0 -0.16777484324E+02 -0.67959380095E+01  0.47966107135E+01  0.18726351167E+02  0.00000000000E+00 0.  1.
         11    1    3    3    0    0 -0.15132347394E+02  0.14249198141E+02 -0.19988702005E+02  0.28837055908E+02  0.51100000000E-03 0. -1.
        -11    1    3    3    0    0  0.57339384051E+01  0.74319689126E+01  0.87465994442E+01  0.12830246048E+02  0.51100000000E-03 0.  1.
        -12    1    3    3    0    0  0.26175893313E+02 -0.14885229044E+02  0.64454918477E+01  0.30794346877E+02  0.00000000000E+00 0.  1.
</event>
<event>
 7    1  0.2604986E-013  0.7246153E+02  0.7816164E-02  0.1226708E+00
        -11   -1    0    0    0    0  0.00000000000E+00  0.00000000000E+00  0.45593999997E+02  0.45594000000E+02  0.51100000000E-03 0.  1.
         11   -1    0    0    0    0 -0.00000000000E+00 -0.00000000000E+00 -0.45593999997E+02  0.45594000000E+02  0.51100000000E-03 0. -1.
    9900012    2    1    2    0    0  0.15209512096E+02 -0.68871210588E+01 -0.84805047787E+01  0.72461530606E+02  0.69999948298E+02 0.  0.
        -12    1    1    2    0    0 -0.15209512096E+02  0.68871210588E+01  0.84805047787E+01  0.18726469394E+02  0.00000000000E+00 0.  1.
         11    1    3    3    0    0 -0.12968036795E+02  0.18458694737E+01 -0.72095724667E+01  0.14951760694E+02  0.51100000000E-03 0. -1.
        -11    1    3    3    0    0 -0.54771844871E+01 -0.39164634271E+01 -0.18290093603E+02  0.19490145201E+02  0.51100000000E-03 0.  1.
        -12    1    3    3    0    0  0.33654733378E+02 -0.48165271054E+01  0.17019161291E+02  0.38019624711E+02  0.00000000000E+00 0.  1.
</event>
<event>
 7    1  0.2604986E-013  0.7246156E+02  0.7816164E-02  0.1226708E+00
        -11   -1    0    0    0    0  0.00000000000E+00  0.00000000000E+00  0.45593999997E+02  0.45594000000E+02  0.51100000000E-03 0. -1.
         11   -1    0    0    0    0 -0.00000000000E+00 -0.00000000000E+00 -0.45593999997E+02  0.45594000000E+02  0.51100000000E-03 0.  1.
    9900012    2    1    2    0    0  0.17026929745E+02  0.77703920803E+01  0.61982548674E+00  0.72461561117E+02  0.69999988044E+02 0.  0.
        -12    1    1    2    0    0 -0.17026929745E+02 -0.77703920803E+01 -0.61982548674E+00  0.18726438883E+02  0.00000000000E+00 0.  1.
         11    1    3    3    0    0  0.63546833318E+01  0.38479525499E+01 -0.63081729982E+01  0.97458599369E+01  0.51100000000E-03 0. -1.
        -11    1    3    3    0    0  0.17370766538E+02  0.94469359303E+01 -0.23708820317E+02  0.30872257606E+02  0.51100000000E-03 0.  1.
         12    1    3    3    0    0 -0.66985201247E+01 -0.55244964000E+01  0.30636818802E+02  0.31843443574E+02  0.00000000000E+00 0. -1.
</event>
<event>
 7    1  0.2604986E-013  0.7246163E+02  0.7816164E-02  0.1226708E+00
        -11   -1    0    0    0    0  0.00000000000E+00  0.00000000000E+00  0.45593999997E+02  0.45594000000E+02  0.51100000000E-03 0.  1.
         11   -1    0    0    0    0 -0.00000000000E+00 -0.00000000000E+00 -0.45593999997E+02  0.45594000000E+02  0.51100000000E-03 0. -1.
    9900012    2    1    2    0    0  0.11582820324E+02 -0.14694853931E+02 -0.75914289433E+00  0.72461634719E+02  0.70000083925E+02 0.  0.
        -12    1    1    2    0    0 -0.11582820324E+02  0.14694853931E+02  0.75914289433E+00  0.18726365281E+02  0.00000000000E+00 0.  1.
         11    1    3    3    0    0 -0.21420425183E+02 -0.12125036558E+02 -0.14431436518E+01  0.24656313398E+02  0.51100000000E-03 0. -1.
        -11    1    3    3    0    0  0.17007129130E+02  0.10856469075E+02 -0.11898357346E+02  0.23423839775E+02  0.51100000000E-03 0.  1.
        -12    1    3    3    0    0  0.15996116376E+02 -0.13426286448E+02  0.12582358103E+02  0.24381481545E+02  0.00000000000E+00 0.  1.
</event>
<event>
 7    1  0.2604986E-013  0.7246166E+02  0.7816164E-02  0.1226708E+00
        -11   -1    0    0    0    0  0.00000000000E+00  0.00000000000E+00  0.45593999997E+02  0.45594000000E+02  0.51100000000E-03 0. -1.
         11   -1    0    0    0    0 -0.00000000000E+00 -0.00000000000E+00 -0.45593999997E+02  0.45594000000E+02  0.51100000000E-03 0.  1.
    9900012    2    1    2    0    0 -0.29182177000E+01  0.97163567043E+01  0.15740150525E+02  0.72461657039E+02  0.70000113001E+02 0.  0.
        -12    1    1    2    0    0  0.29182177000E+01 -0.97163567043E+01 -0.15740150525E+02  0.18726342961E+02  0.00000000000E+00 0.  1.
         11    1    3    3    0    0  0.24593621435E+01  0.71081041961E+01  0.43769178994E+01  0.87023570356E+01  0.51100000000E-03 0. -1.
        -11    1    3    3    0    0  0.14336991000E+02 -0.22509188654E+02  0.16561494589E+02  0.31408533683E+02  0.51100000000E-03 0.  1.
         12    1    3    3    0    0 -0.19714570844E+02  0.25117441162E+02 -0.51982619641E+01  0.32350766321E+02  0.00000000000E+00 0. -1.
</event>
<event>
 7    1  0.2604986E-013  0.7246153E+02  0.7816164E-02  0.1226708E+00
        -11   -1    0    0    0    0  0.00000000000E+00  0.00000000000E+00  0.45593999997E+02  0.45594000000E+02  0.51100000000E-03 0. -1.
         11   -1    0    0    0    0 -0.00000000000E+00 -0.00000000000E+00 -0.45593999997E+02  0.45594000000E+02  0.51100000000E-03 0.  1.
    9900012    2    1    2    0    0  0.10922442583E+02 -0.23540629917E+01  0.15027950494E+02  0.72461530483E+02  0.69999948138E+02 0.  0.
        -12    1    1    2    0    0 -0.10922442583E+02  0.23540629917E+01 -0.15027950494E+02  0.18726469517E+02  0.00000000000E+00 0.  1.
         11    1    3    3    0    0  0.16260763069E+01  0.18993068187E+01 -0.24220649016E+01  0.34810758676E+01  0.51100000000E-03 0. -1.
        -11    1    3    3    0    0  0.11385349020E+02  0.87014252265E+01 -0.22642042818E+02  0.26795579421E+02  0.51100000000E-03 0.  1.
         12    1    3    3    0    0 -0.20889827449E+01 -0.12954795037E+02  0.40092058213E+02  0.42184875194E+02  0.00000000000E+00 0. -1.
</event>
<event>
 7    1  0.2604986E-013  0.7246157E+02  0.7816164E-02  0.1226708E+00
        -11   -1    0    0    0    0  0.00000000000E+00  0.00000000000E+00  0.45593999997E+02  0.45594000000E+02  0.51100000000E-03 0. -1.
         11   -1    0    0    0    0 -0.00000000000E+00 -0.00000000000E+00 -0.45593999997E+02  0.45594000000E+02  0.51100000000E-03 0.  1.
    9900012    2    1    2    0    0  0.13075690229E+01 -0.62596899165E+01  0.17600727674E+02  0.72461572972E+02  0.70000003488E+02 0.  0.
        -12    1    1    2    0    0 -0.13075690229E+01  0.62596899165E+01 -0.17600727674E+02  0.18726427028E+02  0.00000000000E+00 0.  1.
         11    1    3    3    0    0  0.18004671791E+01 -0.91625623027E+01  0.91427939301E+01  0.13068470114E+02  0.51100000000E-03 0. -1.
        -11    1    3    3    0    0  0.25451348332E+02  0.55413274232E+01  0.17958503951E+02  0.31638351821E+02  0.51100000000E-03 0.  1.
        -12    1    3    3    0    0 -0.25944246488E+02 -0.26384550370E+01 -0.95005702072E+01  0.27754751036E+02  0.00000000000E+00 0.  1.
</event>
<event>
 7    1  0.2604986E-013  0.7246158E+02  0.7816164E-02  0.1226708E+00
        -11   -1    0    0    0    0  0.00000000000E+00  0.00000000000E+00  0.45593999997E+02  0.45594000000E+02  0.51100000000E-03 0. -1.
         11   -1    0    0    0    0 -0.00000000000E+00 -0.00000000000E+00 -0.45593999997E+02  0.45594000000E+02  0.51100000000E-03 0.  1.
    9900012    2    1    2    0    0  0.11063751838E+02  0.14178405332E+02 -0.52196709555E+01  0.72461581565E+02  0.70000014683E+02 0.  0.
        -12    1    1    2    0    0 -0.11063751838E+02 -0.14178405332E+02  0.52196709555E+01  0.18726418435E+02  0.00000000000E+00 0.  1.
         11    1    3    3    0    0 -0.11698293055E+02  0.92338116290E+01  0.69014558773E+00  0.14919438287E+02  0.51100000000E-03 0. -1.
        -11    1    3    3    0    0 -0.12051808807E+02  0.15217710821E+02  0.42029972288E+01  0.19861772432E+02  0.51100000000E-03 0.  1.
         12    1    3    3    0    0  0.34813853700E+02 -0.10273117118E+02 -0.10112813772E+02  0.37680370847E+02  0.00000000000E+00 0. -1.
</event>
<event>
 7    1  0.2604986E-013  0.7246154E+02  0.7816164E-02  0.1226708E+00
        -11   -1    0    0    0    0  0.00000000000E+00  0.00000000000E+00  0.45593999997E+02  0.45594000000E+02  0.51100000000E-03 0. -1.
         11   -1    0    0    0    0 -0.00000000000E+00 -0.00000000000E+00 -0.45593999997E+02  0.45594000000E+02  0.51100000000E-03 0.  1.
    9900012    2    1    2    0    0 -0.98461455091E+01 -0.11686491057E+02  0.10824023654E+02  0.72461544311E+02  0.69999966152E+02 0.  0.
        -12    1    1    2    0    0  0.98461455091E+01  0.11686491057E+02 -0.10824023654E+02  0.18726455689E+02  0.00000000000E+00 0.  1.
         11    1    3    3    0    0  0.42720683237E+01  0.20327104877E+02  0.14199636923E+02  0.25160911141E+02  0.51100000000E-03 0.  1.
        -11    1    3    3    0    0  0.59935735857E+01 -0.21085518109E+02  0.57454041926E+01  0.22661237121E+02  0.51100000000E-03 0. -1.
        -12    1    3    3    0    0 -0.20111787418E+02 -0.10928077825E+02 -0.91210174616E+01  0.24639396049E+02  0.00000000000E+00 0.  1.
</event>
<event>
 7    1  0.2604986E-013  0.7246163E+02  0.7816164E-02  0.1226708E+00
        -11   -1    0    0    0    0  0.00000000000E+00  0.00000000000E+00  0.45593999997E+02  0.45594000000E+02  0.51100000000E-03 0.  1.
         11   -1    0    0    0    0 -0.00000000000E+00 -0.00000000000E+00 -0.45593999997E+02  0.45594000000E+02  0.51100000000E-03 0. -1.
    9900012    2    1    2    0    0  0.10946653100E+02 -0.11293336910E+02 -0.10164070154E+02  0.72461628362E+02  0.70000075643E+02 0.  0.
        -12    1    1    2    0    0 -0.10946653100E+02  0.11293336910E+02  0.10164070154E+02  0.18726371638E+02  0.00000000000E+00 0.  1.
         11    1    3    3    0    0 -0.95372198301E+01  0.16456750809E+02 -0.17513637401E+02  0.25855573955E+02  0.51100000000E-03 0. -1.
        -11    1    3    3    0    0  0.38221183726E+00  0.62618742817E+01 -0.61344892906E+00  0.63034494729E+01  0.51100000000E-03 0.  1.
        -12    1    3    3    0    0  0.20101661093E+02 -0.34011962001E+02  0.79630161760E+01  0.40302604934E+02  0.00000000000E+00 0.  1.
</event>
<event>
 7    1  0.2604986E-013  0.7246155E+02  0.7816164E-02  0.1226708E+00
        -11   -1    0    0    0    0  0.00000000000E+00  0.00000000000E+00  0.45593999997E+02  0.45594000000E+02  0.51100000000E-03 0. -1.
         11   -1    0    0    0    0 -0.00000000000E+00 -0.00000000000E+00 -0.45593999997E+02  0.45594000000E+02  0.51100000000E-03 0.  1.
    9900012    2    1    2    0    0 -0.18021165710E+01 -0.10238795708E+01  0.18611392579E+02  0.72461551131E+02  0.69999975036E+02 0.  0.
        -12    1    1    2    0    0  0.18021165710E+01  0.10238795708E+01 -0.18611392579E+02  0.18726448869E+02  0.00000000000E+00 0.  1.
         11    1    3    3    0    0  0.25628368448E+02  0.32544806663E+01 -0.46957715522E+01  0.26257478638E+02  0.51100000000E-03 0. -1.
        -11    1    3    3    0    0  0.49656979031E+01  0.34017268191E+01  0.93428691837E+00  0.60912062290E+01  0.51100000000E-03 0.  1.
        -12    1    3    3    0    0 -0.32396182922E+02 -0.76800870562E+01  0.22372877213E+02  0.40112866264E+02  0.00000000000E+00 0.  1.
</event>
<event>
 7    1  0.2604986E-013  0.7246153E+02  0.7816164E-02  0.1226708E+00
        -11   -1    0    0    0    0  0.00000000000E+00  0.00000000000E+00  0.45593999997E+02  0.45594000000E+02  0.51100000000E-03 0. -1.
         11   -1    0    0    0    0 -0.00000000000E+00 -0.00000000000E+00 -0.45593999997E+02  0.45594000000E+02  0.51100000000E-03 0.  1.
    9900012    2    1    2    0    0 -0.56043970568E+01 -0.17776877098E+02  0.18039080335E+01  0.72461529165E+02  0.69999946421E+02 0.  0.
        -12    1    1    2    0    0  0.56043970568E+01  0.17776877098E+02 -0.18039080335E+01  0.18726470835E+02  0.00000000000E+00 0.  1.
         11    1    3    3    0    0  0.13833992478E+01 -0.10145893078E+02  0.52394179732E+01  0.11502366747E+02  0.51100000000E-03 0. -1.
        -11    1    3    3    0    0 -0.19658545067E+02 -0.28824676193E+02 -0.81288845256E+01  0.35824560230E+02  0.51100000000E-03 0.  1.
         12    1    3    3    0    0  0.12670748763E+02  0.21193692172E+02  0.46933745859E+01  0.25134602187E+02  0.00000000000E+00 0. -1.
</event>
<event>
 7    1  0.2604986E-013  0.7246162E+02  0.7816164E-02  0.1226708E+00
        -11   -1    0    0    0    0  0.00000000000E+00  0.00000000000E+00  0.45593999997E+02  0.45594000000E+02  0.51100000000E-03 0.  1.
         11   -1    0    0    0    0 -0.00000000000E+00 -0.00000000000E+00 -0.45593999997E+02  0.45594000000E+02  0.51100000000E-03 0. -1.
    9900012    2    1    2    0    0  0.15124457317E+02 -0.63245637902E+01 -0.90514065319E+01  0.72461620839E+02  0.70000065844E+02 0.  0.
        -12    1    1    2    0    0 -0.15124457317E+02  0.63245637902E+01  0.90514065319E+01  0.18726379161E+02  0.00000000000E+00 0.  1.
         11    1    3    3    0    0  0.23068616157E+02  0.14332894630E+02 -0.20180830961E+02  0.33835763009E+02  0.51100000000E-03 0. -1.
        -11    1    3    3    0    0  0.56238888131E+01  0.29587740690E+01 -0.39613049207E+01  0.74882846040E+01  0.51100000000E-03 0.  1.
        -12    1    3    3    0    0 -0.13568047653E+02 -0.23616232489E+02  0.15090729350E+02  0.31137573226E+02  0.00000000000E+00 0.  1.
</event>
<event>
 7    1  0.2604986E-013  0.7246159E+02  0.7816164E-02  0.1226708E+00
        -11   -1    0    0    0    0  0.00000000000E+00  0.00000000000E+00  0.45593999997E+02  0.45594000000E+02  0.51100000000E-03 0.  1.
         11   -1    0    0    0    0 -0.00000000000E+00 -0.00000000000E+00 -0.45593999997E+02  0.45594000000E+02  0.51100000000E-03 0. -1.
    9900012    2    1    2    0    0  0.91734942271E+01  0.12942081909E+02 -0.99512823221E+01  0.72461588162E+02  0.70000023276E+02 0.  0.
        -12    1    1    2    0    0 -0.91734942271E+01 -0.12942081909E+02  0.99512823221E+01  0.18726411838E+02  0.00000000000E+00 0.  1.
         11    1    3    3    0    0  0.39557141271E+01  0.10339634720E+02 -0.55600969480E+01  0.12388317026E+02  0.51100000000E-03 0. -1.
        -11    1    3    3    0    0  0.92950985931E+01  0.30055334246E+02  0.22352839150E+01  0.31539157708E+02  0.51100000000E-03 0.  1.
         12    1    3    3    0    0 -0.40773184931E+01 -0.27452887057E+02 -0.66264692891E+01  0.28534113428E+02  0.00000000000E+00 0. -1.
</event>
<event>
 7    1  0.2604986E-013  0.7246156E+02  0.7816164E-02  0.1226708E+00
        -11   -1    0    0    0    0  0.00000000000E+00  0.00000000000E+00  0.45593999997E+02  0.45594000000E+02  0.51100000000E-03 0. -1.
         11   -1    0    0    0    0 -0.00000000000E+00 -0.00000000000E+00 -0.45593999997E+02  0.45594000000E+02  0.51100000000E-03 0.  1.
    9900012    2    1    2    0    0 -0.14924007253E+02 -0.70807573249E+01  0.88213539433E+01  0.72461564082E+02  0.69999991908E+02 0.  0.
        -12    1    1    2    0    0  0.14924007253E+02  0.70807573249E+01 -0.88213539433E+01  0.18726435918E+02  0.00000000000E+00 0.  1.
         11    1    3    3    0    0 -0.34542329357E+02 -0.85855535712E+01 -0.16339317394E+01  0.35630801012E+02  0.51100000000E-03 0. -1.
        -11    1    3    3    0    0  0.10282695520E+01  0.61011037779E+01 -0.80820274171E+01  0.10178407194E+02  0.51100000000E-03 0.  1.
        -12    1    3    3    0    0  0.18590052552E+02 -0.45963075316E+01  0.18537313100E+02  0.26652355877E+02  0.00000000000E+00 0.  1.
</event>
<event>
 7    1  0.2604986E-013  0.7246159E+02  0.7816164E-02  0.1226708E+00
        -11   -1    0    0    0    0  0.00000000000E+00  0.00000000000E+00  0.45593999997E+02  0.45594000000E+02  0.51100000000E-03 0.  1.
         11   -1    0    0    0    0 -0.00000000000E+00 -0.00000000000E+00 -0.45593999997E+02  0.45594000000E+02  0.51100000000E-03 0. -1.
    9900012    2    1    2    0    0  0.50039026522E+01  0.97092661424E+01  0.15210836272E+02  0.72461590017E+02  0.70000025692E+02 0.  0.
        -12    1    1    2    0    0 -0.50039026522E+01 -0.97092661424E+01 -0.15210836272E+02  0.18726409983E+02  0.00000000000E+00 0.  1.
         11    1    3    3    0    0  0.19751811158E+01 -0.23275560905E+01  0.67834462797E+01  0.74386827789E+01  0.51100000000E-03 0. -1.
        -11    1    3    3    0    0  0.72142770466E+01 -0.21544391117E+02 -0.11795679095E+02  0.25599699754E+02  0.51100000000E-03 0.  1.
         12    1    3    3    0    0 -0.41855555102E+01  0.33581213350E+02  0.20223069087E+02  0.39423207484E+02  0.00000000000E+00 0. -1.
</event>
<event>
 7    1  0.2604986E-013  0.7246157E+02  0.7816164E-02  0.1226708E+00
        -11   -1    0    0    0    0  0.00000000000E+00  0.00000000000E+00  0.45593999997E+02  0.45594000000E+02  0.51100000000E-03 0.  1.
         11   -1    0    0    0    0 -0.00000000000E+00 -0.00000000000E+00 -0.45593999997E+02  0.45594000000E+02  0.51100000000E-03 0. -1.
    9900012    2    1    2    0    0  0.89541159795E+01  0.15582033633E+02 -0.52633880686E+01  0.72461568971E+02  0.69999998276E+02 0.  0.
        -12    1    1    2    0    0 -0.89541159795E+01 -0.15582033633E+02  0.52633880686E+01  0.18726431029E+02  0.00000000000E+00 0.  1.
         11    1    3    3    0    0  0.18145681420E+02 -0.14826819054E+02  0.11641162762E+02  0.26165186569E+02  0.51100000000E-03 0. -1.
        -11    1    3    3    0    0 -0.63667543685E+01 -0.78479977815E+00  0.49512327169E+01  0.81034670086E+01  0.51100000000E-03 0.  1.
        -12    1    3    3    0    0 -0.28248110723E+01  0.31193652466E+02 -0.21855783548E+02  0.38192915393E+02  0.00000000000E+00 0.  1.
</event>
<event>
 7    1  0.2604986E-013  0.7246156E+02  0.7816164E-02  0.1226708E+00
        -11   -1    0    0    0    0  0.00000000000E+00  0.00000000000E+00  0.45593999997E+02  0.45594000000E+02  0.51100000000E-03 0.  1.
         11   -1    0    0    0    0 -0.00000000000E+00 -0.00000000000E+00 -0.45593999997E+02  0.45594000000E+02  0.51100000000E-03 0. -1.
    9900012    2    1    2    0    0  0.10180911944E+02 -0.72386543682E+01 -0.13951000322E+02  0.72461561603E+02  0.69999988677E+02 0.  0.
        -12    1    1    2    0    0 -0.10180911944E+02  0.72386543682E+01  0.13951000322E+02  0.18726438397E+02  0.00000000000E+00 0.  1.
         11    1    3    3    0    0 -0.14277417215E+02  0.72617434493E+01 -0.22179140201E+02  0.27358578555E+02  0.51100000000E-03 0. -1.
        -11    1    3    3    0    0  0.12593362303E+02  0.74100743577E+01  0.13204427122E+02  0.19694132932E+02  0.51100000000E-03 0.  1.
        -12    1    3    3    0    0  0.11864966856E+02 -0.21910472175E+02 -0.49762872436E+01  0.25408850115E+02  0.00000000000E+00 0.  1.
</event>
<event>
 7    1  0.2604986E-013  0.7246166E+02  0.7816164E-02  0.1226708E+00
        -11   -1    0    0    0    0  0.00000000000E+00  0.00000000000E+00  0.45593999997E+02  0.45594000000E+02  0.51100000000E-03 0. -1.
         11   -1    0    0    0    0 -0.00000000000E+00 -0.00000000000E+00 -0.45593999997E+02  0.45594000000E+02  0.51100000000E-03 0.  1.
    9900012    2    1    2    0    0 -0.60746165005E+01 -0.64506255371E+01 -0.16497398127E+02  0.72461663455E+02  0.70000121359E+02 0.  0.
        -12    1    1    2    0    0  0.60746165005E+01  0.64506255371E+01  0.16497398127E+02  0.18726336545E+02  0.00000000000E+00 0.  1.
         11    1    3    3    0    0 -0.25536266176E+01 -0.50876694877E+01  0.63928837128E+01  0.85600439336E+01  0.51100000000E-03 0. -1.
        -11    1    3    3    0    0 -0.95926713560E+01 -0.17436868148E+02  0.13233506311E+02  0.23899569119E+02  0.51100000000E-03 0.  1.
        -12    1    3    3    0    0  0.60716814731E+01  0.16073912098E+02 -0.36123788150E+02  0.40002050402E+02  0.00000000000E+00 0.  1.
</event>
<event>
 7    1  0.2604986E-013  0.7246161E+02  0.7816164E-02  0.1226708E+00
        -11   -1    0    0    0    0  0.00000000000E+00  0.00000000000E+00  0.45593999997E+02  0.45594000000E+02  0.51100000000E-03 0. -1.
         11   -1    0    0    0    0 -0.00000000000E+00 -0.00000000000E+00 -0.45593999997E+02  0.45594000000E+02  0.51100000000E-03 0.  1.
    9900012    2    1    2    0    0  0.15253373485E+01 -0.15289345068E+02  0.10704522682E+02  0.72461614004E+02  0.70000056939E+02 0.  0.
        -12    1    1    2    0    0 -0.15253373485E+01  0.15289345068E+02 -0.10704522682E+02  0.18726385996E+02  0.00000000000E+00 0.  1.
         11    1    3    3    0    0  0.13246889799E+01 -0.16469908995E+02 -0.74740966070E+01  0.18134906219E+02  0.51100000000E-03 0. -1.
        -11    1    3    3    0    0  0.97874523516E+01  0.89230071662E+01 -0.14358583029E+02  0.19534154378E+02  0.51100000000E-03 0.  1.
         12    1    3    3    0    0 -0.95868039830E+01 -0.77424432392E+01  0.32537202317E+02  0.34792553407E+02  0.00000000000E+00 0. -1.
</event>
<event>
 7    1  0.2604986E-013  0.7246156E+02  0.7816164E-02  0.1226708E+00
        -11   -1    0    0    0    0  0.00000000000E+00  0.00000000000E+00  0.45593999997E+02  0.45594000000E+02  0.51100000000E-03 0. -1.
         11   -1    0    0    0    0 -0.00000000000E+00 -0.00000000000E+00 -0.45593999997E+02  0.45594000000E+02  0.51100000000E-03 0.  1.
    9900012    2    1    2    0    0  0.14383875316E+02 -0.10577347738E+02  0.56483067525E+01  0.72461560845E+02  0.69999987690E+02 0.  0.
        -12    1    1    2    0    0 -0.14383875316E+02  0.10577347738E+02 -0.56483067525E+01  0.18726439155E+02  0.00000000000E+00 0.  1.
         11    1    3    3    0    0  0.60583328414E+01  0.72476948793E+01 -0.17895181498E+02  0.20235365057E+02  0.51100000000E-03 0. -1.
        -11    1    3    3    0    0 -0.35292689113E+01  0.33155456478E+01 -0.98428857286E+01  0.10969547927E+02  0.51100000000E-03 0.  1.
         12    1    3    3    0    0  0.11854811386E+02 -0.21140588265E+02  0.33386373979E+02  0.41256647860E+02  0.00000000000E+00 0. -1.
</event>
<event>
 7    1  0.2604986E-013  0.7246156E+02  0.7816164E-02  0.1226708E+00
        -11   -1    0    0    0    0  0.00000000000E+00  0.00000000000E+00  0.45593999997E+02  0.45594000000E+02  0.51100000000E-03 0. -1.
         11   -1    0    0    0    0 -0.00000000000E+00 -0.00000000000E+00 -0.45593999997E+02  0.45594000000E+02  0.51100000000E-03 0.  1.
    9900012    2    1    2    0    0  0.14496052357E+01  0.14914080227E+02  0.11231588178E+02  0.72461555667E+02  0.69999980945E+02 0.  0.
        -12    1    1    2    0    0 -0.14496052357E+01 -0.14914080227E+02 -0.11231588178E+02  0.18726444333E+02  0.00000000000E+00 0.  1.
         11    1    3    3    0    0 -0.21147071499E+02 -0.83826183464E+01 -0.35155329792E+01  0.23017947252E+02  0.51100000000E-03 0. -1.
        -11    1    3    3    0    0 -0.78492892011E+01 -0.32243203932E+00 -0.79051946376E+00  0.78955826047E+01  0.51100000000E-03 0.  1.
        -12    1    3    3    0    0  0.30445965936E+02  0.23619130612E+02  0.15537640621E+02  0.41548025810E+02  0.00000000000E+00 0.  1.
</event>
<event>
 7    1  0.2604986E-013  0.7246156E+02  0.7816164E-02  0.1226708E+00
        -11   -1    0    0    0    0  0.00000000000E+00  0.00000000000E+00  0.45593999997E+02  0.45594000000E+02  0.51100000000E-03 0.  1.
         11   -1    0    0    0    0 -0.00000000000E+00 -0.00000000000E+00 -0.45593999997E+02  0.45594000000E+02  0.51100000000E-03 0. -1.
    9900012    2    1    2    0    0  0.15211656339E+02  0.13317449727E+01 -0.10840277466E+02  0.72461557498E+02  0.69999983330E+02 0.  0.
        -12    1    1    2    0    0 -0.15211656339E+02 -0.13317449727E+01  0.10840277466E+02  0.18726442502E+02  0.00000000000E+00 0.  1.
         11    1    3    3    0    0  0.31025221949E+02 -0.57080224246E+01 -0.10056153047E+02  0.33110000474E+02  0.51100000000E-03 0. -1.
        -11    1    3    3    0    0 -0.26431305584E+01  0.37669779251E+01 -0.17342367544E+02  0.17942518611E+02  0.51100000000E-03 0.  1.
        -12    1    3    3    0    0 -0.13170435052E+02  0.32727894723E+01  0.16558243125E+02  0.21409038413E+02  0.00000000000E+00 0.  1.
</event>
<event>
 7    1  0.2604986E-013  0.7246162E+02  0.7816164E-02  0.1226708E+00
        -11   -1    0    0    0    0  0.00000000000E+00  0.00000000000E+00  0.45593999997E+02  0.45594000000E+02  0.51100000000E-03 0.  1.
         11   -1    0    0    0    0 -0.00000000000E+00 -0.00000000000E+00 -0.45593999997E+02  0.45594000000E+02  0.51100000000E-03 0. -1.
    9900012    2    1    2    0    0  0.44593001441E+01  0.17433986199E+02  0.51815066096E+01  0.72461621725E+02  0.70000066998E+02 0.  0.
        -12    1    1    2    0    0 -0.44593001441E+01 -0.17433986199E+02 -0.51815066096E+01  0.18726378275E+02  0.00000000000E+00 0.  1.
         11    1    3    3    0    0  0.81878387152E+01 -0.46170666308E+01 -0.52316100118E+01  0.10757683332E+02  0.51100000000E-03 0. -1.
        -11    1    3    3    0    0  0.45046050796E+01 -0.91715366127E+01  0.24446777418E+02  0.26496291762E+02  0.51100000000E-03 0.  1.
         12    1    3    3    0    0 -0.82331436508E+01  0.31222589443E+02 -0.14033660797E+02  0.35207646630E+02  0.00000000000E+00 0. -1.
</event>
<event>
 7    1  0.2604986E-013  0.7246157E+02  0.7816164E-02  0.1226708E+00
        -11   -1    0    0    0    0  0.00000000000E+00  0.00000000000E+00  0.45593999997E+02  0.45594000000E+02  0.51100000000E-03 0. -1.
         11   -1    0    0    0    0 -0.00000000000E+00 -0.00000000000E+00 -0.45593999997E+02  0.45594000000E+02  0.51100000000E-03 0.  1.
    9900012    2    1    2    0    0 -0.17734739358E+02  0.21460195289E+01 -0.56171945806E+01  0.72461568016E+02  0.69999997032E+02 0.  0.
        -12    1    1    2    0    0  0.17734739358E+02 -0.21460195289E+01  0.56171945806E+01  0.18726431984E+02  0.00000000000E+00 0.  1.
         11    1    3    3    0    0  0.15556040236E+01  0.56619596643E+01 -0.72456715819E+01  0.93261700634E+01  0.51100000000E-03 0. -1.
        -11    1    3    3    0    0 -0.26588083512E+02 -0.24082785545E+02 -0.11495000074E+02  0.37670170844E+02  0.51100000000E-03 0.  1.
         12    1    3    3    0    0  0.72977401308E+01  0.20566845410E+02  0.13123477075E+02  0.25465227108E+02  0.00000000000E+00 0. -1.
</event>
<event>
 7    1  0.2604986E-013  0.7246153E+02  0.7816164E-02  0.1226708E+00
        -11   -1    0    0    0    0  0.00000000000E+00  0.00000000000E+00  0.45593999997E+02  0.45594000000E+02  0.51100000000E-03 0. -1.
         11   -1    0    0    0    0 -0.00000000000E+00 -0.00000000000E+00 -0.45593999997E+02  0.45594000000E+02  0.51100000000E-03 0.  1.
    9900012    2    1    2    0    0  0.13357771944E+02 -0.46750021081E+01  0.12263566152E+02  0.72461527540E+02  0.69999944305E+02 0.  0.
        -12    1    1    2    0    0 -0.13357771944E+02  0.46750021081E+01 -0.12263566152E+02  0.18726472460E+02  0.00000000000E+00 0.  1.
         11    1    3    3    0    0  0.15121743236E+02  0.65053479588E+01  0.34919359011E+02  0.38605029524E+02  0.51100000000E-03 0. -1.
        -11    1    3    3    0    0 -0.80454353038E+01  0.45645049494E+00 -0.52455564086E+00  0.80754278626E+01  0.51100000000E-03 0.  1.
        -12    1    3    3    0    0  0.62814640114E+01 -0.11636800562E+02 -0.22131237218E+02  0.25781070153E+02  0.00000000000E+00 0.  1.
</event>
<event>
 7    1  0.2604986E-013  0.7246159E+02  0.7816164E-02  0.1226708E+00
        -11   -1    0    0    0    0  0.00000000000E+00  0.00000000000E+00  0.45593999997E+02  0.45594000000E+02  0.51100000000E-03 0.  1.
         11   -1    0    0    0    0 -0.00000000000E+00 -0.00000000000E+00 -0.45593999997E+02  0.45594000000E+02  0.51100000000E-03 0. -1.
    9900012    2    1    2    0    0 -0.12566476431E+02 -0.31291093989E+01 -0.13526668241E+02  0.72461590595E+02  0.70000026445E+02 0.  0.
        -12    1    1    2    0    0  0.12566476431E+02  0.31291093989E+01  0.13526668241E+02  0.18726409405E+02  0.00000000000E+00 0.  1.
         11    1    3    3    0    0  0.86284628353E+01 -0.15479668843E+02 -0.33262166674E+02  0.37688754961E+02  0.51100000000E-03 0. -1.
        -11    1    3    3    0    0 -0.10884271112E+02 -0.13559366718E+01  0.45855337479E+01  0.11888357410E+02  0.51100000000E-03 0.  1.
        -12    1    3    3    0    0 -0.10310668154E+02  0.13706496116E+02  0.15149964686E+02  0.22884478223E+02  0.00000000000E+00 0.  1.
</event>
<event>
 7    1  0.2604986E-013  0.7246157E+02  0.7816164E-02  0.1226708E+00
        -11   -1    0    0    0    0  0.00000000000E+00  0.00000000000E+00  0.45593999997E+02  0.45594000000E+02  0.51100000000E-03 0. -1.
         11   -1    0    0    0    0 -0.00000000000E+00 -0.00000000000E+00 -0.45593999997E+02  0.45594000000E+02  0.51100000000E-03 0.  1.
    9900012    2    1    2    0    0  0.12215742062E+02 -0.86360758147E+01  0.11263786268E+02  0.72461573734E+02  0.70000004481E+02 0.  0.
        -12    1    1    2    0    0 -0.12215742062E+02  0.86360758147E+01 -0.11263786268E+02  0.18726426266E+02  0.00000000000E+00 0.  1.
         11    1    3    3    0    0 -0.84118748091E+01  0.18263511984E+02  0.45408418088E+01  0.20613945581E+02  0.51100000000E-03 0. -1.
        -11    1    3    3    0    0  0.35712762895E+01  0.87517592372E+01  0.78847428978E+01  0.12309202854E+02  0.51100000000E-03 0.  1.
        -12    1    3    3    0    0  0.17056340582E+02 -0.35651347036E+02 -0.11617984384E+01  0.39538425299E+02  0.00000000000E+00 0.  1.
</event>
<event>
 7    1  0.2604986E-013  0.7246159E+02  0.7816164E-02  0.1226708E+00
        -11   -1    0    0    0    0  0.00000000000E+00  0.00000000000E+00  0.45593999997E+02  0.45594000000E+02  0.51100000000E-03 0. -1.
         11   -1    0    0    0    0 -0.00000000000E+00 -0.00000000000E+00 -0.45593999997E+02  0.45594000000E+02  0.51100000000E-03 0.  1.
    9900012    2    1    2    0    0  0.15635568153E+02 -0.10076805357E+02 -0.21599532567E+01  0.72461590954E+02  0.70000026913E+02 0.  0.
        -12    1    1    2    0    0 -0.15635568153E+02  0.10076805357E+02  0.21599532567E+01  0.18726409046E+02  0.00000000000E+00 0.  1.
         11    1    3    3    0    0  0.64178250146E+01  0.41954361824E+01  0.15421803647E+02  0.17222723091E+02  0.51100000000E-03 0. -1.
        -11    1    3    3    0    0  0.18837621075E+02 -0.29108631494E+02 -0.11091441545E+02  0.36403138203E+02  0.51100000000E-03 0.  1.
         12    1    3    3    0    0 -0.96198779368E+01  0.14836389954E+02 -0.64903153584E+01  0.18835729660E+02  0.00000000000E+00 0. -1.
</event>
<event>
 7    1  0.2604986E-013  0.7246178E+02  0.7816164E-02  0.1226707E+00
        -11   -1    0    0    0    0  0.00000000000E+00  0.00000000000E+00  0.45593999997E+02  0.45594000000E+02  0.51100000000E-03 0.  1.
         11   -1    0    0    0    0 -0.00000000000E+00 -0.00000000000E+00 -0.45593999997E+02  0.45594000000E+02  0.51100000000E-03 0. -1.
    9900012    2    1    2    0    0 -0.58596921681E+01  0.17779157277E+02  0.48664460431E+00  0.72461781782E+02  0.70000275501E+02 0.  0.
        -12    1    1    2    0    0  0.58596921681E+01 -0.17779157277E+02 -0.48664460431E+00  0.18726218218E+02  0.00000000000E+00 0.  1.
         11    1    3    3    0    0  0.95451704060E+01 -0.97253229564E+01 -0.57540212827E+01  0.14791921642E+02  0.51100000000E-03 0. -1.
        -11    1    3    3    0    0 -0.22462168861E+02 -0.58563927530E+01  0.17998507916E+01  0.23282736719E+02  0.51100000000E-03 0.  1.
        -12    1    3    3    0    0  0.70573062867E+01  0.33360872986E+02  0.44408150954E+01  0.34387123420E+02  0.00000000000E+00 0.  1.
</event>
<event>
 7    1  0.2604986E-013  0.7246110E+02  0.7816164E-02  0.1226709E+00
        -11   -1    0    0    0    0  0.00000000000E+00  0.00000000000E+00  0.45593999997E+02  0.45594000000E+02  0.51100000000E-03 0.  1.
         11   -1    0    0    0    0 -0.00000000000E+00 -0.00000000000E+00 -0.45593999997E+02  0.45594000000E+02  0.51100000000E-03 0. -1.
    9900012    2    1    2    0    0  0.41967969886E+00  0.32880016421E+01 -0.18431210504E+02  0.72461104729E+02  0.69999393512E+02 0.  0.
        -12    1    1    2    0    0 -0.41967969886E+00 -0.32880016421E+01  0.18431210504E+02  0.18726895271E+02  0.00000000000E+00 0.  1.
         11    1    3    3    0    0 -0.27655051361E+01 -0.76197474985E+00 -0.98461265081E+00  0.30328347318E+01  0.51100000000E-03 0. -1.
        -11    1    3    3    0    0  0.50129944513E+01 -0.30861878756E+02 -0.23695589161E+01  0.31356027865E+02  0.51100000000E-03 0.  1.
         12    1    3    3    0    0 -0.18278096163E+01  0.34911855148E+02 -0.15077038937E+02  0.38072242132E+02  0.00000000000E+00 0. -1.
</event>
<event>
 7    1  0.2604986E-013  0.7246157E+02  0.7816164E-02  0.1226708E+00
        -11   -1    0    0    0    0  0.00000000000E+00  0.00000000000E+00  0.45593999997E+02  0.45594000000E+02  0.51100000000E-03 0.  1.
         11   -1    0    0    0    0 -0.00000000000E+00 -0.00000000000E+00 -0.45593999997E+02  0.45594000000E+02  0.51100000000E-03 0. -1.
    9900012    2    1    2    0    0  0.14295970252E+02 -0.12065165270E+02  0.85809830274E+00  0.72461566513E+02  0.69999995074E+02 0.  0.
        -12    1    1    2    0    0 -0.14295970252E+02  0.12065165270E+02 -0.85809830274E+00  0.18726433487E+02  0.00000000000E+00 0.  1.
         11    1    3    3    0    0 -0.40365588744E+01  0.12450909109E+02 -0.56896458702E+01  0.14272036140E+02  0.51100000000E-03 0. -1.
        -11    1    3    3    0    0 -0.97271410194E+01 -0.17249242742E+02  0.18251120136E+02  0.26930596615E+02  0.51100000000E-03 0.  1.
         12    1    3    3    0    0  0.28059670146E+02 -0.72668316378E+01 -0.11703375963E+02  0.31258933758E+02  0.00000000000E+00 0. -1.
</event>
<event>
 7    1  0.2604986E-013  0.7246158E+02  0.7816164E-02  0.1226708E+00
        -11   -1    0    0    0    0  0.00000000000E+00  0.00000000000E+00  0.45593999997E+02  0.45594000000E+02  0.51100000000E-03 0. -1.
         11   -1    0    0    0    0 -0.00000000000E+00 -0.00000000000E+00 -0.45593999997E+02  0.45594000000E+02  0.51100000000E-03 0.  1.
    9900012    2    1    2    0    0  0.22054583388E+01  0.28015963338E+01  0.18383845424E+02  0.72461581200E+02  0.70000014207E+02 0.  0.
        -12    1    1    2    0    0 -0.22054583388E+01 -0.28015963338E+01 -0.18383845424E+02  0.18726418800E+02  0.00000000000E+00 0.  1.
         11    1    3    3    0    0  0.50435415234E+01  0.13429172049E+02  0.25624921386E+02  0.29366929859E+02  0.51100000000E-03 0. -1.
        -11    1    3    3    0    0 -0.12641192494E+02  0.12098269536E+02 -0.77938620816E+00  0.17515002614E+02  0.51100000000E-03 0.  1.
         12    1    3    3    0    0  0.98031093096E+01 -0.22725845251E+02 -0.64616897542E+01  0.25579648727E+02  0.00000000000E+00 0. -1.
</event>
<event>
 7    1  0.2604986E-013  0.7246157E+02  0.7816164E-02  0.1226708E+00
        -11   -1    0    0    0    0  0.00000000000E+00  0.00000000000E+00  0.45593999997E+02  0.45594000000E+02  0.51100000000E-03 0.  1.
         11   -1    0    0    0    0 -0.00000000000E+00 -0.00000000000E+00 -0.45593999997E+02  0.45594000000E+02  0.51100000000E-03 0. -1.
    9900012    2    1    2    0    0 -0.55216760805E+00  0.16089698451E+01 -0.18649011876E+02  0.72461566357E+02  0.69999994871E+02 0.  0.
        -12    1    1    2    0    0  0.55216760805E+00 -0.16089698451E+01  0.18649011876E+02  0.18726433643E+02  0.00000000000E+00 0.  1.
         11    1    3    3    0    0 -0.47017141263E+00 -0.74838796153E+01  0.25995911760E+01  0.79364595253E+01  0.51100000000E-03 0. -1.
        -11    1    3    3    0    0 -0.88943263024E+01  0.11601043086E+02  0.18588492459E+02  0.23647944799E+02  0.51100000000E-03 0.  1.
         12    1    3    3    0    0  0.88123301070E+01 -0.25081936256E+01 -0.39837095510E+02  0.40877162033E+02  0.00000000000E+00 0. -1.
</event>
<event>
 7    1  0.2604986E-013  0.7246158E+02  0.7816164E-02  0.1226708E+00
        -11   -1    0    0    0    0  0.00000000000E+00  0.00000000000E+00  0.45593999997E+02  0.45594000000E+02  0.51100000000E-03 0.  1.
         11   -1    0    0    0    0 -0.00000000000E+00 -0.00000000000E+00 -0.45593999997E+02  0.45594000000E+02  0.51100000000E-03 0. -1.
    9900012    2    1    2    0    0 -0.16138182652E+02 -0.94889310297E+01  0.44484323198E+00  0.72461584515E+02  0.70000018525E+02 0.  0.
        -12    1    1    2    0    0  0.16138182652E+02  0.94889310297E+01 -0.44484323198E+00  0.18726415485E+02  0.00000000000E+00 0.  1.
         11    1    3    3    0    0 -0.96796947453E+00  0.73705510875E+01  0.55382683243E+01  0.92700811502E+01  0.51100000000E-03 0. -1.
        -11    1    3    3    0    0  0.17015950620E+02  0.10952527537E+02 -0.40707546716E+01  0.20641498948E+02  0.51100000000E-03 0.  1.
         12    1    3    3    0    0 -0.32186163798E+02 -0.27812009655E+02 -0.10226704207E+01  0.42550004417E+02  0.00000000000E+00 0. -1.
</event>
<event>
 7    1  0.2604986E-013  0.7246153E+02  0.7816164E-02  0.1226708E+00
        -11   -1    0    0    0    0  0.00000000000E+00  0.00000000000E+00  0.45593999997E+02  0.45594000000E+02  0.51100000000E-03 0. -1.
         11   -1    0    0    0    0 -0.00000000000E+00 -0.00000000000E+00 -0.45593999997E+02  0.45594000000E+02  0.51100000000E-03 0.  1.
    9900012    2    1    2    0    0 -0.38360873390E+01 -0.18318152083E+02 -0.64068313885E+00  0.72461528450E+02  0.69999945490E+02 0.  0.
        -12    1    1    2    0    0  0.38360873390E+01  0.18318152083E+02  0.64068313885E+00  0.18726471550E+02  0.00000000000E+00 0.  1.
         11    1    3    3    0    0  0.60894213866E+01 -0.83655728091E+01  0.21730343310E+02  0.24068063526E+02  0.51100000000E-03 0. -1.
        -11    1    3    3    0    0 -0.22521830052E+02  0.19965228642E+01 -0.37238802372E+01  0.22914759801E+02  0.51100000000E-03 0.  1.
         12    1    3    3    0    0  0.12596321327E+02 -0.11949102139E+02 -0.18647146212E+02  0.25478705123E+02  0.00000000000E+00 0. -1.
</event>
<event>
 7    1  0.2604986E-013  0.7246160E+02  0.7816164E-02  0.1226708E+00
        -11   -1    0    0    0    0  0.00000000000E+00  0.00000000000E+00  0.45593999997E+02  0.45594000000E+02  0.51100000000E-03 0.  1.
         11   -1    0    0    0    0 -0.00000000000E+00 -0.00000000000E+00 -0.45593999997E+02  0.45594000000E+02  0.51100000000E-03 0. -1.
    9900012    2    1    2    0    0  0.10994190495E+02 -0.10003293611E+02 -0.11390350340E+02  0.72461596486E+02  0.70000034119E+02 0.  0.
        -12    1    1    2    0    0 -0.10994190495E+02  0.10003293611E+02  0.11390350340E+02  0.18726403514E+02  0.00000000000E+00 0.  1.
         11    1    3    3    0    0  0.57682467730E+01 -0.39943706252E+01  0.10001745081E+02  0.12217306268E+02  0.51100000000E-03 0. -1.
        -11    1    3    3    0    0  0.23391302159E+00 -0.14732454484E+02  0.15867081639E+02  0.21653272511E+02  0.51100000000E-03 0.  1.
         12    1    3    3    0    0  0.49920307006E+01  0.87235314987E+01 -0.37259177061E+02  0.38591017706E+02  0.00000000000E+00 0. -1.
</event>
<event>
 7    1  0.2604986E-013  0.7246162E+02  0.7816164E-02  0.1226708E+00
        -11   -1    0    0    0    0  0.00000000000E+00  0.00000000000E+00  0.45593999997E+02  0.45594000000E+02  0.51100000000E-03 0. -1.
         11   -1    0    0    0    0 -0.00000000000E+00 -0.00000000000E+00 -0.45593999997E+02  0.45594000000E+02  0.51100000000E-03 0.  1.
    9900012    2    1    2    0    0  0.16370529553E+02  0.75636907934E+01 -0.50471504397E+01  0.72461617973E+02  0.70000062110E+02 0.  0.
        -12    1    1    2    0    0 -0.16370529553E+02 -0.75636907934E+01  0.50471504397E+01  0.18726382027E+02  0.00000000000E+00 0.  1.
         11    1    3    3    0    0  0.22782003204E+01 -0.14579904981E+02  0.54629084923E+00  0.14766931296E+02  0.51100000000E-03 0. -1.
        -11    1    3    3    0    0 -0.46785332309E+01 -0.14012796214E+02  0.50086355122E+01  0.15599152570E+02  0.51100000000E-03 0.  1.
         12    1    3    3    0    0  0.18770862463E+02  0.36156391989E+02 -0.10602076801E+02  0.42095534107E+02  0.00000000000E+00 0. -1.
</event>
<event>
 7    1  0.2604986E-013  0.7246149E+02  0.7816164E-02  0.1226708E+00
        -11   -1    0    0    0    0  0.00000000000E+00  0.00000000000E+00  0.45593999997E+02  0.45594000000E+02  0.51100000000E-03 0.  1.
         11   -1    0    0    0    0 -0.00000000000E+00 -0.00000000000E+00 -0.45593999997E+02  0.45594000000E+02  0.51100000000E-03 0. -1.
    9900012    2    1    2    0    0  0.15163822182E+02  0.97821983110E+01 -0.50049217988E+01  0.72461490737E+02  0.69999896362E+02 0.  0.
        -12    1    1    2    0    0 -0.15163822182E+02 -0.97821983110E+01  0.50049217988E+01  0.18726509263E+02  0.00000000000E+00 0.  1.
         11    1    3    3    0    0 -0.44650756631E+01  0.81158161043E+01 -0.65137704037E+01  0.11323982376E+02  0.51100000000E-03 0. -1.
        -11    1    3    3    0    0  0.13793054035E+02  0.28430154003E+02  0.87795481269E+01  0.32796378791E+02  0.51100000000E-03 0.  1.
         12    1    3    3    0    0  0.58358438099E+01 -0.26763771797E+02 -0.72706995220E+01  0.28341129570E+02  0.00000000000E+00 0. -1.
</event>
<event>
 7    1  0.2604986E-013  0.7246153E+02  0.7816164E-02  0.1226708E+00
        -11   -1    0    0    0    0  0.00000000000E+00  0.00000000000E+00  0.45593999997E+02  0.45594000000E+02  0.51100000000E-03 0.  1.
         11   -1    0    0    0    0 -0.00000000000E+00 -0.00000000000E+00 -0.45593999997E+02  0.45594000000E+02  0.51100000000E-03 0. -1.
    9900012    2    1    2    0    0 -0.27276924874E+01  0.45065931367E+01 -0.17970277355E+02  0.72461533269E+02  0.69999951767E+02 0.  0.
        -12    1    1    2    0    0  0.27276924874E+01 -0.45065931367E+01  0.17970277355E+02  0.18726466731E+02  0.00000000000E+00 0.  1.
         11    1    3    3    0    0 -0.55925470730E+01  0.70479397181E+00  0.57911581970E+01  0.80815116674E+01  0.51100000000E-03 0. -1.
        -11    1    3    3    0    0 -0.13449391707E+02  0.23949612233E+01  0.16201605291E+02  0.21192309709E+02  0.51100000000E-03 0.  1.
        -12    1    3    3    0    0  0.16314246293E+02  0.14068379416E+01 -0.39963040843E+02  0.43187711892E+02  0.00000000000E+00 0.  1.
</event>
<event>
 7    1  0.2604986E-013  0.7246161E+02  0.7816164E-02  0.1226708E+00
        -11   -1    0    0    0    0  0.00000000000E+00  0.00000000000E+00  0.45593999997E+02  0.45594000000E+02  0.51100000000E-03 0. -1.
         11   -1    0    0    0    0 -0.00000000000E+00 -0.00000000000E+00 -0.45593999997E+02  0.45594000000E+02  0.51100000000E-03 0.  1.
    9900012    2    1    2    0    0  0.96468236937E+00 -0.13683317604E+02  0.12748100587E+02  0.72461605225E+02  0.70000045503E+02 0.  0.
        -12    1    1    2    0    0 -0.96468236937E+00  0.13683317604E+02 -0.12748100587E+02  0.18726394775E+02  0.00000000000E+00 0.  1.
         11    1    3    3    0    0 -0.59010650616E+01 -0.53901501839E+01  0.14865163547E+02  0.16877481311E+02  0.51100000000E-03 0. -1.
        -11    1    3    3    0    0  0.31566432041E+01 -0.77567237180E+01  0.25950074340E+02  0.27267884364E+02  0.51100000000E-03 0.  1.
        -12    1    3    3    0    0  0.37091042269E+01 -0.53644370178E+00 -0.28067137300E+02  0.28316239550E+02  0.00000000000E+00 0.  1.
</event>
<event>
 7    1  0.2604986E-013  0.7246151E+02  0.7816164E-02  0.1226708E+00
        -11   -1    0    0    0    0  0.00000000000E+00  0.00000000000E+00  0.45593999997E+02  0.45594000000E+02  0.51100000000E-03 0. -1.
         11   -1    0    0    0    0 -0.00000000000E+00 -0.00000000000E+00 -0.45593999997E+02  0.45594000000E+02  0.51100000000E-03 0.  1.
    9900012    2    1    2    0    0  0.15989079574E+02  0.47365543274E+01  0.85203091642E+01  0.72461513924E+02  0.69999926567E+02 0.  0.
        -12    1    1    2    0    0 -0.15989079574E+02 -0.47365543274E+01 -0.85203091642E+01  0.18726486076E+02  0.00000000000E+00 0.  1.
         11    1    3    3    0    0 -0.87606788353E+01 -0.13369913771E+02 -0.82894470889E+01  0.18006082894E+02  0.51100000000E-03 0. -1.
        -11    1    3    3    0    0 -0.89905866291E-01  0.24184703685E+02  0.15749468568E+02  0.28860937889E+02  0.51100000000E-03 0.  1.
         12    1    3    3    0    0  0.24839664275E+02 -0.60782355865E+01  0.10602876850E+01  0.25594493141E+02  0.00000000000E+00 0. -1.
</event>
<event>
 7    1  0.2604986E-013  0.7246156E+02  0.7816164E-02  0.1226708E+00
        -11   -1    0    0    0    0  0.00000000000E+00  0.00000000000E+00  0.45593999997E+02  0.45594000000E+02  0.51100000000E-03 0.  1.
         11   -1    0    0    0    0 -0.00000000000E+00 -0.00000000000E+00 -0.45593999997E+02  0.45594000000E+02  0.51100000000E-03 0. -1.
    9900012    2    1    2    0    0  0.12409557314E+02 -0.93768296633E+01 -0.10428682878E+02  0.72461562170E+02  0.69999989416E+02 0.  0.
        -12    1    1    2    0    0 -0.12409557314E+02  0.93768296633E+01  0.10428682878E+02  0.18726437830E+02  0.00000000000E+00 0.  1.
         11    1    3    3    0    0 -0.25843881169E-01 -0.60598639639E+01 -0.20674438186E+02  0.21544257094E+02  0.51100000000E-03 0. -1.
        -11    1    3    3    0    0 -0.11797465851E+02 -0.12859279397E+01 -0.12771283734E+02  0.17433860721E+02  0.51100000000E-03 0.  1.
         12    1    3    3    0    0  0.24232867046E+02 -0.20310377597E+01  0.23017039042E+02  0.33483444355E+02  0.00000000000E+00 0. -1.
</event>
<event>
 7    1  0.2604986E-013  0.7246154E+02  0.7816164E-02  0.1226708E+00
        -11   -1    0    0    0    0  0.00000000000E+00  0.00000000000E+00  0.45593999997E+02  0.45594000000E+02  0.51100000000E-03 0.  1.
         11   -1    0    0    0    0 -0.00000000000E+00 -0.00000000000E+00 -0.45593999997E+02  0.45594000000E+02  0.51100000000E-03 0. -1.
    9900012    2    1    2    0    0 -0.71139224852E+01 -0.19229572319E+01 -0.17215529630E+02  0.72461544967E+02  0.69999967007E+02 0.  0.
        -12    1    1    2    0    0  0.71139224852E+01  0.19229572319E+01  0.17215529630E+02  0.18726455033E+02  0.00000000000E+00 0.  1.
         11    1    3    3    0    0 -0.24985087909E+02  0.17019851512E+01 -0.21586437972E+02  0.33062451147E+02  0.51100000000E-03 0. -1.
        -11    1    3    3    0    0  0.39928645863E+01  0.15208469257E+02  0.91287975627E+00  0.15750360454E+02  0.51100000000E-03 0.  1.
        -12    1    3    3    0    0  0.13878300837E+02 -0.18833411640E+02  0.34580285857E+01  0.23648733366E+02  0.00000000000E+00 0.  1.
</event>
<event>
 7    1  0.2604986E-013  0.7246150E+02  0.7816164E-02  0.1226708E+00
        -11   -1    0    0    0    0  0.00000000000E+00  0.00000000000E+00  0.45593999997E+02  0.45594000000E+02  0.51100000000E-03 0. -1.
         11   -1    0    0    0    0 -0.00000000000E+00 -0.00000000000E+00 -0.45593999997E+02  0.45594000000E+02  0.51100000000E-03 0.  1.
    9900012    2    1    2    0    0 -0.86731376791E+01  0.15064075166E+02 -0.69664942528E+01  0.72461502196E+02  0.69999911290E+02 0.  0.
        -12    1    1    2    0    0  0.86731376791E+01 -0.15064075166E+02  0.69664942528E+01  0.18726497804E+02  0.00000000000E+00 0.  1.
         11    1    3    3    0    0 -0.75270278983E+01 -0.60658723429E+01 -0.11759212260E+02  0.15222681416E+02  0.51100000000E-03 0. -1.
        -11    1    3    3    0    0  0.29412059201E+01 -0.11664907651E+01 -0.21952681985E+02  0.22179531996E+02  0.51100000000E-03 0.  1.
         12    1    3    3    0    0 -0.40873157009E+01  0.22296438274E+02  0.26745399992E+02  0.35059288784E+02  0.00000000000E+00 0. -1.
</event>
<event>
 7    1  0.2604986E-013  0.7246154E+02  0.7816164E-02  0.1226708E+00
        -11   -1    0    0    0    0  0.00000000000E+00  0.00000000000E+00  0.45593999997E+02  0.45594000000E+02  0.51100000000E-03 0.  1.
         11   -1    0    0    0    0 -0.00000000000E+00 -0.00000000000E+00 -0.45593999997E+02  0.45594000000E+02  0.51100000000E-03 0. -1.
    9900012    2    1    2    0    0 -0.46256141960E+01  0.12592821581E+02 -0.13065402010E+02  0.72461543001E+02  0.69999964445E+02 0.  0.
        -12    1    1    2    0    0  0.46256141960E+01 -0.12592821581E+02  0.13065402010E+02  0.18726456999E+02  0.00000000000E+00 0.  1.
         11    1    3    3    0    0 -0.62592822828E+01 -0.47404921006E+01  0.82074078137E+01  0.11358363585E+02  0.51100000000E-03 0. -1.
        -11    1    3    3    0    0 -0.79454181315E+01  0.19232160860E+02  0.13619822188E+02  0.24869765526E+02  0.51100000000E-03 0.  1.
         12    1    3    3    0    0  0.95790862184E+01 -0.18988471782E+01 -0.34892632012E+02  0.36233413890E+02  0.00000000000E+00 0. -1.
</event>
<event>
 7    1  0.2604986E-013  0.7246158E+02  0.7816164E-02  0.1226708E+00
        -11   -1    0    0    0    0  0.00000000000E+00  0.00000000000E+00  0.45593999997E+02  0.45594000000E+02  0.51100000000E-03 0.  1.
         11   -1    0    0    0    0 -0.00000000000E+00 -0.00000000000E+00 -0.45593999997E+02  0.45594000000E+02  0.51100000000E-03 0. -1.
    9900012    2    1    2    0    0 -0.16968160489E+02  0.79073651712E+01 -0.48378920332E+00  0.72461576254E+02  0.70000007763E+02 0.  0.
        -12    1    1    2    0    0  0.16968160489E+02 -0.79073651712E+01  0.48378920332E+00  0.18726423746E+02  0.00000000000E+00 0.  1.
         11    1    3    3    0    0  0.48117277829E+01 -0.14191430661E+01  0.88043231257E+00  0.50933145020E+01  0.51100000000E-03 0. -1.
        -11    1    3    3    0    0  0.15870368849E+02 -0.83810764073E+01  0.14262019828E+02  0.22924141401E+02  0.51100000000E-03 0.  1.
         12    1    3    3    0    0 -0.37650257120E+02  0.17707584645E+02 -0.15626241344E+02  0.44444120351E+02  0.00000000000E+00 0. -1.
</event>
<event>
 7    1  0.2604986E-013  0.7246156E+02  0.7816164E-02  0.1226708E+00
        -11   -1    0    0    0    0  0.00000000000E+00  0.00000000000E+00  0.45593999997E+02  0.45594000000E+02  0.51100000000E-03 0.  1.
         11   -1    0    0    0    0 -0.00000000000E+00 -0.00000000000E+00 -0.45593999997E+02  0.45594000000E+02  0.51100000000E-03 0. -1.
    9900012    2    1    2    0    0 -0.15334214193E+02  0.14599820742E+01 -0.10649400047E+02  0.72461564303E+02  0.69999992195E+02 0.  0.
        -12    1    1    2    0    0  0.15334214193E+02 -0.14599820742E+01  0.10649400047E+02  0.18726435697E+02  0.00000000000E+00 0.  1.
         11    1    3    3    0    0 -0.11186698179E+01 -0.74831195141E+01 -0.20548839591E+02  0.21897563988E+02  0.51100000000E-03 0. -1.
        -11    1    3    3    0    0 -0.83385197540E+01  0.21545732814E+02 -0.10899296680E+02  0.25544944364E+02  0.51100000000E-03 0.  1.
         12    1    3    3    0    0 -0.58770246208E+01 -0.12602631225E+02  0.20798736224E+02  0.25019055951E+02  0.00000000000E+00 0. -1.
</event>
<event>
 7    1  0.2604986E-013  0.7246166E+02  0.7816164E-02  0.1226708E+00
        -11   -1    0    0    0    0  0.00000000000E+00  0.00000000000E+00  0.45593999997E+02  0.45594000000E+02  0.51100000000E-03 0. -1.
         11   -1    0    0    0    0 -0.00000000000E+00 -0.00000000000E+00 -0.45593999997E+02  0.45594000000E+02  0.51100000000E-03 0.  1.
    9900012    2    1    2    0    0  0.11281204832E+02  0.12618142381E+02  0.80120437002E+01  0.72461656420E+02  0.70000112195E+02 0.  0.
        -12    1    1    2    0    0 -0.11281204832E+02 -0.12618142381E+02 -0.80120437002E+01  0.18726343580E+02  0.00000000000E+00 0.  1.
         11    1    3    3    0    0 -0.23857244121E+01 -0.13753072603E+01 -0.10315115375E+01  0.29406066285E+01  0.51100000000E-03 0. -1.
        -11    1    3    3    0    0 -0.20899166491E+02 -0.52218072984E+01 -0.12067227907E+02  0.24691302540E+02  0.51100000000E-03 0.  1.
         12    1    3    3    0    0  0.34566095736E+02  0.19215256940E+02  0.21110783145E+02  0.44829747252E+02  0.00000000000E+00 0. -1.
</event>
<event>
 7    1  0.2604986E-013  0.7246156E+02  0.7816164E-02  0.1226708E+00
        -11   -1    0    0    0    0  0.00000000000E+00  0.00000000000E+00  0.45593999997E+02  0.45594000000E+02  0.51100000000E-03 0.  1.
         11   -1    0    0    0    0 -0.00000000000E+00 -0.00000000000E+00 -0.45593999997E+02  0.45594000000E+02  0.51100000000E-03 0. -1.
    9900012    2    1    2    0    0  0.12410686277E+02 -0.40284427612E+01 -0.13432274966E+02  0.72461561585E+02  0.69999988655E+02 0.  0.
        -12    1    1    2    0    0 -0.12410686277E+02  0.40284427612E+01  0.13432274966E+02  0.18726438415E+02  0.00000000000E+00 0.  1.
         11    1    3    3    0    0  0.17661450092E+02 -0.15737971360E+02 -0.28313900477E+02  0.36895630125E+02  0.51100000000E-03 0. -1.
        -11    1    3    3    0    0  0.83486216870E+01 -0.44599510386E+01  0.10219844365E+02  0.13929675748E+02  0.51100000000E-03 0.  1.
        -12    1    3    3    0    0 -0.13599385502E+02  0.16169479637E+02  0.46617811465E+01  0.21636255712E+02  0.00000000000E+00 0.  1.
</event>
<event>
 7    1  0.2604986E-013  0.7246161E+02  0.7816164E-02  0.1226708E+00
        -11   -1    0    0    0    0  0.00000000000E+00  0.00000000000E+00  0.45593999997E+02  0.45594000000E+02  0.51100000000E-03 0. -1.
         11   -1    0    0    0    0 -0.00000000000E+00 -0.00000000000E+00 -0.45593999997E+02  0.45594000000E+02  0.51100000000E-03 0.  1.
    9900012    2    1    2    0    0 -0.50093262976E+01  0.13292991517E+02 -0.12201668522E+02  0.72461609847E+02  0.70000051525E+02 0.  0.
        -12    1    1    2    0    0  0.50093262976E+01 -0.13292991517E+02  0.12201668522E+02  0.18726390153E+02  0.00000000000E+00 0.  1.
         11    1    3    3    0    0  0.77461569865E+01  0.12873500564E+02 -0.24187982183E+02  0.28474347177E+02  0.51100000000E-03 0. -1.
        -11    1    3    3    0    0  0.64198918906E+01  0.14397270805E+02 -0.28251185132E+01  0.16014921586E+02  0.51100000000E-03 0.  1.
         12    1    3    3    0    0 -0.19175375175E+02 -0.13977779853E+02  0.14811432174E+02  0.27972341084E+02  0.00000000000E+00 0. -1.
</event>
<event>
 7    1  0.2604986E-013  0.7246153E+02  0.7816164E-02  0.1226708E+00
        -11   -1    0    0    0    0  0.00000000000E+00  0.00000000000E+00  0.45593999997E+02  0.45594000000E+02  0.51100000000E-03 0. -1.
         11   -1    0    0    0    0 -0.00000000000E+00 -0.00000000000E+00 -0.45593999997E+02  0.45594000000E+02  0.51100000000E-03 0.  1.
    9900012    2    1    2    0    0  0.44656827957E+01  0.17732088616E+02  0.40387354536E+01  0.72461530135E+02  0.69999947685E+02 0.  0.
        -12    1    1    2    0    0 -0.44656827957E+01 -0.17732088616E+02 -0.40387354536E+01  0.18726469865E+02  0.00000000000E+00 0.  1.
         11    1    3    3    0    0  0.24808422320E+02 -0.10468522044E+01  0.61610433422E+01  0.25583435517E+02  0.51100000000E-03 0. -1.
        -11    1    3    3    0    0 -0.16238682467E+02  0.22285619910E+01  0.15355647507E+02  0.22460124831E+02  0.51100000000E-03 0.  1.
        -12    1    3    3    0    0 -0.41040570567E+01  0.16550378830E+02 -0.17477955395E+02  0.24417969787E+02  0.00000000000E+00 0.  1.
</event>
<event>
 7    1  0.2604986E-013  0.7246159E+02  0.7816164E-02  0.1226708E+00
        -11   -1    0    0    0    0  0.00000000000E+00  0.00000000000E+00  0.45593999997E+02  0.45594000000E+02  0.51100000000E-03 0. -1.
         11   -1    0    0    0    0 -0.00000000000E+00 -0.00000000000E+00 -0.45593999997E+02  0.45594000000E+02  0.51100000000E-03 0.  1.
    9900012    2    1    2    0    0 -0.11492326184E+02 -0.14482666259E+02  0.29761152414E+01  0.72461589639E+02  0.70000025200E+02 0.  0.
        -12    1    1    2    0    0  0.11492326184E+02  0.14482666259E+02 -0.29761152414E+01  0.18726410361E+02  0.00000000000E+00 0.  1.
         11    1    3    3    0    0 -0.17954534195E+02  0.88637289959E+01  0.71771700648E+01  0.21270701922E+02  0.51100000000E-03 0. -1.
        -11    1    3    3    0    0  0.11498734021E+01 -0.41240722858E+01 -0.23232882426E+02  0.23624076853E+02  0.51100000000E-03 0.  1.
         12    1    3    3    0    0  0.53123346081E+01 -0.19222322969E+02  0.19031827603E+02  0.27566810864E+02  0.00000000000E+00 0. -1.
</event>
<event>
 7    1  0.2604986E-013  0.7246156E+02  0.7816164E-02  0.1226708E+00
        -11   -1    0    0    0    0  0.00000000000E+00  0.00000000000E+00  0.45593999997E+02  0.45594000000E+02  0.51100000000E-03 0.  1.
         11   -1    0    0    0    0 -0.00000000000E+00 -0.00000000000E+00 -0.45593999997E+02  0.45594000000E+02  0.51100000000E-03 0. -1.
    9900012    2    1    2    0    0  0.12151268800E+01  0.13615996717E+01 -0.18637307092E+02  0.72461556060E+02  0.69999981457E+02 0.  0.
        -12    1    1    2    0    0 -0.12151268800E+01 -0.13615996717E+01  0.18637307092E+02  0.18726443940E+02  0.00000000000E+00 0.  1.
         11    1    3    3    0    0  0.18434593287E+02  0.17984329419E+02 -0.18000391573E+02  0.31421082594E+02  0.51100000000E-03 0. -1.
        -11    1    3    3    0    0 -0.50099233068E+01  0.79351875962E+01 -0.83387569283E+01  0.12553939664E+02  0.51100000000E-03 0.  1.
        -12    1    3    3    0    0 -0.12209543100E+02 -0.24557917343E+02  0.77018414096E+01  0.28486533802E+02  0.00000000000E+00 0.  1.
</event>
<event>
 7    1  0.2604986E-013  0.7246157E+02  0.7816164E-02  0.1226708E+00
        -11   -1    0    0    0    0  0.00000000000E+00  0.00000000000E+00  0.45593999997E+02  0.45594000000E+02  0.51100000000E-03 0. -1.
         11   -1    0    0    0    0 -0.00000000000E+00 -0.00000000000E+00 -0.45593999997E+02  0.45594000000E+02  0.51100000000E-03 0.  1.
    9900012    2    1    2    0    0 -0.36046028826E+01  0.18268037945E+02 -0.19911446495E+01  0.72461574038E+02  0.70000004876E+02 0.  0.
        -12    1    1    2    0    0  0.36046028826E+01 -0.18268037945E+02  0.19911446495E+01  0.18726425962E+02  0.00000000000E+00 0.  1.
         11    1    3    3    0    0 -0.13096303383E+02 -0.16410049777E+00  0.24860750681E+02  0.28099768966E+02  0.51100000000E-03 0. -1.
        -11    1    3    3    0    0 -0.99766679803E+01  0.35093390996E+01 -0.10351982863E+02  0.14799084917E+02  0.51100000000E-03 0.  1.
        -12    1    3    3    0    0  0.19468368480E+02  0.14922799343E+02 -0.16499912467E+02  0.29562720155E+02  0.00000000000E+00 0.  1.
</event>
<event>
 7    1  0.2604986E-013  0.7246171E+02  0.7816164E-02  0.1226708E+00
        -11   -1    0    0    0    0  0.00000000000E+00  0.00000000000E+00  0.45593999997E+02  0.45594000000E+02  0.51100000000E-03 0.  1.
         11   -1    0    0    0    0 -0.00000000000E+00 -0.00000000000E+00 -0.45593999997E+02  0.45594000000E+02  0.51100000000E-03 0. -1.
    9900012    2    1    2    0    0  0.18018996210E+02  0.13137623643E+01  0.49258271370E+01  0.72461709152E+02  0.70000180887E+02 0.  0.
        -12    1    1    2    0    0 -0.18018996210E+02 -0.13137623643E+01 -0.49258271370E+01  0.18726290848E+02  0.00000000000E+00 0.  1.
         11    1    3    3    0    0  0.22034478656E+02  0.52333260044E+01 -0.12950590586E+02  0.26088766692E+02  0.51100000000E-03 0. -1.
        -11    1    3    3    0    0  0.13261974991E+02 -0.14403858440E+02  0.17343526677E+02  0.26156242782E+02  0.51100000000E-03 0.  1.
         12    1    3    3    0    0 -0.17277457438E+02  0.10484294800E+02  0.53289104559E+00  0.20216699677E+02  0.00000000000E+00 0. -1.
</event>
<event>
 7    1  0.2604986E-013  0.7246169E+02  0.7816164E-02  0.1226708E+00
        -11   -1    0    0    0    0  0.00000000000E+00  0.00000000000E+00  0.45593999997E+02  0.45594000000E+02  0.51100000000E-03 0. -1.
         11   -1    0    0    0    0 -0.00000000000E+00 -0.00000000000E+00 -0.45593999997E+02  0.45594000000E+02  0.51100000000E-03 0.  1.
    9900012    2    1    2    0    0 -0.13616541350E+02 -0.22685714578E+01  0.12653772347E+02  0.72461693118E+02  0.70000160001E+02 0.  0.
        -12    1    1    2    0    0  0.13616541350E+02  0.22685714578E+01 -0.12653772347E+02  0.18726306882E+02  0.00000000000E+00 0.  1.
         11    1    3    3    0    0 -0.20212136904E+01 -0.76409604814E+01  0.83186167944E+01  0.11474709909E+02  0.51100000000E-03 0. -1.
        -11    1    3    3    0    0  0.23220660709E+02  0.96988905379E+01 -0.23416478485E+01  0.25273521250E+02  0.51100000000E-03 0.  1.
         12    1    3    3    0    0 -0.34815988369E+02 -0.43265015143E+01  0.66768034016E+01  0.35713461960E+02  0.00000000000E+00 0. -1.
</event>
<event>
 7    1  0.2604986E-013  0.7246153E+02  0.7816164E-02  0.1226708E+00
        -11   -1    0    0    0    0  0.00000000000E+00  0.00000000000E+00  0.45593999997E+02  0.45594000000E+02  0.51100000000E-03 0.  1.
         11   -1    0    0    0    0 -0.00000000000E+00 -0.00000000000E+00 -0.45593999997E+02  0.45594000000E+02  0.51100000000E-03 0. -1.
    9900012    2    1    2    0    0 -0.15619025538E+02 -0.46793106232E+01  0.92103623473E+01  0.72461529932E+02  0.69999947420E+02 0.  0.
        -12    1    1    2    0    0  0.15619025538E+02  0.46793106232E+01 -0.92103623473E+01  0.18726470068E+02  0.00000000000E+00 0.  1.
         11    1    3    3    0    0  0.88981825607E+01  0.16835114407E+02 -0.56212259274E+00  0.19050320523E+02  0.51100000000E-03 0. -1.
        -11    1    3    3    0    0 -0.67008791151E+01  0.11526357129E+02 -0.31703749720E+01  0.13704377669E+02  0.51100000000E-03 0.  1.
         12    1    3    3    0    0 -0.17816328983E+02 -0.33040782158E+02  0.12942859912E+02  0.39706831739E+02  0.00000000000E+00 0. -1.
</event>
<event>
 7    1  0.2604986E-013  0.7246157E+02  0.7816164E-02  0.1226708E+00
        -11   -1    0    0    0    0  0.00000000000E+00  0.00000000000E+00  0.45593999997E+02  0.45594000000E+02  0.51100000000E-03 0.  1.
         11   -1    0    0    0    0 -0.00000000000E+00 -0.00000000000E+00 -0.45593999997E+02  0.45594000000E+02  0.51100000000E-03 0. -1.
    9900012    2    1    2    0    0 -0.46656845032E+01 -0.14185117318E+02 -0.11300139224E+02  0.72461566498E+02  0.69999995055E+02 0.  0.
        -12    1    1    2    0    0  0.46656845032E+01  0.14185117318E+02  0.11300139224E+02  0.18726433502E+02  0.00000000000E+00 0.  1.
         11    1    3    3    0    0 -0.76629272464E+01  0.42118934128E+01 -0.15294199181E+02  0.17617406987E+02  0.51100000000E-03 0. -1.
        -11    1    3    3    0    0  0.80085858402E+01  0.16195473400E+02  0.78094584963E+01  0.19682948156E+02  0.51100000000E-03 0.  1.
         12    1    3    3    0    0 -0.50113430970E+01 -0.34592484131E+02 -0.38153985397E+01  0.35161211356E+02  0.00000000000E+00 0. -1.
</event>
<event>
 7    1  0.2604986E-013  0.7246159E+02  0.7816164E-02  0.1226708E+00
        -11   -1    0    0    0    0  0.00000000000E+00  0.00000000000E+00  0.45593999997E+02  0.45594000000E+02  0.51100000000E-03 0.  1.
         11   -1    0    0    0    0 -0.00000000000E+00 -0.00000000000E+00 -0.45593999997E+02  0.45594000000E+02  0.51100000000E-03 0. -1.
    9900012    2    1    2    0    0 -0.13292397687E+02  0.12952365458E+02  0.24953600571E+01  0.72461590065E+02  0.70000025755E+02 0.  0.
        -12    1    1    2    0    0  0.13292397687E+02 -0.12952365458E+02 -0.24953600571E+01  0.18726409935E+02  0.00000000000E+00 0.  1.
         11    1    3    3    0    0  0.14305527120E+01  0.13626195492E+02 -0.54322743922E+00  0.13711848196E+02  0.51100000000E-03 0. -1.
        -11    1    3    3    0    0 -0.40143482980E+01 -0.54939720287E+01 -0.26290615052E+02  0.27156862134E+02  0.51100000000E-03 0.  1.
         12    1    3    3    0    0 -0.10708602101E+02  0.48201419943E+01  0.29329202548E+02  0.31592879735E+02  0.00000000000E+00 0. -1.
</event>
<event>
 7    1  0.2604986E-013  0.7246151E+02  0.7816164E-02  0.1226708E+00
        -11   -1    0    0    0    0  0.00000000000E+00  0.00000000000E+00  0.45593999997E+02  0.45594000000E+02  0.51100000000E-03 0. -1.
         11   -1    0    0    0    0 -0.00000000000E+00 -0.00000000000E+00 -0.45593999997E+02  0.45594000000E+02  0.51100000000E-03 0.  1.
    9900012    2    1    2    0    0 -0.18238565896E+02  0.69411908104E+00 -0.41897724051E+01  0.72461513943E+02  0.69999926592E+02 0.  0.
        -12    1    1    2    0    0  0.18238565896E+02 -0.69411908104E+00  0.41897724051E+01  0.18726486057E+02  0.00000000000E+00 0.  1.
         11    1    3    3    0    0  0.57861640688E+01 -0.24409564995E+02 -0.68534876431E+01  0.26005323512E+02  0.51100000000E-03 0. -1.
        -11    1    3    3    0    0 -0.19804757190E+02 -0.73495941215E+00 -0.17901328097E+01  0.19899074060E+02  0.51100000000E-03 0.  1.
        -12    1    3    3    0    0 -0.42199727739E+01  0.25838643488E+02  0.44538480477E+01  0.26557116371E+02  0.00000000000E+00 0.  1.
</event>
<event>
 7    1  0.2604986E-013  0.7246140E+02  0.7816164E-02  0.1226708E+00
        -11   -1    0    0    0    0  0.00000000000E+00  0.00000000000E+00  0.45593999997E+02  0.45594000000E+02  0.51100000000E-03 0. -1.
         11   -1    0    0    0    0 -0.00000000000E+00 -0.00000000000E+00 -0.45593999997E+02  0.45594000000E+02  0.51100000000E-03 0.  1.
    9900012    2    1    2    0    0 -0.56906618856E+00  0.55754935725E+00  0.18709650286E+02  0.72461395624E+02  0.69999772459E+02 0.  0.
        -12    1    1    2    0    0  0.56906618856E+00 -0.55754935725E+00 -0.18709650286E+02  0.18726604376E+02  0.00000000000E+00 0.  1.
         11    1    3    3    0    0  0.98392694234E+01  0.26884229908E+01 -0.24256175481E+02  0.26313511552E+02  0.51100000000E-03 0.  1.
        -11    1    3    3    0    0 -0.59165692378E+01  0.53563399063E+01  0.17705412906E+02  0.19421066273E+02  0.51100000000E-03 0. -1.
        -12    1    3    3    0    0 -0.44917663741E+01 -0.74872135399E+01  0.25260412861E+02  0.26726817799E+02  0.00000000000E+00 0.  1.
</event>
<event>
 7    1  0.2604986E-013  0.7246152E+02  0.7816164E-02  0.1226708E+00
        -11   -1    0    0    0    0  0.00000000000E+00  0.00000000000E+00  0.45593999997E+02  0.45594000000E+02  0.51100000000E-03 0. -1.
         11   -1    0    0    0    0 -0.00000000000E+00 -0.00000000000E+00 -0.45593999997E+02  0.45594000000E+02  0.51100000000E-03 0.  1.
    9900012    2    1    2    0    0  0.17505124680E+02 -0.53251432521E+00 -0.66308347295E+01  0.72461523269E+02  0.69999938740E+02 0.  0.
        -12    1    1    2    0    0 -0.17505124680E+02  0.53251432521E+00  0.66308347295E+01  0.18726476731E+02  0.00000000000E+00 0.  1.
         11    1    3    3    0    0 -0.20766226142E+02  0.56298192933E+01  0.38970138664E+01  0.21865903384E+02  0.51100000000E-03 0. -1.
        -11    1    3    3    0    0 -0.21953703539E+01 -0.85757732699E+01 -0.31177883761E+01  0.93853152737E+01  0.51100000000E-03 0.  1.
         12    1    3    3    0    0  0.40466721176E+02  0.24134396514E+01 -0.74100602198E+01  0.41210304611E+02  0.00000000000E+00 0. -1.
</event>
<event>
 7    1  0.2604986E-013  0.7246156E+02  0.7816164E-02  0.1226708E+00
        -11   -1    0    0    0    0  0.00000000000E+00  0.00000000000E+00  0.45593999997E+02  0.45594000000E+02  0.51100000000E-03 0.  1.
         11   -1    0    0    0    0 -0.00000000000E+00 -0.00000000000E+00 -0.45593999997E+02  0.45594000000E+02  0.51100000000E-03 0. -1.
    9900012    2    1    2    0    0 -0.30388514172E+01  0.94020148688E+01 -0.15907456816E+02  0.72461556561E+02  0.69999982109E+02 0.  0.
        -12    1    1    2    0    0  0.30388514172E+01 -0.94020148688E+01  0.15907456816E+02  0.18726443439E+02  0.00000000000E+00 0.  1.
         11    1    3    3    0    0 -0.58341225749E+01  0.88715198956E+01 -0.43681422875E+01  0.11481355268E+02  0.51100000000E-03 0. -1.
        -11    1    3    3    0    0 -0.28021863402E+02  0.49159094277E+01 -0.24623775675E+01  0.28556160413E+02  0.51100000000E-03 0.  1.
         12    1    3    3    0    0  0.30817134559E+02 -0.43854144544E+01 -0.90769369610E+01  0.32424040880E+02  0.00000000000E+00 0. -1.
</event>
<event>
 7    1  0.2604986E-013  0.7246164E+02  0.7816164E-02  0.1226708E+00
        -11   -1    0    0    0    0  0.00000000000E+00  0.00000000000E+00  0.45593999997E+02  0.45594000000E+02  0.51100000000E-03 0.  1.
         11   -1    0    0    0    0 -0.00000000000E+00 -0.00000000000E+00 -0.45593999997E+02  0.45594000000E+02  0.51100000000E-03 0. -1.
    9900012    2    1    2    0    0 -0.30057733926E+00 -0.79503579967E+01 -0.16952224367E+02  0.72461642906E+02  0.70000094590E+02 0.  0.
        -12    1    1    2    0    0  0.30057733926E+00  0.79503579967E+01  0.16952224367E+02  0.18726357094E+02  0.00000000000E+00 0.  1.
         11    1    3    3    0    0  0.10106717127E+02 -0.16869499143E+02  0.65194413291E+01  0.20717838882E+02  0.51100000000E-03 0. -1.
        -11    1    3    3    0    0  0.81177535599E+01 -0.12339003976E+02  0.43467469401E+00  0.14776260837E+02  0.51100000000E-03 0.  1.
        -12    1    3    3    0    0 -0.18525048027E+02  0.21258145122E+02 -0.23906340390E+02  0.36967543187E+02  0.00000000000E+00 0.  1.
</event>
<event>
 7    1  0.2604986E-013  0.7246155E+02  0.7816164E-02  0.1226708E+00
        -11   -1    0    0    0    0  0.00000000000E+00  0.00000000000E+00  0.45593999997E+02  0.45594000000E+02  0.51100000000E-03 0. -1.
         11   -1    0    0    0    0 -0.00000000000E+00 -0.00000000000E+00 -0.45593999997E+02  0.45594000000E+02  0.51100000000E-03 0.  1.
    9900012    2    1    2    0    0 -0.14024266720E+02  0.34015280459E+00  0.12405004651E+02  0.72461550754E+02  0.69999974546E+02 0.  0.
        -12    1    1    2    0    0  0.14024266720E+02 -0.34015280459E+00 -0.12405004651E+02  0.18726449246E+02  0.00000000000E+00 0.  1.
         11    1    3    3    0    0 -0.11550053577E+02 -0.22516225667E+02  0.15628466316E+02  0.29742782580E+02  0.51100000000E-03 0. -1.
        -11    1    3    3    0    0  0.89229970264E+01  0.18442861004E+02  0.11570349902E+02  0.23529385778E+02  0.51100000000E-03 0.  1.
        -12    1    3    3    0    0 -0.11397210169E+02  0.44135174675E+01 -0.14793811568E+02  0.19189382397E+02  0.00000000000E+00 0.  1.
</event>
<event>
 7    1  0.2604986E-013  0.7246159E+02  0.7816164E-02  0.1226708E+00
        -11   -1    0    0    0    0  0.00000000000E+00  0.00000000000E+00  0.45593999997E+02  0.45594000000E+02  0.51100000000E-03 0. -1.
         11   -1    0    0    0    0 -0.00000000000E+00 -0.00000000000E+00 -0.45593999997E+02  0.45594000000E+02  0.51100000000E-03 0.  1.
    9900012    2    1    2    0    0 -0.14848197526E+01  0.18612875193E+02 -0.14264162779E+01  0.72461588811E+02  0.70000024121E+02 0.  0.
        -12    1    1    2    0    0  0.14848197526E+01 -0.18612875193E+02  0.14264162779E+01  0.18726411189E+02  0.00000000000E+00 0.  1.
         11    1    3    3    0    0  0.32376811540E+01 -0.22519611891E+01  0.27324118843E+02  0.27607270406E+02  0.51100000000E-03 0. -1.
        -11    1    3    3    0    0  0.65130711662E+01  0.15432340537E+02 -0.41310288356E+01  0.17252322451E+02  0.51100000000E-03 0.  1.
        -12    1    3    3    0    0 -0.11235572073E+02  0.54324958451E+01 -0.24619506285E+02  0.27601995954E+02  0.00000000000E+00 0.  1.
</event>
<event>
 7    1  0.2604986E-013  0.7246160E+02  0.7816164E-02  0.1226708E+00
        -11   -1    0    0    0    0  0.00000000000E+00  0.00000000000E+00  0.45593999997E+02  0.45594000000E+02  0.51100000000E-03 0.  1.
         11   -1    0    0    0    0 -0.00000000000E+00 -0.00000000000E+00 -0.45593999997E+02  0.45594000000E+02  0.51100000000E-03 0. -1.
    9900012    2    1    2    0    0 -0.17188677225E+02 -0.14012924926E+01 -0.72982029933E+01  0.72461601192E+02  0.70000040250E+02 0.  0.
        -12    1    1    2    0    0  0.17188677225E+02  0.14012924926E+01  0.72982029933E+01  0.18726398808E+02  0.00000000000E+00 0.  1.
         11    1    3    3    0    0 -0.32572547541E+01 -0.98006208752E+00 -0.25915834911E+02  0.26138108761E+02  0.51100000000E-03 0. -1.
        -11    1    3    3    0    0 -0.17459147823E+02  0.17061442170E+02  0.86927202071E+01  0.25912893248E+02  0.51100000000E-03 0.  1.
         12    1    3    3    0    0  0.35277253525E+01 -0.17482672576E+02  0.99249117102E+01  0.20410599183E+02  0.00000000000E+00 0. -1.
</event>
<event>
 7    1  0.2604986E-013  0.7246182E+02  0.7816164E-02  0.1226707E+00
        -11   -1    0    0    0    0  0.00000000000E+00  0.00000000000E+00  0.45593999997E+02  0.45594000000E+02  0.51100000000E-03 0.  1.
         11   -1    0    0    0    0 -0.00000000000E+00 -0.00000000000E+00 -0.45593999997E+02  0.45594000000E+02  0.51100000000E-03 0. -1.
    9900012    2    1    2    0    0 -0.89645897025E+01  0.13792625006E+02 -0.89481605421E+01  0.72461816454E+02  0.70000320668E+02 0.  0.
        -12    1    1    2    0    0  0.89645897025E+01 -0.13792625006E+02  0.89481605421E+01  0.18726183546E+02  0.00000000000E+00 0.  1.
         11    1    3    3    0    0 -0.97982208993E+01  0.20868160147E+02 -0.15454033147E+02  0.27754502004E+02  0.51100000000E-03 0. -1.
        -11    1    3    3    0    0 -0.19185656845E+02 -0.75174991615E+01 -0.55420029968E+01  0.21338135337E+02  0.51100000000E-03 0.  1.
        -12    1    3    3    0    0  0.20019288041E+02  0.44196402042E+00  0.12047875602E+02  0.23369179113E+02  0.00000000000E+00 0.  1.
</event>
<event>
 7    1  0.2604986E-013  0.7246158E+02  0.7816164E-02  0.1226708E+00
        -11   -1    0    0    0    0  0.00000000000E+00  0.00000000000E+00  0.45593999997E+02  0.45594000000E+02  0.51100000000E-03 0. -1.
         11   -1    0    0    0    0 -0.00000000000E+00 -0.00000000000E+00 -0.45593999997E+02  0.45594000000E+02  0.51100000000E-03 0.  1.
    9900012    2    1    2    0    0 -0.98315366822E+01  0.11302371506E+01  0.15897872538E+02  0.72461577470E+02  0.70000009348E+02 0.  0.
        -12    1    1    2    0    0  0.98315366822E+01 -0.11302371506E+01 -0.15897872538E+02  0.18726422530E+02  0.00000000000E+00 0.  1.
         11    1    3    3    0    0 -0.77804172199E+01  0.30048093508E+02  0.15713770965E+02  0.34790018881E+02  0.51100000000E-03 0. -1.
        -11    1    3    3    0    0 -0.89821137702E+01 -0.16647388315E+01 -0.23630894671E+01  0.94357784654E+01  0.51100000000E-03 0.  1.
        -12    1    3    3    0    0  0.69309943079E+01 -0.27253117526E+02  0.25471910399E+01  0.28235780123E+02  0.00000000000E+00 0.  1.
</event>
<event>
 7    1  0.2604986E-013  0.7246165E+02  0.7816164E-02  0.1226708E+00
        -11   -1    0    0    0    0  0.00000000000E+00  0.00000000000E+00  0.45593999997E+02  0.45594000000E+02  0.51100000000E-03 0. -1.
         11   -1    0    0    0    0 -0.00000000000E+00 -0.00000000000E+00 -0.45593999997E+02  0.45594000000E+02  0.51100000000E-03 0.  1.
    9900012    2    1    2    0    0 -0.83398639119E+01  0.12380380185E+02  0.11307026911E+02  0.72461654890E+02  0.70000110202E+02 0.  0.
        -12    1    1    2    0    0  0.83398639119E+01 -0.12380380185E+02 -0.11307026911E+02  0.18726345110E+02  0.00000000000E+00 0.  1.
         11    1    3    3    0    0 -0.19912769443E+02  0.55602943014E+01  0.22879524909E+02  0.30836794903E+02  0.51100000000E-03 0. -1.
        -11    1    3    3    0    0  0.89691768674E+01  0.53316819906E+01  0.13113026023E+02  0.16757816632E+02  0.51100000000E-03 0.  1.
        -12    1    3    3    0    0  0.26037286633E+01  0.14884038929E+01 -0.24685524020E+02  0.24867043356E+02  0.00000000000E+00 0.  1.
</event>
<event>
 7    1  0.2604986E-013  0.7246156E+02  0.7816164E-02  0.1226708E+00
        -11   -1    0    0    0    0  0.00000000000E+00  0.00000000000E+00  0.45593999997E+02  0.45594000000E+02  0.51100000000E-03 0. -1.
         11   -1    0    0    0    0 -0.00000000000E+00 -0.00000000000E+00 -0.45593999997E+02  0.45594000000E+02  0.51100000000E-03 0.  1.
    9900012    2    1    2    0    0  0.18265361730E+02  0.35876758064E+01 -0.20456118663E+01  0.72461564548E+02  0.69999992515E+02 0.  0.
        -12    1    1    2    0    0 -0.18265361730E+02 -0.35876758064E+01  0.20456118663E+01  0.18726435452E+02  0.00000000000E+00 0.  1.
         11    1    3    3    0    0  0.16451574969E+02 -0.52552214195E+01  0.20233623461E+02  0.26602089950E+02  0.51100000000E-03 0. -1.
        -11    1    3    3    0    0  0.11809445303E+02  0.90766928473E+01  0.58529760426E+01  0.16003333410E+02  0.51100000000E-03 0.  1.
        -12    1    3    3    0    0 -0.99956585422E+01 -0.23379562145E+00 -0.28132211370E+02  0.29856141188E+02  0.00000000000E+00 0.  1.
</event>
<event>
 7    1  0.2604986E-013  0.7246149E+02  0.7816164E-02  0.1226708E+00
        -11   -1    0    0    0    0  0.00000000000E+00  0.00000000000E+00  0.45593999997E+02  0.45594000000E+02  0.51100000000E-03 0.  1.
         11   -1    0    0    0    0 -0.00000000000E+00 -0.00000000000E+00 -0.45593999997E+02  0.45594000000E+02  0.51100000000E-03 0. -1.
    9900012    2    1    2    0    0  0.70069974838E+01 -0.14953366760E+02 -0.88306757973E+01  0.72461494020E+02  0.69999900638E+02 0.  0.
        -12    1    1    2    0    0 -0.70069974838E+01  0.14953366760E+02  0.88306757973E+01  0.18726505980E+02  0.00000000000E+00 0.  1.
         11    1    3    3    0    0 -0.21245577814E+02  0.68528348800E+01  0.38451739128E+01  0.22652180584E+02  0.51100000000E-03 0. -1.
        -11    1    3    3    0    0 -0.32756948980E+00 -0.12660713603E+02  0.64620343120E+01  0.14218257925E+02  0.51100000000E-03 0.  1.
         12    1    3    3    0    0  0.28580144787E+02 -0.91454880368E+01 -0.19137884022E+02  0.35591055510E+02  0.00000000000E+00 0. -1.
</event>
<event>
 7    1  0.2604986E-013  0.7246157E+02  0.7816164E-02  0.1226708E+00
        -11   -1    0    0    0    0  0.00000000000E+00  0.00000000000E+00  0.45593999997E+02  0.45594000000E+02  0.51100000000E-03 0.  1.
         11   -1    0    0    0    0 -0.00000000000E+00 -0.00000000000E+00 -0.45593999997E+02  0.45594000000E+02  0.51100000000E-03 0. -1.
    9900012    2    1    2    0    0  0.17413805968E+02  0.16479594454E+01  0.66875134878E+01  0.72461568272E+02  0.69999997365E+02 0.  0.
        -12    1    1    2    0    0 -0.17413805968E+02 -0.16479594454E+01 -0.66875134878E+01  0.18726431728E+02  0.00000000000E+00 0.  1.
         11    1    3    3    0    0  0.71875863928E+01  0.10350222014E+02  0.96649055102E+01  0.15880771161E+02  0.51100000000E-03 0. -1.
        -11    1    3    3    0    0 -0.37908257148E+01 -0.29578613598E+01  0.24627565889E+02  0.25092554778E+02  0.51100000000E-03 0.  1.
        -12    1    3    3    0    0  0.14017045290E+02 -0.57444012086E+01 -0.27604957911E+02  0.31488242332E+02  0.00000000000E+00 0.  1.
</event>
<event>
 7    1  0.2604986E-013  0.7246161E+02  0.7816164E-02  0.1226708E+00
        -11   -1    0    0    0    0  0.00000000000E+00  0.00000000000E+00  0.45593999997E+02  0.45594000000E+02  0.51100000000E-03 0.  1.
         11   -1    0    0    0    0 -0.00000000000E+00 -0.00000000000E+00 -0.45593999997E+02  0.45594000000E+02  0.51100000000E-03 0. -1.
    9900012    2    1    2    0    0  0.15463541141E+02 -0.99591840141E+01 -0.35172884474E+01  0.72461607692E+02  0.70000048718E+02 0.  0.
        -12    1    1    2    0    0 -0.15463541141E+02  0.99591840141E+01  0.35172884474E+01  0.18726392308E+02  0.00000000000E+00 0.  1.
         11    1    3    3    0    0 -0.12778728463E+01  0.10643075247E+01 -0.93255793365E+01  0.94727049854E+01  0.51100000000E-03 0. -1.
        -11    1    3    3    0    0 -0.71326590953E+01  0.12611827158E+02 -0.17035104082E+02  0.22363536871E+02  0.51100000000E-03 0.  1.
         12    1    3    3    0    0  0.23874073083E+02 -0.23635318697E+02  0.22843394972E+02  0.40625365836E+02  0.00000000000E+00 0. -1.
</event>
<event>
 7    1  0.2604986E-013  0.7246160E+02  0.7816164E-02  0.1226708E+00
        -11   -1    0    0    0    0  0.00000000000E+00  0.00000000000E+00  0.45593999997E+02  0.45594000000E+02  0.51100000000E-03 0.  1.
         11   -1    0    0    0    0 -0.00000000000E+00 -0.00000000000E+00 -0.45593999997E+02  0.45594000000E+02  0.51100000000E-03 0. -1.
    9900012    2    1    2    0    0 -0.15276550696E+02 -0.10115988871E+02 -0.38693220937E+01  0.72461604578E+02  0.70000044661E+02 0.  0.
        -12    1    1    2    0    0  0.15276550696E+02  0.10115988871E+02  0.38693220937E+01  0.18726395422E+02  0.00000000000E+00 0.  1.
         11    1    3    3    0    0 -0.77017544841E+01 -0.17006375889E+01  0.20995025391E+02  0.22427667774E+02  0.51100000000E-03 0. -1.
        -11    1    3    3    0    0  0.14402305956E+02 -0.21469810851E+01  0.20729435840E+01  0.14708264343E+02  0.51100000000E-03 0.  1.
         12    1    3    3    0    0 -0.21977102168E+02 -0.62683701972E+01 -0.26937291069E+02  0.35325672461E+02  0.00000000000E+00 0. -1.
</event>
<event>
 7    1  0.2604986E-013  0.7246155E+02  0.7816164E-02  0.1226708E+00
        -11   -1    0    0    0    0  0.00000000000E+00  0.00000000000E+00  0.45593999997E+02  0.45594000000E+02  0.51100000000E-03 0.  1.
         11   -1    0    0    0    0 -0.00000000000E+00 -0.00000000000E+00 -0.45593999997E+02  0.45594000000E+02  0.51100000000E-03 0. -1.
    9900012    2    1    2    0    0  0.36636727454E+01 -0.11544957915E+02 -0.14281853508E+02  0.72461551034E+02  0.69999974909E+02 0.  0.
        -12    1    1    2    0    0 -0.36636727454E+01  0.11544957915E+02  0.14281853508E+02  0.18726448966E+02  0.00000000000E+00 0.  1.
         11    1    3    3    0    0 -0.19500702947E+02  0.13221006322E+02 -0.17470085604E+02  0.29330467348E+02  0.51100000000E-03 0. -1.
        -11    1    3    3    0    0  0.67349413998E+01  0.54095405905E+01  0.16357292178E+00  0.86399838785E+01  0.51100000000E-03 0.  1.
        -12    1    3    3    0    0  0.16429434293E+02 -0.30175504828E+02  0.30246591738E+01  0.34491099807E+02  0.00000000000E+00 0.  1.
</event>
<event>
 7    1  0.2604986E-013  0.7246157E+02  0.7816164E-02  0.1226708E+00
        -11   -1    0    0    0    0  0.00000000000E+00  0.00000000000E+00  0.45593999997E+02  0.45594000000E+02  0.51100000000E-03 0.  1.
         11   -1    0    0    0    0 -0.00000000000E+00 -0.00000000000E+00 -0.45593999997E+02  0.45594000000E+02  0.51100000000E-03 0. -1.
    9900012    2    1    2    0    0 -0.91956962439E+01 -0.16158198939E+02 -0.22429466118E+01  0.72461573970E+02  0.70000004788E+02 0.  0.
        -12    1    1    2    0    0  0.91956962439E+01  0.16158198939E+02  0.22429466118E+01  0.18726426030E+02  0.00000000000E+00 0.  1.
         11    1    3    3    0    0  0.23820026997E+02 -0.18081393334E+01 -0.57575847113E+01  0.24572603361E+02  0.51100000000E-03 0. -1.
        -11    1    3    3    0    0 -0.29442102291E+01 -0.11010708529E+02  0.11914598589E+02  0.16488230225E+02  0.51100000000E-03 0.  1.
        -12    1    3    3    0    0 -0.30071513011E+02 -0.33393510768E+01 -0.83999604890E+01  0.31400740383E+02  0.00000000000E+00 0.  1.
</event>
<event>
 7    1  0.2604986E-013  0.7246158E+02  0.7816164E-02  0.1226708E+00
        -11   -1    0    0    0    0  0.00000000000E+00  0.00000000000E+00  0.45593999997E+02  0.45594000000E+02  0.51100000000E-03 0.  1.
         11   -1    0    0    0    0 -0.00000000000E+00 -0.00000000000E+00 -0.45593999997E+02  0.45594000000E+02  0.51100000000E-03 0. -1.
    9900012    2    1    2    0    0 -0.43821231058E+01 -0.16714469485E+02 -0.72181952875E+01  0.72461579192E+02  0.70000011591E+02 0.  0.
        -12    1    1    2    0    0  0.43821231058E+01  0.16714469485E+02  0.72181952875E+01  0.18726420808E+02  0.00000000000E+00 0.  1.
         11    1    3    3    0    0  0.92298305983E+01  0.14152524745E+02  0.28389934294E+00  0.16898648722E+02  0.51100000000E-03 0. -1.
        -11    1    3    3    0    0 -0.49494313947E+01  0.33234349831E+01  0.13327952746E+02  0.14600562177E+02  0.51100000000E-03 0.  1.
        -12    1    3    3    0    0 -0.86625223094E+01 -0.34190429213E+02 -0.20830047376E+02  0.40962368293E+02  0.00000000000E+00 0.  1.
</event>
<event>
 7    1  0.2604986E-013  0.7246149E+02  0.7816164E-02  0.1226708E+00
        -11   -1    0    0    0    0  0.00000000000E+00  0.00000000000E+00  0.45593999997E+02  0.45594000000E+02  0.51100000000E-03 0.  1.
         11   -1    0    0    0    0 -0.00000000000E+00 -0.00000000000E+00 -0.45593999997E+02  0.45594000000E+02  0.51100000000E-03 0. -1.
    9900012    2    1    2    0    0 -0.14691894639E+02  0.84977366288E+01  0.79132057670E+01  0.72461491478E+02  0.69999897327E+02 0.  0.
        -12    1    1    2    0    0  0.14691894639E+02 -0.84977366288E+01 -0.79132057670E+01  0.18726508522E+02  0.00000000000E+00 0.  1.
         11    1    3    3    0    0 -0.38008983349E+02  0.10556616458E+02 -0.82039147849E+01  0.40291800460E+02  0.51100000000E-03 0. -1.
        -11    1    3    3    0    0 -0.20554352445E+01  0.97625485551E+00  0.15849364301E+01  0.27730689381E+01  0.51100000000E-03 0.  1.
        -12    1    3    3    0    0  0.25372523954E+02 -0.30351346842E+01  0.14532184122E+02  0.29396622080E+02  0.00000000000E+00 0.  1.
</event>
<event>
 7    1  0.2604986E-013  0.7246160E+02  0.7816164E-02  0.1226708E+00
        -11   -1    0    0    0    0  0.00000000000E+00  0.00000000000E+00  0.45593999997E+02  0.45594000000E+02  0.51100000000E-03 0.  1.
         11   -1    0    0    0    0 -0.00000000000E+00 -0.00000000000E+00 -0.45593999997E+02  0.45594000000E+02  0.51100000000E-03 0. -1.
    9900012    2    1    2    0    0 -0.49286549567E+01  0.80777789836E+01  0.16159696653E+02  0.72461602885E+02  0.70000042455E+02 0.  0.
        -12    1    1    2    0    0  0.49286549567E+01 -0.80777789836E+01 -0.16159696653E+02  0.18726397115E+02  0.00000000000E+00 0.  1.
         11    1    3    3    0    0  0.13262883541E+02  0.92084320043E+01  0.49630852009E+01  0.16891758782E+02  0.51100000000E-03 0. -1.
        -11    1    3    3    0    0  0.13949296580E+02 -0.11780987551E+02 -0.36141717044E+01  0.18612812257E+02  0.51100000000E-03 0.  1.
        -12    1    3    3    0    0 -0.32140835078E+02  0.10650334530E+02  0.14810783156E+02  0.36957031845E+02  0.00000000000E+00 0.  1.
</event>
<event>
 7    1  0.2604986E-013  0.7246158E+02  0.7816164E-02  0.1226708E+00
        -11   -1    0    0    0    0  0.00000000000E+00  0.00000000000E+00  0.45593999997E+02  0.45594000000E+02  0.51100000000E-03 0. -1.
         11   -1    0    0    0    0 -0.00000000000E+00 -0.00000000000E+00 -0.45593999997E+02  0.45594000000E+02  0.51100000000E-03 0.  1.
    9900012    2    1    2    0    0  0.11563506154E+02 -0.38883242837E+01  0.14207218309E+02  0.72461580363E+02  0.70000013117E+02 0.  0.
        -12    1    1    2    0    0 -0.11563506154E+02  0.38883242837E+01 -0.14207218309E+02  0.18726419637E+02  0.00000000000E+00 0.  1.
         11    1    3    3    0    0  0.10263587253E+02  0.20502147228E+02  0.17906320621E+02  0.29091503617E+02  0.51100000000E-03 0. -1.
        -11    1    3    3    0    0  0.14833779444E+02 -0.25279977036E+02  0.34551240237E-02  0.29310719263E+02  0.51100000000E-03 0.  1.
         12    1    3    3    0    0 -0.13533860543E+02  0.88950552396E+00 -0.37025574356E+01  0.14059357483E+02  0.00000000000E+00 0. -1.
</event>
<event>
 7    1  0.2604986E-013  0.7246161E+02  0.7816164E-02  0.1226708E+00
        -11   -1    0    0    0    0  0.00000000000E+00  0.00000000000E+00  0.45593999997E+02  0.45594000000E+02  0.51100000000E-03 0.  1.
         11   -1    0    0    0    0 -0.00000000000E+00 -0.00000000000E+00 -0.45593999997E+02  0.45594000000E+02  0.51100000000E-03 0. -1.
    9900012    2    1    2    0    0  0.48032117450E+01  0.44693394637E+01 -0.17539435573E+02  0.72461611173E+02  0.70000053251E+02 0.  0.
        -12    1    1    2    0    0 -0.48032117450E+01 -0.44693394637E+01  0.17539435573E+02  0.18726388827E+02  0.00000000000E+00 0.  1.
         11    1    3    3    0    0 -0.17616795331E+02 -0.19895127140E+01 -0.29369279642E+02  0.34305454749E+02  0.51100000000E-03 0. -1.
        -11    1    3    3    0    0  0.10784480968E+02 -0.66686869005E+01 -0.52027486955E+01  0.13705656094E+02  0.51100000000E-03 0.  1.
        -12    1    3    3    0    0  0.11635526109E+02  0.13127539078E+02  0.17032592765E+02  0.24450500329E+02  0.00000000000E+00 0.  1.
</event>
<event>
 7    1  0.2604986E-013  0.7246159E+02  0.7816164E-02  0.1226708E+00
        -11   -1    0    0    0    0  0.00000000000E+00  0.00000000000E+00  0.45593999997E+02  0.45594000000E+02  0.51100000000E-03 0.  1.
         11   -1    0    0    0    0 -0.00000000000E+00 -0.00000000000E+00 -0.45593999997E+02  0.45594000000E+02  0.51100000000E-03 0. -1.
    9900012    2    1    2    0    0 -0.72575898529E+01 -0.10223778889E+02 -0.13909708764E+02  0.72461594495E+02  0.70000031526E+02 0.  0.
        -12    1    1    2    0    0  0.72575898529E+01  0.10223778889E+02  0.13909708764E+02  0.18726405505E+02  0.00000000000E+00 0.  1.
         11    1    3    3    0    0  0.16075786320E+02  0.18987637902E+01 -0.82687812802E+01  0.18177154724E+02  0.51100000000E-03 0.  1.
        -11    1    3    3    0    0 -0.27584174025E+02 -0.12192810069E+01  0.14351984541E+02  0.31118366978E+02  0.51100000000E-03 0. -1.
         12    1    3    3    0    0  0.42507978528E+01 -0.10903261672E+02 -0.19992912024E+02  0.23166072794E+02  0.00000000000E+00 0. -1.
</event>
<event>
 7    1  0.2604986E-013  0.7246164E+02  0.7816164E-02  0.1226708E+00
        -11   -1    0    0    0    0  0.00000000000E+00  0.00000000000E+00  0.45593999997E+02  0.45594000000E+02  0.51100000000E-03 0. -1.
         11   -1    0    0    0    0 -0.00000000000E+00 -0.00000000000E+00 -0.45593999997E+02  0.45594000000E+02  0.51100000000E-03 0.  1.
    9900012    2    1    2    0    0  0.14118417773E+02 -0.86378347437E+01 -0.87598226240E+01  0.72461644191E+02  0.70000096264E+02 0.  0.
        -12    1    1    2    0    0 -0.14118417773E+02  0.86378347437E+01  0.87598226240E+01  0.18726355809E+02  0.00000000000E+00 0.  1.
         11    1    3    3    0    0  0.88972497213E+01 -0.30289162711E+02 -0.20732816075E+02  0.37768294811E+02  0.51100000000E-03 0. -1.
        -11    1    3    3    0    0  0.27630190202E+01 -0.20234119613E+01 -0.45672447298E+01  0.57086070765E+01  0.51100000000E-03 0.  1.
        -12    1    3    3    0    0  0.24581490316E+01  0.23674739928E+02  0.16540238180E+02  0.28984742303E+02  0.00000000000E+00 0.  1.
</event>
<event>
 7    1  0.2604986E-013  0.7246156E+02  0.7816164E-02  0.1226708E+00
        -11   -1    0    0    0    0  0.00000000000E+00  0.00000000000E+00  0.45593999997E+02  0.45594000000E+02  0.51100000000E-03 0. -1.
         11   -1    0    0    0    0 -0.00000000000E+00 -0.00000000000E+00 -0.45593999997E+02  0.45594000000E+02  0.51100000000E-03 0.  1.
    9900012    2    1    2    0    0  0.10801674741E+02  0.27406417431E+00  0.15294716481E+02  0.72461557716E+02  0.69999983615E+02 0.  0.
        -12    1    1    2    0    0 -0.10801674741E+02 -0.27406417431E+00 -0.15294716481E+02  0.18726442284E+02  0.00000000000E+00 0.  1.
         11    1    3    3    0    0 -0.46393911427E+01 -0.85455867556E+01 -0.13122250858E+02  0.16332313707E+02  0.51100000000E-03 0. -1.
        -11    1    3    3    0    0 -0.10117711896E+02 -0.11051522733E+02  0.37981242326E+01  0.15457360598E+02  0.51100000000E-03 0.  1.
         12    1    3    3    0    0  0.25558777780E+02  0.19871173663E+02  0.24618843106E+02  0.40671883411E+02  0.00000000000E+00 0. -1.
</event>
<event>
 7    1  0.2604986E-013  0.7246157E+02  0.7816164E-02  0.1226708E+00
        -11   -1    0    0    0    0  0.00000000000E+00  0.00000000000E+00  0.45593999997E+02  0.45594000000E+02  0.51100000000E-03 0.  1.
         11   -1    0    0    0    0 -0.00000000000E+00 -0.00000000000E+00 -0.45593999997E+02  0.45594000000E+02  0.51100000000E-03 0. -1.
    9900012    2    1    2    0    0 -0.16710203817E+02  0.84521438251E+01  0.98085684324E-01  0.72461567674E+02  0.69999996586E+02 0.  0.
        -12    1    1    2    0    0  0.16710203817E+02 -0.84521438251E+01 -0.98085684324E-01  0.18726432326E+02  0.00000000000E+00 0.  1.
         11    1    3    3    0    0  0.17574677391E+02  0.19846238788E+02  0.11347296851E+02  0.28835804575E+02  0.51100000000E-03 0. -1.
        -11    1    3    3    0    0 -0.13712904578E+02  0.60036071070E+01 -0.18135373822E+01  0.15078990960E+02  0.51100000000E-03 0.  1.
        -12    1    3    3    0    0 -0.20571976630E+02 -0.17397702069E+02 -0.94356737845E+01  0.28546772139E+02  0.00000000000E+00 0.  1.
</event>
<event>
 7    1  0.2604986E-013  0.7246160E+02  0.7816164E-02  0.1226708E+00
        -11   -1    0    0    0    0  0.00000000000E+00  0.00000000000E+00  0.45593999997E+02  0.45594000000E+02  0.51100000000E-03 0.  1.
         11   -1    0    0    0    0 -0.00000000000E+00 -0.00000000000E+00 -0.45593999997E+02  0.45594000000E+02  0.51100000000E-03 0. -1.
    9900012    2    1    2    0    0  0.72478252988E+01  0.94631471805E+01 -0.14442856791E+02  0.72461595156E+02  0.70000032387E+02 0.  0.
        -12    1    1    2    0    0 -0.72478252988E+01 -0.94631471805E+01  0.14442856791E+02  0.18726404844E+02  0.00000000000E+00 0.  1.
         11    1    3    3    0    0  0.78040045295E+01 -0.21200797015E+02 -0.13483935191E+02  0.26309556995E+02  0.51100000000E-03 0. -1.
        -11    1    3    3    0    0 -0.15494549581E+02  0.62706085558E+01 -0.45499235493E+01  0.17323492804E+02  0.51100000000E-03 0.  1.
        -12    1    3    3    0    0  0.14938370350E+02  0.24393335640E+02  0.35910019495E+01  0.28828545356E+02  0.00000000000E+00 0.  1.
</event>
<event>
 7    1  0.2604986E-013  0.7246164E+02  0.7816164E-02  0.1226708E+00
        -11   -1    0    0    0    0  0.00000000000E+00  0.00000000000E+00  0.45593999997E+02  0.45594000000E+02  0.51100000000E-03 0.  1.
         11   -1    0    0    0    0 -0.00000000000E+00 -0.00000000000E+00 -0.45593999997E+02  0.45594000000E+02  0.51100000000E-03 0. -1.
    9900012    2    1    2    0    0 -0.58376518576E+01 -0.71605009931E+01 -0.16288816175E+02  0.72461641944E+02  0.70000093336E+02 0.  0.
        -12    1    1    2    0    0  0.58376518576E+01  0.71605009931E+01  0.16288816175E+02  0.18726358056E+02  0.00000000000E+00 0.  1.
         11    1    3    3    0    0 -0.95813539691E+00 -0.10678816377E+02  0.99859073760E+01  0.14651740137E+02  0.51100000000E-03 0. -1.
        -11    1    3    3    0    0 -0.13885879167E+02  0.23401824764E+02 -0.56763111333E+01  0.27797186025E+02  0.51100000000E-03 0.  1.
         12    1    3    3    0    0  0.90063627066E+01 -0.19883509380E+02 -0.20598412417E+02  0.30012715782E+02  0.00000000000E+00 0. -1.
</event>
<event>
 7    1  0.2604986E-013  0.7246170E+02  0.7816164E-02  0.1226708E+00
        -11   -1    0    0    0    0  0.00000000000E+00  0.00000000000E+00  0.45593999997E+02  0.45594000000E+02  0.51100000000E-03 0. -1.
         11   -1    0    0    0    0 -0.00000000000E+00 -0.00000000000E+00 -0.45593999997E+02  0.45594000000E+02  0.51100000000E-03 0.  1.
    9900012    2    1    2    0    0  0.43763925694E+01  0.16986391491E+02  0.65562158774E+01  0.72461700995E+02  0.70000170262E+02 0.  0.
        -12    1    1    2    0    0 -0.43763925694E+01 -0.16986391491E+02 -0.65562158774E+01  0.18726299005E+02  0.00000000000E+00 0.  1.
         11    1    3    3    0    0 -0.29131920288E+02  0.17830422733E+02  0.30082038241E+01  0.34287636912E+02  0.51100000000E-03 0. -1.
        -11    1    3    3    0    0  0.14027843954E+01  0.29368894399E+01 -0.38191152739E+01  0.50178446946E+01  0.51100000000E-03 0.  1.
        -12    1    3    3    0    0  0.32105528462E+02 -0.37809206821E+01  0.73671273273E+01  0.33156219388E+02  0.00000000000E+00 0.  1.
</event>
<event>
 7    1  0.2604986E-013  0.7246158E+02  0.7816164E-02  0.1226708E+00
        -11   -1    0    0    0    0  0.00000000000E+00  0.00000000000E+00  0.45593999997E+02  0.45594000000E+02  0.51100000000E-03 0. -1.
         11   -1    0    0    0    0 -0.00000000000E+00 -0.00000000000E+00 -0.45593999997E+02  0.45594000000E+02  0.51100000000E-03 0.  1.
    9900012    2    1    2    0    0 -0.92685434873E+01  0.16042875939E+02  0.27201341490E+01  0.72461577583E+02  0.70000009495E+02 0.  0.
        -12    1    1    2    0    0  0.92685434873E+01 -0.16042875939E+02 -0.27201341490E+01  0.18726422417E+02  0.00000000000E+00 0.  1.
         11    1    3    3    0    0 -0.95022264572E+01  0.73448198341E+01  0.17883487662E+02  0.21542001236E+02  0.51100000000E-03 0. -1.
        -11    1    3    3    0    0  0.11859682463E+02  0.25417544527E+02 -0.65149818663E+01  0.28794940994E+02  0.51100000000E-03 0.  1.
         12    1    3    3    0    0 -0.11625999493E+02 -0.16719488423E+02 -0.86483716471E+01  0.22124635352E+02  0.00000000000E+00 0. -1.
</event>
<event>
 7    1  0.2604986E-013  0.7246160E+02  0.7816164E-02  0.1226708E+00
        -11   -1    0    0    0    0  0.00000000000E+00  0.00000000000E+00  0.45593999997E+02  0.45594000000E+02  0.51100000000E-03 0.  1.
         11   -1    0    0    0    0 -0.00000000000E+00 -0.00000000000E+00 -0.45593999997E+02  0.45594000000E+02  0.51100000000E-03 0. -1.
    9900012    2    1    2    0    0 -0.16389005445E+02  0.76469523297E+01 -0.48582669999E+01  0.72461597846E+02  0.70000035891E+02 0.  0.
        -12    1    1    2    0    0  0.16389005445E+02 -0.76469523297E+01  0.48582669999E+01  0.18726402154E+02  0.00000000000E+00 0.  1.
         11    1    3    3    0    0 -0.11254898078E+02  0.11987657755E+02  0.13963373624E+01  0.16502315821E+02  0.51100000000E-03 0. -1.
        -11    1    3    3    0    0 -0.71944344527E+01  0.44657761104E+01 -0.29671689407E+02  0.30856315333E+02  0.51100000000E-03 0.  1.
        -12    1    3    3    0    0  0.20603270855E+01 -0.88064815352E+01  0.23417085045E+02  0.25102966692E+02  0.00000000000E+00 0.  1.
</event>
<event>
 7    1  0.2604986E-013  0.7246162E+02  0.7816164E-02  0.1226708E+00
        -11   -1    0    0    0    0  0.00000000000E+00  0.00000000000E+00  0.45593999997E+02  0.45594000000E+02  0.51100000000E-03 0. -1.
         11   -1    0    0    0    0 -0.00000000000E+00 -0.00000000000E+00 -0.45593999997E+02  0.45594000000E+02  0.51100000000E-03 0.  1.
    9900012    2    1    2    0    0  0.67332798285E+01  0.13107332536E+02  0.11555865879E+02  0.72461621288E+02  0.70000066428E+02 0.  0.
        -12    1    1    2    0    0 -0.67332798285E+01 -0.13107332536E+02 -0.11555865879E+02  0.18726378712E+02  0.00000000000E+00 0.  1.
         11    1    3    3    0    0  0.22000789569E+02  0.28776559591E+01  0.25810300335E+01  0.22337801185E+02  0.51100000000E-03 0. -1.
        -11    1    3    3    0    0 -0.12552377213E+00  0.32020701395E+01  0.26048832479E+02  0.26245203051E+02  0.51100000000E-03 0.  1.
        -12    1    3    3    0    0 -0.15141985968E+02  0.70276064370E+01 -0.17073996633E+02  0.23878617052E+02  0.00000000000E+00 0.  1.
</event>
<event>
 7    1  0.2604986E-013  0.7246088E+02  0.7816164E-02  0.1226710E+00
        -11   -1    0    0    0    0  0.00000000000E+00  0.00000000000E+00  0.45593999997E+02  0.45594000000E+02  0.51100000000E-03 0.  1.
         11   -1    0    0    0    0 -0.00000000000E+00 -0.00000000000E+00 -0.45593999997E+02  0.45594000000E+02  0.51100000000E-03 0. -1.
    9900012    2    1    2    0    0 -0.11478389865E+02  0.12531173471E+02 -0.78690151540E+01  0.72460876837E+02  0.69999096637E+02 0.  0.
        -12    1    1    2    0    0  0.11478389865E+02 -0.12531173471E+02  0.78690151540E+01  0.18727123163E+02  0.00000000000E+00 0.  1.
         11    1    3    3    0    0  0.11916423216E+01  0.35452281774E+02 -0.14571583519E+02  0.38348602855E+02  0.51100000000E-03 0. -1.
        -11    1    3    3    0    0  0.19775403357E+01  0.30303801795E+01  0.28901140691E+00  0.36300685484E+01  0.51100000000E-03 0.  1.
        -12    1    3    3    0    0 -0.14647572523E+02 -0.25951488482E+02  0.64135569577E+01  0.30482205434E+02  0.00000000000E+00 0.  1.
</event>
<event>
 7    1  0.2604986E-013  0.7246159E+02  0.7816164E-02  0.1226708E+00
        -11   -1    0    0    0    0  0.00000000000E+00  0.00000000000E+00  0.45593999997E+02  0.45594000000E+02  0.51100000000E-03 0. -1.
         11   -1    0    0    0    0 -0.00000000000E+00 -0.00000000000E+00 -0.45593999997E+02  0.45594000000E+02  0.51100000000E-03 0.  1.
    9900012    2    1    2    0    0 -0.93139600958E+01 -0.11167472128E+02  0.11798983064E+02  0.72461593838E+02  0.70000030670E+02 0.  0.
        -12    1    1    2    0    0  0.93139600958E+01  0.11167472128E+02 -0.11798983064E+02  0.18726406162E+02  0.00000000000E+00 0.  1.
         11    1    3    3    0    0  0.14402395567E+02 -0.37655043396E+01 -0.16957968515E+02  0.22565033069E+02  0.51100000000E-03 0. -1.
        -11    1    3    3    0    0 -0.24228445364E+01 -0.90888149344E+01 -0.44556375412E+01  0.10408142904E+02  0.51100000000E-03 0.  1.
        -12    1    3    3    0    0 -0.21293511126E+02  0.16868471458E+01  0.33212589120E+02  0.39488417864E+02  0.00000000000E+00 0.  1.
</event>
<event>
 7    1  0.2604986E-013  0.7246155E+02  0.7816164E-02  0.1226708E+00
        -11   -1    0    0    0    0  0.00000000000E+00  0.00000000000E+00  0.45593999997E+02  0.45594000000E+02  0.51100000000E-03 0. -1.
         11   -1    0    0    0    0 -0.00000000000E+00 -0.00000000000E+00 -0.45593999997E+02  0.45594000000E+02  0.51100000000E-03 0.  1.
    9900012    2    1    2    0    0 -0.66384127257E+01  0.16683848846E+02  0.53160860835E+01  0.72461545261E+02  0.69999967390E+02 0.  0.
        -12    1    1    2    0    0  0.66384127257E+01 -0.16683848846E+02 -0.53160860835E+01  0.18726454739E+02  0.00000000000E+00 0.  1.
         11    1    3    3    0    0  0.88985486761E+01  0.10638114882E+02  0.12630237004E+01  0.13926553268E+02  0.51100000000E-03 0. -1.
        -11    1    3    3    0    0 -0.66918054302E+01 -0.95121807205E+00 -0.25774742942E+02  0.26646246448E+02  0.51100000000E-03 0.  1.
         12    1    3    3    0    0 -0.88451559716E+01  0.69969520360E+01  0.29827805325E+02  0.31888745546E+02  0.00000000000E+00 0. -1.
</event>
<event>
 7    1  0.2604986E-013  0.7246159E+02  0.7816164E-02  0.1226708E+00
        -11   -1    0    0    0    0  0.00000000000E+00  0.00000000000E+00  0.45593999997E+02  0.45594000000E+02  0.51100000000E-03 0.  1.
         11   -1    0    0    0    0 -0.00000000000E+00 -0.00000000000E+00 -0.45593999997E+02  0.45594000000E+02  0.51100000000E-03 0. -1.
    9900012    2    1    2    0    0  0.15686084043E+02  0.91244898646E+01  0.46226499442E+01  0.72461589762E+02  0.70000025360E+02 0.  0.
        -12    1    1    2    0    0 -0.15686084043E+02 -0.91244898646E+01 -0.46226499442E+01  0.18726410238E+02  0.00000000000E+00 0.  1.
         11    1    3    3    0    0  0.87254737526E+01  0.37645187493E+01 -0.21993730790E+01  0.97541137897E+01  0.51100000000E-03 0. -1.
        -11    1    3    3    0    0  0.42505087093E+01 -0.21194114314E+02 -0.16553823939E+02  0.27226575127E+02  0.51100000000E-03 0.  1.
        -12    1    3    3    0    0  0.27101015812E+01  0.26554085430E+02  0.23375846962E+02  0.35480900845E+02  0.00000000000E+00 0.  1.
</event>
<event>
 7    1  0.2604986E-013  0.7246155E+02  0.7816164E-02  0.1226708E+00
        -11   -1    0    0    0    0  0.00000000000E+00  0.00000000000E+00  0.45593999997E+02  0.45594000000E+02  0.51100000000E-03 0.  1.
         11   -1    0    0    0    0 -0.00000000000E+00 -0.00000000000E+00 -0.45593999997E+02  0.45594000000E+02  0.51100000000E-03 0. -1.
    9900012    2    1    2    0    0 -0.11652798933E+02  0.77845258684E+01 -0.12421488029E+02  0.72461549967E+02  0.69999973520E+02 0.  0.
        -12    1    1    2    0    0  0.11652798933E+02 -0.77845258684E+01  0.12421488029E+02  0.18726450033E+02  0.00000000000E+00 0.  1.
         11    1    3    3    0    0  0.37075408604E+01  0.14790897982E+02 -0.25001192423E+01  0.15452091083E+02  0.51100000000E-03 0. -1.
        -11    1    3    3    0    0  0.14992335232E+02 -0.16569415269E+02 -0.11531162931E+02  0.25145245214E+02  0.51100000000E-03 0.  1.
        -12    1    3    3    0    0 -0.30352675026E+02  0.95630431552E+01  0.16097941439E+01  0.31864213670E+02  0.00000000000E+00 0.  1.
</event>
<event>
 7    1  0.2604986E-013  0.7246157E+02  0.7816164E-02  0.1226708E+00
        -11   -1    0    0    0    0  0.00000000000E+00  0.00000000000E+00  0.45593999997E+02  0.45594000000E+02  0.51100000000E-03 0.  1.
         11   -1    0    0    0    0 -0.00000000000E+00 -0.00000000000E+00 -0.45593999997E+02  0.45594000000E+02  0.51100000000E-03 0. -1.
    9900012    2    1    2    0    0  0.38387254737E+01 -0.15229716889E+02  0.10198002495E+02  0.72461565618E+02  0.69999993908E+02 0.  0.
        -12    1    1    2    0    0 -0.38387254737E+01  0.15229716889E+02 -0.10198002495E+02  0.18726434382E+02  0.00000000000E+00 0.  1.
         11    1    3    3    0    0 -0.18983678224E+02  0.93926879355E+01  0.19924712628E+02  0.29079147153E+02  0.51100000000E-03 0. -1.
        -11    1    3    3    0    0  0.45671873736E+01 -0.23914014970E+01  0.80556251789E+01  0.95640524314E+01  0.51100000000E-03 0.  1.
         12    1    3    3    0    0  0.18255216324E+02 -0.22231003328E+02 -0.17782335312E+02  0.33818366033E+02  0.00000000000E+00 0. -1.
</event>
<event>
 7    1  0.2604986E-013  0.7246163E+02  0.7816164E-02  0.1226708E+00
        -11   -1    0    0    0    0  0.00000000000E+00  0.00000000000E+00  0.45593999997E+02  0.45594000000E+02  0.51100000000E-03 0.  1.
         11   -1    0    0    0    0 -0.00000000000E+00 -0.00000000000E+00 -0.45593999997E+02  0.45594000000E+02  0.51100000000E-03 0. -1.
    9900012    2    1    2    0    0 -0.15124097547E+02  0.70611463802E+01 -0.84899236796E+01  0.72461630387E+02  0.70000078282E+02 0.  0.
        -12    1    1    2    0    0  0.15124097547E+02 -0.70611463802E+01  0.84899236796E+01  0.18726369613E+02  0.00000000000E+00 0.  1.
         11    1    3    3    0    0 -0.14450402516E+02 -0.22094222626E+01 -0.28241379447E+02  0.31800490451E+02  0.51100000000E-03 0. -1.
        -11    1    3    3    0    0 -0.55410994221E+01 -0.47510399624E+01 -0.69711805027E+01  0.10093241372E+02  0.51100000000E-03 0.  1.
        -12    1    3    3    0    0  0.48674043912E+01  0.14021608605E+02  0.26722636270E+02  0.30567898564E+02  0.00000000000E+00 0.  1.
</event>
<event>
 7    1  0.2604986E-013  0.7246159E+02  0.7816164E-02  0.1226708E+00
        -11   -1    0    0    0    0  0.00000000000E+00  0.00000000000E+00  0.45593999997E+02  0.45594000000E+02  0.51100000000E-03 0. -1.
         11   -1    0    0    0    0 -0.00000000000E+00 -0.00000000000E+00 -0.45593999997E+02  0.45594000000E+02  0.51100000000E-03 0.  1.
    9900012    2    1    2    0    0 -0.79319652418E+01  0.30187030357E+01  0.16692810060E+02  0.72461586880E+02  0.70000021607E+02 0.  0.
        -12    1    1    2    0    0  0.79319652418E+01 -0.30187030357E+01 -0.16692810060E+02  0.18726413120E+02  0.00000000000E+00 0.  1.
         11    1    3    3    0    0 -0.13463891380E+02 -0.96712811199E+01  0.20960496486E+02  0.26723631168E+02  0.51100000000E-03 0. -1.
        -11    1    3    3    0    0 -0.74134470683E+01 -0.33973646957E+01  0.15269769708E+02  0.17310896901E+02  0.51100000000E-03 0.  1.
        -12    1    3    3    0    0  0.12945373206E+02  0.16087348851E+02 -0.19537456134E+02  0.28427058812E+02  0.00000000000E+00 0.  1.
</event>
<event>
 7    1  0.2604986E-013  0.7246169E+02  0.7816164E-02  0.1226708E+00
        -11   -1    0    0    0    0  0.00000000000E+00  0.00000000000E+00  0.45593999997E+02  0.45594000000E+02  0.51100000000E-03 0. -1.
         11   -1    0    0    0    0 -0.00000000000E+00 -0.00000000000E+00 -0.45593999997E+02  0.45594000000E+02  0.51100000000E-03 0.  1.
    9900012    2    1    2    0    0 -0.31465795200E+00 -0.22338813929E+01  0.18589923799E+02  0.72461694904E+02  0.70000162327E+02 0.  0.
        -12    1    1    2    0    0  0.31465795200E+00  0.22338813929E+01 -0.18589923799E+02  0.18726305096E+02  0.00000000000E+00 0.  1.
         11    1    3    3    0    0 -0.11005899650E+02 -0.10327262975E+02 -0.18517891145E+02  0.23889212636E+02  0.51100000000E-03 0. -1.
        -11    1    3    3    0    0 -0.47588174938E+01 -0.68576249251E+01  0.44122707133E+01  0.94414774618E+01  0.51100000000E-03 0.  1.
         12    1    3    3    0    0  0.15450059192E+02  0.14951006507E+02  0.32695544231E+02  0.39131004806E+02  0.00000000000E+00 0. -1.
</event>
<event>
 7    1  0.2604986E-013  0.7246203E+02  0.7816164E-02  0.1226707E+00
        -11   -1    0    0    0    0  0.00000000000E+00  0.00000000000E+00  0.45593999997E+02  0.45594000000E+02  0.51100000000E-03 0. -1.
         11   -1    0    0    0    0 -0.00000000000E+00 -0.00000000000E+00 -0.45593999997E+02  0.45594000000E+02  0.51100000000E-03 0.  1.
    9900012    2    1    2    0    0 -0.13650249206E+00  0.13094337782E+02  0.13385871513E+02  0.72462032173E+02  0.70000601680E+02 0.  0.
        -12    1    1    2    0    0  0.13650249206E+00 -0.13094337782E+02 -0.13385871513E+02  0.18725967827E+02  0.00000000000E+00 0.  1.
         11    1    3    3    0    0 -0.10937327625E+02 -0.18808986428E+02  0.21086543340E+02  0.30299264287E+02  0.51100000000E-03 0. -1.
        -11    1    3    3    0    0  0.15224624525E+02  0.89570720447E+01 -0.62932830480E+01  0.18751633084E+02  0.51100000000E-03 0.  1.
        -12    1    3    3    0    0 -0.44237993922E+01  0.22946252166E+02 -0.14073887790E+01  0.23411134802E+02  0.00000000000E+00 0.  1.
</event>
<event>
 7    1  0.2604986E-013  0.7246160E+02  0.7816164E-02  0.1226708E+00
        -11   -1    0    0    0    0  0.00000000000E+00  0.00000000000E+00  0.45593999997E+02  0.45594000000E+02  0.51100000000E-03 0.  1.
         11   -1    0    0    0    0 -0.00000000000E+00 -0.00000000000E+00 -0.45593999997E+02  0.45594000000E+02  0.51100000000E-03 0. -1.
    9900012    2    1    2    0    0  0.79788469576E+01 -0.95291245420E+01 -0.14007557358E+02  0.72461604820E+02  0.70000044975E+02 0.  0.
        -12    1    1    2    0    0 -0.79788469576E+01  0.95291245420E+01  0.14007557358E+02  0.18726395180E+02  0.00000000000E+00 0.  1.
         11    1    3    3    0    0 -0.12271343102E+02 -0.12976545945E+02 -0.62795268291E+01  0.18931694685E+02  0.51100000000E-03 0. -1.
        -11    1    3    3    0    0  0.19859066361E+02 -0.17199412407E+02  0.81212464470E+01  0.27498308093E+02  0.51100000000E-03 0.  1.
         12    1    3    3    0    0  0.39112369825E+00  0.20646833811E+02 -0.15849276976E+02  0.26031602041E+02  0.00000000000E+00 0. -1.
</event>
<event>
 7    1  0.2604986E-013  0.7246157E+02  0.7816164E-02  0.1226708E+00
        -11   -1    0    0    0    0  0.00000000000E+00  0.00000000000E+00  0.45593999997E+02  0.45594000000E+02  0.51100000000E-03 0.  1.
         11   -1    0    0    0    0 -0.00000000000E+00 -0.00000000000E+00 -0.45593999997E+02  0.45594000000E+02  0.51100000000E-03 0. -1.
    9900012    2    1    2    0    0 -0.15293517249E+01  0.17373438528E+02 -0.68193669727E+01  0.72461573515E+02  0.70000004195E+02 0.  0.
        -12    1    1    2    0    0  0.15293517249E+01 -0.17373438528E+02  0.68193669727E+01  0.18726426485E+02  0.00000000000E+00 0.  1.
         11    1    3    3    0    0 -0.54189847828E+00  0.54939117482E+00 -0.14984816433E+02  0.15004672886E+02  0.51100000000E-03 0. -1.
        -11    1    3    3    0    0  0.45227080424E+01  0.34853891245E+02 -0.34466157705E+01  0.35314696423E+02  0.51100000000E-03 0.  1.
         12    1    3    3    0    0 -0.55101612890E+01 -0.18029843891E+02  0.11612065231E+02  0.22142204206E+02  0.00000000000E+00 0. -1.
</event>
<event>
 7    1  0.2604986E-013  0.7246157E+02  0.7816164E-02  0.1226708E+00
        -11   -1    0    0    0    0  0.00000000000E+00  0.00000000000E+00  0.45593999997E+02  0.45594000000E+02  0.51100000000E-03 0.  1.
         11   -1    0    0    0    0 -0.00000000000E+00 -0.00000000000E+00 -0.45593999997E+02  0.45594000000E+02  0.51100000000E-03 0. -1.
    9900012    2    1    2    0    0  0.16658176423E+02 -0.60463451421E+01 -0.60519494551E+01  0.72461568853E+02  0.69999998122E+02 0.  0.
        -12    1    1    2    0    0 -0.16658176423E+02  0.60463451421E+01  0.60519494551E+01  0.18726431147E+02  0.00000000000E+00 0.  1.
         11    1    3    3    0    0  0.22446258000E+02 -0.18429141877E+02 -0.14299804239E+02  0.32372089369E+02  0.51100000000E-03 0. -1.
        -11    1    3    3    0    0  0.13539436476E+01 -0.76906019578E+01  0.15686075006E+02  0.17522313524E+02  0.51100000000E-03 0.  1.
        -12    1    3    3    0    0 -0.71420252251E+01  0.20073398693E+02 -0.74382202220E+01  0.22567165960E+02  0.00000000000E+00 0.  1.
</event>
<event>
 7    1  0.2604986E-013  0.7246164E+02  0.7816164E-02  0.1226708E+00
        -11   -1    0    0    0    0  0.00000000000E+00  0.00000000000E+00  0.45593999997E+02  0.45594000000E+02  0.51100000000E-03 0. -1.
         11   -1    0    0    0    0 -0.00000000000E+00 -0.00000000000E+00 -0.45593999997E+02  0.45594000000E+02  0.51100000000E-03 0.  1.
    9900012    2    1    2    0    0 -0.69637331896E+01  0.12345866772E+02  0.12237752427E+02  0.72461639149E+02  0.70000089695E+02 0.  0.
        -12    1    1    2    0    0  0.69637331896E+01 -0.12345866772E+02 -0.12237752427E+02  0.18726360851E+02  0.00000000000E+00 0.  1.
         11    1    3    3    0    0  0.20323865420E+02  0.53869323114E+01 -0.22594960153E+01  0.21146722390E+02  0.51100000000E-03 0. -1.
        -11    1    3    3    0    0 -0.57765554789E+01  0.18246346964E+02  0.18588570904E+02  0.26680193763E+02  0.51100000000E-03 0.  1.
        -12    1    3    3    0    0 -0.21511043130E+02 -0.11287412504E+02 -0.40913224619E+01  0.24634722996E+02  0.00000000000E+00 0.  1.
</event>
<event>
 7    1  0.2604986E-013  0.7246163E+02  0.7816164E-02  0.1226708E+00
        -11   -1    0    0    0    0  0.00000000000E+00  0.00000000000E+00  0.45593999997E+02  0.45594000000E+02  0.51100000000E-03 0.  1.
         11   -1    0    0    0    0 -0.00000000000E+00 -0.00000000000E+00 -0.45593999997E+02  0.45594000000E+02  0.51100000000E-03 0. -1.
    9900012    2    1    2    0    0 -0.45164409993E+01  0.96398962817E+01 -0.15406197825E+02  0.72461634334E+02  0.70000083424E+02 0.  0.
        -12    1    1    2    0    0  0.45164409993E+01 -0.96398962817E+01  0.15406197825E+02  0.18726365666E+02  0.00000000000E+00 0.  1.
         11    1    3    3    0    0  0.68402317580E+01 -0.68296636041E+01 -0.33289486154E-01  0.96661359343E+01  0.51100000000E-03 0. -1.
        -11    1    3    3    0    0  0.11595263949E+01 -0.20569845794E+02  0.47672434230E+00  0.20608016009E+02  0.51100000000E-03 0.  1.
         12    1    3    3    0    0 -0.12516199152E+02  0.37039405680E+02 -0.15849632681E+02  0.42187482391E+02  0.00000000000E+00 0. -1.
</event>
<event>
 7    1  0.2604986E-013  0.7246161E+02  0.7816164E-02  0.1226708E+00
        -11   -1    0    0    0    0  0.00000000000E+00  0.00000000000E+00  0.45593999997E+02  0.45594000000E+02  0.51100000000E-03 0.  1.
         11   -1    0    0    0    0 -0.00000000000E+00 -0.00000000000E+00 -0.45593999997E+02  0.45594000000E+02  0.51100000000E-03 0. -1.
    9900012    2    1    2    0    0 -0.78850880476E+01  0.15885900268E+02  0.60117736432E+01  0.72461605174E+02  0.70000045437E+02 0.  0.
        -12    1    1    2    0    0  0.78850880476E+01 -0.15885900268E+02 -0.60117736432E+01  0.18726394826E+02  0.00000000000E+00 0.  1.
         11    1    3    3    0    0 -0.93754754955E+01 -0.18621591648E+02  0.49665326734E+00  0.20854493065E+02  0.51100000000E-03 0. -1.
        -11    1    3    3    0    0  0.35439522645E+01  0.22775836845E+02 -0.15271727718E+02  0.27650027294E+02  0.51100000000E-03 0.  1.
        -12    1    3    3    0    0 -0.20535648166E+01  0.11731655071E+02  0.20786848094E+02  0.23957084815E+02  0.00000000000E+00 0.  1.
</event>
<event>
 7    1  0.2604986E-013  0.7246164E+02  0.7816164E-02  0.1226708E+00
        -11   -1    0    0    0    0  0.00000000000E+00  0.00000000000E+00  0.45593999997E+02  0.45594000000E+02  0.51100000000E-03 0.  1.
         11   -1    0    0    0    0 -0.00000000000E+00 -0.00000000000E+00 -0.45593999997E+02  0.45594000000E+02  0.51100000000E-03 0. -1.
    9900012    2    1    2    0    0  0.26215098902E+01 -0.16304142908E+02 -0.88305846549E+01  0.72461638490E+02  0.70000088837E+02 0.  0.
        -12    1    1    2    0    0 -0.26215098902E+01  0.16304142908E+02  0.88305846549E+01  0.18726361510E+02  0.00000000000E+00 0.  1.
         11    1    3    3    0    0 -0.58630308461E+01 -0.13478025630E+02  0.20793892656E+01  0.14844398458E+02  0.51100000000E-03 0. -1.
        -11    1    3    3    0    0  0.65701086561E+01 -0.26968722837E+02 -0.17123723092E+02  0.32614417548E+02  0.51100000000E-03 0.  1.
         12    1    3    3    0    0  0.19144320801E+01  0.24142605560E+02  0.62137491714E+01  0.25002822484E+02  0.00000000000E+00 0. -1.
</event>
<event>
 7    1  0.2604986E-013  0.7246157E+02  0.7816164E-02  0.1226708E+00
        -11   -1    0    0    0    0  0.00000000000E+00  0.00000000000E+00  0.45593999997E+02  0.45594000000E+02  0.51100000000E-03 0. -1.
         11   -1    0    0    0    0 -0.00000000000E+00 -0.00000000000E+00 -0.45593999997E+02  0.45594000000E+02  0.51100000000E-03 0.  1.
    9900012    2    1    2    0    0  0.50105489649E+01 -0.11547789186E+02  0.13864426790E+02  0.72461565042E+02  0.69999993158E+02 0.  0.
        -12    1    1    2    0    0 -0.50105489649E+01  0.11547789186E+02 -0.13864426790E+02  0.18726434958E+02  0.00000000000E+00 0.  1.
         11    1    3    3    0    0 -0.88342470314E+01 -0.30835580610E+02 -0.67095446476E+01  0.32770336309E+02  0.51100000000E-03 0. -1.
        -11    1    3    3    0    0  0.63854259327E+01 -0.50329569000E+01  0.25742416284E+01  0.85282495110E+01  0.51100000000E-03 0.  1.
        -12    1    3    3    0    0  0.74593700636E+01  0.24320748324E+02  0.17999729810E+02  0.31162979222E+02  0.00000000000E+00 0.  1.
</event>
<event>
 7    1  0.2604986E-013  0.7246154E+02  0.7816164E-02  0.1226708E+00
        -11   -1    0    0    0    0  0.00000000000E+00  0.00000000000E+00  0.45593999997E+02  0.45594000000E+02  0.51100000000E-03 0.  1.
         11   -1    0    0    0    0 -0.00000000000E+00 -0.00000000000E+00 -0.45593999997E+02  0.45594000000E+02  0.51100000000E-03 0. -1.
    9900012    2    1    2    0    0  0.12337849582E+02 -0.23046325730E+01 -0.13897719907E+02  0.72461535244E+02  0.69999954341E+02 0.  0.
        -12    1    1    2    0    0 -0.12337849582E+02  0.23046325730E+01  0.13897719907E+02  0.18726464756E+02  0.00000000000E+00 0.  1.
         11    1    3    3    0    0  0.83715734567E+01  0.20295185523E+02 -0.29762484110E+01  0.22154815558E+02  0.51100000000E-03 0. -1.
        -11    1    3    3    0    0  0.18276259299E+02 -0.69742614578E+01  0.87180577108E+01  0.21416500820E+02  0.51100000000E-03 0.  1.
         12    1    3    3    0    0 -0.14309983174E+02 -0.15625556638E+02 -0.19639529207E+02  0.28890218867E+02  0.00000000000E+00 0. -1.
</event>
<event>
 7    1  0.2604986E-013  0.7246158E+02  0.7816164E-02  0.1226708E+00
        -11   -1    0    0    0    0  0.00000000000E+00  0.00000000000E+00  0.45593999997E+02  0.45594000000E+02  0.51100000000E-03 0.  1.
         11   -1    0    0    0    0 -0.00000000000E+00 -0.00000000000E+00 -0.45593999997E+02  0.45594000000E+02  0.51100000000E-03 0. -1.
    9900012    2    1    2    0    0  0.85046312875E+00 -0.14886557571E+02 -0.11328980369E+02  0.72461583363E+02  0.70000017025E+02 0.  0.
        -12    1    1    2    0    0 -0.85046312875E+00  0.14886557571E+02  0.11328980369E+02  0.18726416637E+02  0.00000000000E+00 0.  1.
         11    1    3    3    0    0  0.96075618717E+01  0.12858439803E+02 -0.13754070402E+02  0.21138097648E+02  0.51100000000E-03 0. -1.
        -11    1    3    3    0    0 -0.16264447051E+02  0.43596444213E+01  0.66073817633E+01  0.18088566316E+02  0.51100000000E-03 0.  1.
        -12    1    3    3    0    0  0.75073483077E+01 -0.32104641795E+02 -0.41822917308E+01  0.33234919400E+02  0.00000000000E+00 0.  1.
</event>
<event>
 7    1  0.2604986E-013  0.7246158E+02  0.7816164E-02  0.1226708E+00
        -11   -1    0    0    0    0  0.00000000000E+00  0.00000000000E+00  0.45593999997E+02  0.45594000000E+02  0.51100000000E-03 0.  1.
         11   -1    0    0    0    0 -0.00000000000E+00 -0.00000000000E+00 -0.45593999997E+02  0.45594000000E+02  0.51100000000E-03 0. -1.
    9900012    2    1    2    0    0 -0.17551578394E+02  0.34255521881E+01 -0.55575469788E+01  0.72461584423E+02  0.70000018406E+02 0.  0.
        -12    1    1    2    0    0  0.17551578394E+02 -0.34255521881E+01  0.55575469788E+01  0.18726415577E+02  0.00000000000E+00 0.  1.
         11    1    3    3    0    0  0.30149065633E+01  0.10322395037E+02 -0.21685312796E+02  0.24205253401E+02  0.51100000000E-03 0. -1.
        -11    1    3    3    0    0 -0.69560663653E+01  0.16181179340E+02  0.13649010161E+01  0.17665796873E+02  0.51100000000E-03 0.  1.
        -12    1    3    3    0    0 -0.13610418592E+02 -0.23078022189E+02  0.14762864801E+02  0.30590534149E+02  0.00000000000E+00 0.  1.
</event>
<event>
 7    1  0.2604986E-013  0.7246130E+02  0.7816164E-02  0.1226709E+00
        -11   -1    0    0    0    0  0.00000000000E+00  0.00000000000E+00  0.45593999997E+02  0.45594000000E+02  0.51100000000E-03 0.  1.
         11   -1    0    0    0    0 -0.00000000000E+00 -0.00000000000E+00 -0.45593999997E+02  0.45594000000E+02  0.51100000000E-03 0. -1.
    9900012    2    1    2    0    0 -0.17341540816E+02  0.69544856742E+01  0.12630162433E+01  0.72461304645E+02  0.69999653942E+02 0.  0.
        -12    1    1    2    0    0  0.17341540816E+02 -0.69544856742E+01 -0.12630162433E+01  0.18726695355E+02  0.00000000000E+00 0.  1.
         11    1    3    3    0    0 -0.28664769277E+02 -0.51903188980E+01 -0.15490852937E+02  0.32993558961E+02  0.51100000000E-03 0. -1.
        -11    1    3    3    0    0 -0.92106855686E+01 -0.34526835413E+01  0.60508379767E+01  0.11548609993E+02  0.51100000000E-03 0.  1.
        -12    1    3    3    0    0  0.20533914029E+02  0.15597488113E+02  0.10703031203E+02  0.27919135691E+02  0.00000000000E+00 0.  1.
</event>
<event>
 7    1  0.2604986E-013  0.7246143E+02  0.7816164E-02  0.1226708E+00
        -11   -1    0    0    0    0  0.00000000000E+00  0.00000000000E+00  0.45593999997E+02  0.45594000000E+02  0.51100000000E-03 0.  1.
         11   -1    0    0    0    0 -0.00000000000E+00 -0.00000000000E+00 -0.45593999997E+02  0.45594000000E+02  0.51100000000E-03 0. -1.
    9900012    2    1    2    0    0 -0.15630861799E+02  0.55404717490E+01 -0.86984924183E+01  0.72461429622E+02  0.69999816748E+02 0.  0.
        -12    1    1    2    0    0  0.15630861799E+02 -0.55404717490E+01  0.86984924183E+01  0.18726570378E+02  0.00000000000E+00 0.  1.
         11    1    3    3    0    0  0.15501122923E+02 -0.11874672580E+02 -0.18056942498E+02  0.26595974007E+02  0.51100000000E-03 0. -1.
        -11    1    3    3    0    0  0.47679862063E+01  0.43197262662E+01 -0.33106423667E+00  0.64423079147E+01  0.51100000000E-03 0.  1.
        -12    1    3    3    0    0 -0.35899970928E+02  0.13095418063E+02  0.96895143167E+01  0.39423147700E+02  0.00000000000E+00 0.  1.
</event>
<event>
 7    1  0.2604986E-013  0.7246186E+02  0.7816164E-02  0.1226707E+00
        -11   -1    0    0    0    0  0.00000000000E+00  0.00000000000E+00  0.45593999997E+02  0.45594000000E+02  0.51100000000E-03 0. -1.
         11   -1    0    0    0    0 -0.00000000000E+00 -0.00000000000E+00 -0.45593999997E+02  0.45594000000E+02  0.51100000000E-03 0.  1.
    9900012    2    1    2    0    0 -0.62703779868E+01 -0.24658833341E+01  0.17471985453E+02  0.72461855272E+02  0.70000371235E+02 0.  0.
        -12    1    1    2    0    0  0.62703779868E+01  0.24658833341E+01 -0.17471985453E+02  0.18726144728E+02  0.00000000000E+00 0.  1.
         11    1    3    3    0    0 -0.15078061679E+02 -0.78247317332E+01  0.28231336188E+02  0.32948182255E+02  0.51100000000E-03 0. -1.
        -11    1    3    3    0    0 -0.11569614342E+02  0.96747232901E+01  0.18034489259E+01  0.15189097243E+02  0.51100000000E-03 0.  1.
        -12    1    3    3    0    0  0.20377298035E+02 -0.43158748910E+01 -0.12562799661E+02  0.24324575774E+02  0.00000000000E+00 0.  1.
</event>
<event>
 7    1  0.2604986E-013  0.7246154E+02  0.7816164E-02  0.1226708E+00
        -11   -1    0    0    0    0  0.00000000000E+00  0.00000000000E+00  0.45593999997E+02  0.45594000000E+02  0.51100000000E-03 0. -1.
         11   -1    0    0    0    0 -0.00000000000E+00 -0.00000000000E+00 -0.45593999997E+02  0.45594000000E+02  0.51100000000E-03 0.  1.
    9900012    2    1    2    0    0  0.73916295569E+01  0.14523350876E+02  0.92258465373E+01  0.72461544048E+02  0.69999965810E+02 0.  0.
        -12    1    1    2    0    0 -0.73916295569E+01 -0.14523350876E+02 -0.92258465373E+01  0.18726455952E+02  0.00000000000E+00 0.  1.
         11    1    3    3    0    0 -0.10270418753E+02 -0.12442420829E+02  0.12551504695E+02  0.20441027562E+02  0.51100000000E-03 0. -1.
        -11    1    3    3    0    0 -0.12773311170E+02  0.63583050847E+01  0.33676836295E+01  0.14660382501E+02  0.51100000000E-03 0.  1.
         12    1    3    3    0    0  0.30435359479E+02  0.20607466620E+02 -0.66933417875E+01  0.37360133985E+02  0.00000000000E+00 0. -1.
</event>
<event>
 7    1  0.2604986E-013  0.7246153E+02  0.7816164E-02  0.1226708E+00
        -11   -1    0    0    0    0  0.00000000000E+00  0.00000000000E+00  0.45593999997E+02  0.45594000000E+02  0.51100000000E-03 0. -1.
         11   -1    0    0    0    0 -0.00000000000E+00 -0.00000000000E+00 -0.45593999997E+02  0.45594000000E+02  0.51100000000E-03 0.  1.
    9900012    2    1    2    0    0 -0.15815123607E+01 -0.91544885251E+01  0.16259607937E+02  0.72461529650E+02  0.69999947054E+02 0.  0.
        -12    1    1    2    0    0  0.15815123607E+01  0.91544885251E+01 -0.16259607937E+02  0.18726470350E+02  0.00000000000E+00 0.  1.
         11    1    3    3    0    0  0.31092624782E+01  0.46036106857E+01  0.15298820071E+02  0.16276198583E+02  0.51100000000E-03 0. -1.
        -11    1    3    3    0    0 -0.28271805859E+02  0.10221608095E+01  0.17452306759E+01  0.28344058453E+02  0.51100000000E-03 0.  1.
         12    1    3    3    0    0  0.23581031020E+02 -0.14780260020E+02 -0.78444281009E+00  0.27841272614E+02  0.00000000000E+00 0. -1.
</event>
<event>
 7    1  0.2604986E-013  0.7246158E+02  0.7816164E-02  0.1226708E+00
        -11   -1    0    0    0    0  0.00000000000E+00  0.00000000000E+00  0.45593999997E+02  0.45594000000E+02  0.51100000000E-03 0. -1.
         11   -1    0    0    0    0 -0.00000000000E+00 -0.00000000000E+00 -0.45593999997E+02  0.45594000000E+02  0.51100000000E-03 0.  1.
    9900012    2    1    2    0    0  0.13148946924E+02  0.79674895672E+01  0.10691266464E+02  0.72461578189E+02  0.70000010285E+02 0.  0.
        -12    1    1    2    0    0 -0.13148946924E+02 -0.79674895672E+01 -0.10691266464E+02  0.18726421811E+02  0.00000000000E+00 0.  1.
         11    1    3    3    0    0  0.66685289410E+01 -0.18891657446E+02  0.18376233108E+02  0.27185473010E+02  0.51100000000E-03 0. -1.
        -11    1    3    3    0    0  0.14119439129E+02 -0.24077978537E+01 -0.14878490507E+01  0.14400338429E+02  0.51100000000E-03 0.  1.
        -12    1    3    3    0    0 -0.76390211458E+01  0.29266944867E+02 -0.61971175936E+01  0.30875766749E+02  0.00000000000E+00 0.  1.
</event>
<event>
 7    1  0.2604986E-013  0.7246151E+02  0.7816164E-02  0.1226708E+00
        -11   -1    0    0    0    0  0.00000000000E+00  0.00000000000E+00  0.45593999997E+02  0.45594000000E+02  0.51100000000E-03 0.  1.
         11   -1    0    0    0    0 -0.00000000000E+00 -0.00000000000E+00 -0.45593999997E+02  0.45594000000E+02  0.51100000000E-03 0. -1.
    9900012    2    1    2    0    0 -0.12552928447E+02  0.13894748646E+02  0.20327868338E+00  0.72461511414E+02  0.69999923298E+02 0.  0.
        -12    1    1    2    0    0  0.12552928447E+02 -0.13894748646E+02 -0.20327868338E+00  0.18726488586E+02  0.00000000000E+00 0.  1.
         11    1    3    3    0    0 -0.34847926027E+01 -0.12462736415E+02  0.88680515232E+01  0.15687763273E+02  0.51100000000E-03 0. -1.
        -11    1    3    3    0    0 -0.27753638991E+01 -0.75406185345E+01  0.13554362060E+02  0.15757039816E+02  0.51100000000E-03 0.  1.
         12    1    3    3    0    0 -0.62927719447E+01  0.33898103595E+02 -0.22219134900E+02  0.41016708325E+02  0.00000000000E+00 0. -1.
</event>
<event>
 7    1  0.2604986E-013  0.7246163E+02  0.7816164E-02  0.1226708E+00
        -11   -1    0    0    0    0  0.00000000000E+00  0.00000000000E+00  0.45593999997E+02  0.45594000000E+02  0.51100000000E-03 0.  1.
         11   -1    0    0    0    0 -0.00000000000E+00 -0.00000000000E+00 -0.45593999997E+02  0.45594000000E+02  0.51100000000E-03 0. -1.
    9900012    2    1    2    0    0 -0.31624847928E+01  0.94712832385E+01 -0.15842050997E+02  0.72461625657E+02  0.70000072120E+02 0.  0.
        -12    1    1    2    0    0  0.31624847928E+01 -0.94712832385E+01  0.15842050997E+02  0.18726374343E+02  0.00000000000E+00 0.  1.
         11    1    3    3    0    0 -0.79774387370E+01  0.10963849456E+02 -0.23763133580E+02  0.27359313616E+02  0.51100000000E-03 0. -1.
        -11    1    3    3    0    0  0.15909143867E+02  0.16699649807E+02  0.33104616105E+01  0.23301036857E+02  0.51100000000E-03 0.  1.
        -12    1    3    3    0    0 -0.11094189923E+02 -0.18192216024E+02  0.46106209734E+01  0.21801275185E+02  0.00000000000E+00 0.  1.
</event>
<event>
 7    1  0.2604986E-013  0.7246158E+02  0.7816164E-02  0.1226708E+00
        -11   -1    0    0    0    0  0.00000000000E+00  0.00000000000E+00  0.45593999997E+02  0.45594000000E+02  0.51100000000E-03 0. -1.
         11   -1    0    0    0    0 -0.00000000000E+00 -0.00000000000E+00 -0.45593999997E+02  0.45594000000E+02  0.51100000000E-03 0.  1.
    9900012    2    1    2    0    0 -0.44906634428E+01  0.71806802779E+00  0.18165827493E+02  0.72461575666E+02  0.70000006997E+02 0.  0.
        -12    1    1    2    0    0  0.44906634428E+01 -0.71806802779E+00 -0.18165827493E+02  0.18726424334E+02  0.00000000000E+00 0.  1.
         11    1    3    3    0    0  0.22530974976E+02 -0.22504381274E+02  0.17659151641E+02  0.36413426738E+02  0.51100000000E-03 0. -1.
        -11    1    3    3    0    0 -0.45814770665E-01 -0.17094532090E+00 -0.28213755075E+00  0.33305127925E+00  0.51100000000E-03 0.  1.
        -12    1    3    3    0    0 -0.26975823648E+02  0.23393394622E+02  0.78881340206E+00  0.35715097648E+02  0.00000000000E+00 0.  1.
</event>
<event>
 7    1  0.2604986E-013  0.7246157E+02  0.7816164E-02  0.1226708E+00
        -11   -1    0    0    0    0  0.00000000000E+00  0.00000000000E+00  0.45593999997E+02  0.45594000000E+02  0.51100000000E-03 0.  1.
         11   -1    0    0    0    0 -0.00000000000E+00 -0.00000000000E+00 -0.45593999997E+02  0.45594000000E+02  0.51100000000E-03 0. -1.
    9900012    2    1    2    0    0  0.37555609940E+01 -0.18043840633E+02 -0.33158365484E+01  0.72461569609E+02  0.69999999107E+02 0.  0.
        -12    1    1    2    0    0 -0.37555609940E+01  0.18043840633E+02  0.33158365484E+01  0.18726430391E+02  0.00000000000E+00 0.  1.
         11    1    3    3    0    0  0.14890970621E+02  0.11861937090E+02 -0.24163825703E+02  0.30762591413E+02  0.51100000000E-03 0. -1.
        -11    1    3    3    0    0 -0.43845471782E+01 -0.12594297874E+01 -0.14369168616E+01  0.47827970557E+01  0.51100000000E-03 0.  1.
        -12    1    3    3    0    0 -0.67508624489E+01 -0.28646347935E+02  0.22284906016E+02  0.36916181140E+02  0.00000000000E+00 0.  1.
</event>
<event>
 7    1  0.2604986E-013  0.7246155E+02  0.7816164E-02  0.1226708E+00
        -11   -1    0    0    0    0  0.00000000000E+00  0.00000000000E+00  0.45593999997E+02  0.45594000000E+02  0.51100000000E-03 0.  1.
         11   -1    0    0    0    0 -0.00000000000E+00 -0.00000000000E+00 -0.45593999997E+02  0.45594000000E+02  0.51100000000E-03 0. -1.
    9900012    2    1    2    0    0 -0.10033880448E+02 -0.14638815584E+02 -0.59754822614E+01  0.72461546337E+02  0.69999968791E+02 0.  0.
        -12    1    1    2    0    0  0.10033880448E+02  0.14638815584E+02  0.59754822614E+01  0.18726453663E+02  0.00000000000E+00 0.  1.
         11    1    3    3    0    0  0.70168099836E+01  0.19252143929E+02  0.72222413397E+00  0.20503713717E+02  0.51100000000E-03 0. -1.
        -11    1    3    3    0    0  0.47705612627E+01 -0.25951818990E+02  0.34603113584E+01  0.26612570688E+02  0.51100000000E-03 0.  1.
         12    1    3    3    0    0 -0.21821251694E+02 -0.79391405232E+01 -0.10158017754E+02  0.25345261932E+02  0.00000000000E+00 0. -1.
</event>
<event>
 7    1  0.2604986E-013  0.7246157E+02  0.7816164E-02  0.1226708E+00
        -11   -1    0    0    0    0  0.00000000000E+00  0.00000000000E+00  0.45593999997E+02  0.45594000000E+02  0.51100000000E-03 0.  1.
         11   -1    0    0    0    0 -0.00000000000E+00 -0.00000000000E+00 -0.45593999997E+02  0.45594000000E+02  0.51100000000E-03 0. -1.
    9900012    2    1    2    0    0 -0.85283919837E+01 -0.99313828030E+01 -0.13390798649E+02  0.72461566205E+02  0.69999994673E+02 0.  0.
        -12    1    1    2    0    0  0.85283919837E+01  0.99313828030E+01  0.13390798649E+02  0.18726433795E+02  0.00000000000E+00 0.  1.
         11    1    3    3    0    0  0.11589987392E+02 -0.42841302035E-01 -0.55895771685E+01  0.12867517877E+02  0.51100000000E-03 0. -1.
        -11    1    3    3    0    0  0.77919114647E+01 -0.19674602820E+02  0.11687363528E+02  0.24174332398E+02  0.51100000000E-03 0.  1.
         12    1    3    3    0    0 -0.27910290841E+02  0.97860613190E+01 -0.19488585008E+02  0.35419715930E+02  0.00000000000E+00 0. -1.
</event>
<event>
 7    1  0.2604986E-013  0.7246150E+02  0.7816164E-02  0.1226708E+00
        -11   -1    0    0    0    0  0.00000000000E+00  0.00000000000E+00  0.45593999997E+02  0.45594000000E+02  0.51100000000E-03 0. -1.
         11   -1    0    0    0    0 -0.00000000000E+00 -0.00000000000E+00 -0.45593999997E+02  0.45594000000E+02  0.51100000000E-03 0.  1.
    9900012    2    1    2    0    0  0.53015369657E+01  0.13171079833E+02 -0.12210572321E+02  0.72461502341E+02  0.69999911478E+02 0.  0.
        -12    1    1    2    0    0 -0.53015369657E+01 -0.13171079833E+02  0.12210572321E+02  0.18726497659E+02  0.00000000000E+00 0.  1.
         11    1    3    3    0    0  0.12911682564E+02  0.29304077268E+02  0.81669708174E+01  0.33047540056E+02  0.51100000000E-03 0. -1.
        -11    1    3    3    0    0  0.49900708932E+01  0.62287587050E+01 -0.36435606301E+01  0.87734700575E+01  0.51100000000E-03 0.  1.
        -12    1    3    3    0    0 -0.12600216492E+02 -0.22361756140E+02 -0.16733982509E+02  0.30640492227E+02  0.00000000000E+00 0.  1.
</event>
<event>
 7    1  0.2604986E-013  0.7246156E+02  0.7816164E-02  0.1226708E+00
        -11   -1    0    0    0    0  0.00000000000E+00  0.00000000000E+00  0.45593999997E+02  0.45594000000E+02  0.51100000000E-03 0.  1.
         11   -1    0    0    0    0 -0.00000000000E+00 -0.00000000000E+00 -0.45593999997E+02  0.45594000000E+02  0.51100000000E-03 0. -1.
    9900012    2    1    2    0    0 -0.15946151160E+02  0.10715233614E+01 -0.97597035069E+01  0.72461555819E+02  0.69999981143E+02 0.  0.
        -12    1    1    2    0    0  0.15946151160E+02 -0.10715233614E+01  0.97597035069E+01  0.18726444181E+02  0.00000000000E+00 0.  1.
         11    1    3    3    0    0 -0.14070873340E+02 -0.53874606336E+01  0.17232227726E+01  0.15165213669E+02  0.51100000000E-03 0. -1.
        -11    1    3    3    0    0 -0.17819449027E+02 -0.17897640862E+02  0.17546509665E+01  0.25316735816E+02  0.51100000000E-03 0.  1.
        -12    1    3    3    0    0  0.15944171208E+02  0.24356624857E+02 -0.13237577246E+02  0.31979606334E+02  0.00000000000E+00 0.  1.
</event>
<event>
 7    1  0.2604986E-013  0.7246155E+02  0.7816164E-02  0.1226708E+00
        -11   -1    0    0    0    0  0.00000000000E+00  0.00000000000E+00  0.45593999997E+02  0.45594000000E+02  0.51100000000E-03 0.  1.
         11   -1    0    0    0    0 -0.00000000000E+00 -0.00000000000E+00 -0.45593999997E+02  0.45594000000E+02  0.51100000000E-03 0. -1.
    9900012    2    1    2    0    0  0.11576274116E+02  0.14693694933E+02 -0.87472219352E+00  0.72461549933E+02  0.69999973476E+02 0.  0.
        -12    1    1    2    0    0 -0.11576274116E+02 -0.14693694933E+02  0.87472219352E+00  0.18726450067E+02  0.00000000000E+00 0.  1.
         11    1    3    3    0    0 -0.12741867773E+02  0.21008819454E+02 -0.20488757561E+02  0.31992419037E+02  0.51100000000E-03 0. -1.
        -11    1    3    3    0    0  0.50209499569E+01  0.25923048135E+01 -0.52818928380E+01  0.77348804082E+01  0.51100000000E-03 0.  1.
        -12    1    3    3    0    0  0.19297191932E+02 -0.89074293342E+01  0.24895928205E+02  0.32734250488E+02  0.00000000000E+00 0.  1.
</event>
<event>
 7    1  0.2604986E-013  0.7246156E+02  0.7816164E-02  0.1226708E+00
        -11   -1    0    0    0    0  0.00000000000E+00  0.00000000000E+00  0.45593999997E+02  0.45594000000E+02  0.51100000000E-03 0. -1.
         11   -1    0    0    0    0 -0.00000000000E+00 -0.00000000000E+00 -0.45593999997E+02  0.45594000000E+02  0.51100000000E-03 0.  1.
    9900012    2    1    2    0    0 -0.37478158097E+01  0.43015212715E+01  0.17836209130E+02  0.72461559742E+02  0.69999986254E+02 0.  0.
        -12    1    1    2    0    0  0.37478158097E+01 -0.43015212715E+01 -0.17836209130E+02  0.18726440258E+02  0.00000000000E+00 0.  1.
         11    1    3    3    0    0 -0.10776777408E+02  0.17116151289E+02 -0.26573357628E+01  0.20400073526E+02  0.51100000000E-03 0.  1.
        -11    1    3    3    0    0  0.23008230720E+01 -0.12756680908E+02  0.34724756361E+02  0.37065285635E+02  0.51100000000E-03 0. -1.
         12    1    3    3    0    0  0.47281385260E+01 -0.57949109000E-01 -0.14231211468E+02  0.14996200581E+02  0.00000000000E+00 0. -1.
</event>
<event>
 7    1  0.2604986E-013  0.7246165E+02  0.7816164E-02  0.1226708E+00
        -11   -1    0    0    0    0  0.00000000000E+00  0.00000000000E+00  0.45593999997E+02  0.45594000000E+02  0.51100000000E-03 0. -1.
         11   -1    0    0    0    0 -0.00000000000E+00 -0.00000000000E+00 -0.45593999997E+02  0.45594000000E+02  0.51100000000E-03 0.  1.
    9900012    2    1    2    0    0  0.53644356562E+00 -0.12692922628E+02  0.13757843701E+02  0.72461646381E+02  0.70000099117E+02 0.  0.
        -12    1    1    2    0    0 -0.53644356562E+00  0.12692922628E+02 -0.13757843701E+02  0.18726353619E+02  0.00000000000E+00 0.  1.
         11    1    3    3    0    0 -0.62222790348E+00  0.13888927003E+02  0.76892254341E+01  0.15887531240E+02  0.51100000000E-03 0. -1.
        -11    1    3    3    0    0  0.43622808700E+01  0.14288231858E+02  0.42771986063E+01  0.15539546074E+02  0.51100000000E-03 0.  1.
         12    1    3    3    0    0 -0.32036094009E+01 -0.40870081489E+02  0.17914196607E+01  0.41034569067E+02  0.00000000000E+00 0. -1.
</event>
<event>
 7    1  0.2604986E-013  0.7246167E+02  0.7816164E-02  0.1226708E+00
        -11   -1    0    0    0    0  0.00000000000E+00  0.00000000000E+00  0.45593999997E+02  0.45594000000E+02  0.51100000000E-03 0.  1.
         11   -1    0    0    0    0 -0.00000000000E+00 -0.00000000000E+00 -0.45593999997E+02  0.45594000000E+02  0.51100000000E-03 0. -1.
    9900012    2    1    2    0    0  0.23862460151E+01  0.18309500708E+02 -0.31214692640E+01  0.72461666761E+02  0.70000125665E+02 0.  0.
        -12    1    1    2    0    0 -0.23862460151E+01 -0.18309500708E+02  0.31214692640E+01  0.18726333239E+02  0.00000000000E+00 0.  1.
         11    1    3    3    0    0  0.19924932555E+02 -0.56519527872E+01  0.22765788303E+01  0.20835794179E+02  0.51100000000E-03 0. -1.
        -11    1    3    3    0    0 -0.50931980631E+01 -0.14828413664E+01 -0.19340942040E+02  0.20055211898E+02  0.51100000000E-03 0.  1.
        -12    1    3    3    0    0 -0.12445488477E+02  0.25444294862E+02  0.13942893946E+02  0.31570660684E+02  0.00000000000E+00 0.  1.
</event>
<event>
 7    1  0.2604986E-013  0.7246151E+02  0.7816164E-02  0.1226708E+00
        -11   -1    0    0    0    0  0.00000000000E+00  0.00000000000E+00  0.45593999997E+02  0.45594000000E+02  0.51100000000E-03 0. -1.
         11   -1    0    0    0    0 -0.00000000000E+00 -0.00000000000E+00 -0.45593999997E+02  0.45594000000E+02  0.51100000000E-03 0.  1.
    9900012    2    1    2    0    0  0.95202492699E+01 -0.13304592216E+02  0.91123058942E+01  0.72461509701E+02  0.69999921066E+02 0.  0.
        -12    1    1    2    0    0 -0.95202492699E+01  0.13304592216E+02 -0.91123058942E+01  0.18726490299E+02  0.00000000000E+00 0.  1.
         11    1    3    3    0    0  0.21607879134E+02 -0.19450786742E+02 -0.38248309802E+01  0.29323418591E+02  0.51100000000E-03 0. -1.
        -11    1    3    3    0    0  0.97830490956E+01 -0.25138098530E+01  0.16500745301E+02  0.19346883091E+02  0.51100000000E-03 0.  1.
        -12    1    3    3    0    0 -0.21870678960E+02  0.86600043792E+01 -0.35636084267E+01  0.23791208020E+02  0.00000000000E+00 0.  1.
</event>
<event>
 7    1  0.2604986E-013  0.7246157E+02  0.7816164E-02  0.1226708E+00
        -11   -1    0    0    0    0  0.00000000000E+00  0.00000000000E+00  0.45593999997E+02  0.45594000000E+02  0.51100000000E-03 0.  1.
         11   -1    0    0    0    0 -0.00000000000E+00 -0.00000000000E+00 -0.45593999997E+02  0.45594000000E+02  0.51100000000E-03 0. -1.
    9900012    2    1    2    0    0 -0.11684856158E+02 -0.14233591617E+02 -0.33982421447E+01  0.72461573661E+02  0.70000004385E+02 0.  0.
        -12    1    1    2    0    0  0.11684856158E+02  0.14233591617E+02  0.33982421447E+01  0.18726426339E+02  0.00000000000E+00 0.  1.
         11    1    3    3    0    0 -0.35423345776E+02 -0.69535867408E+01  0.88723002325E+01  0.37173693739E+02  0.51100000000E-03 0. -1.
        -11    1    3    3    0    0  0.10001814036E+02  0.70541273986E+01 -0.59047617197E+00  0.12253393805E+02  0.51100000000E-03 0.  1.
        -12    1    3    3    0    0  0.13736675581E+02 -0.14334132275E+02 -0.11680066205E+02  0.23034486117E+02  0.00000000000E+00 0.  1.
</event>
<event>
 7    1  0.2604986E-013  0.7246155E+02  0.7816164E-02  0.1226708E+00
        -11   -1    0    0    0    0  0.00000000000E+00  0.00000000000E+00  0.45593999997E+02  0.45594000000E+02  0.51100000000E-03 0.  1.
         11   -1    0    0    0    0 -0.00000000000E+00 -0.00000000000E+00 -0.45593999997E+02  0.45594000000E+02  0.51100000000E-03 0. -1.
    9900012    2    1    2    0    0  0.98825914633E+00  0.88252873900E+01 -0.16486891907E+02  0.72461549231E+02  0.69999972561E+02 0.  0.
        -12    1    1    2    0    0 -0.98825914633E+00 -0.88252873900E+01  0.16486891907E+02  0.18726450769E+02  0.00000000000E+00 0.  1.
         11    1    3    3    0    0 -0.15445038642E+02 -0.43932178805E+01 -0.42456075196E+01  0.16609478182E+02  0.51100000000E-03 0. -1.
        -11    1    3    3    0    0 -0.13903425714E+02  0.18799312402E+02 -0.25551511152E+01  0.23521228515E+02  0.51100000000E-03 0.  1.
        -12    1    3    3    0    0  0.30336723503E+02 -0.55808071318E+01 -0.96861332723E+01  0.32330842533E+02  0.00000000000E+00 0.  1.
</event>
<event>
 7    1  0.2604986E-013  0.7246157E+02  0.7816164E-02  0.1226708E+00
        -11   -1    0    0    0    0  0.00000000000E+00  0.00000000000E+00  0.45593999997E+02  0.45594000000E+02  0.51100000000E-03 0.  1.
         11   -1    0    0    0    0 -0.00000000000E+00 -0.00000000000E+00 -0.45593999997E+02  0.45594000000E+02  0.51100000000E-03 0. -1.
    9900012    2    1    2    0    0  0.45559577619E-02  0.49479009005E+01 -0.18060938901E+02  0.72461567931E+02  0.69999996921E+02 0.  0.
        -12    1    1    2    0    0 -0.45559577619E-02 -0.49479009005E+01  0.18060938901E+02  0.18726432069E+02  0.00000000000E+00 0.  1.
         11    1    3    3    0    0  0.11966471401E+02  0.11022317820E+02 -0.12464570042E+02  0.20495205159E+02  0.51100000000E-03 0. -1.
        -11    1    3    3    0    0  0.61952785589E+01 -0.17640329148E+02 -0.18959964507E+02  0.26627860283E+02  0.51100000000E-03 0.  1.
         12    1    3    3    0    0 -0.18157194002E+02  0.11565912229E+02  0.13363595649E+02  0.25338502489E+02  0.00000000000E+00 0. -1.
</event>
<event>
 7    1  0.2604986E-013  0.7246158E+02  0.7816164E-02  0.1226708E+00
        -11   -1    0    0    0    0  0.00000000000E+00  0.00000000000E+00  0.45593999997E+02  0.45594000000E+02  0.51100000000E-03 0. -1.
         11   -1    0    0    0    0 -0.00000000000E+00 -0.00000000000E+00 -0.45593999997E+02  0.45594000000E+02  0.51100000000E-03 0.  1.
    9900012    2    1    2    0    0 -0.62007813662E+01  0.14513806081E+02  0.10078626427E+02  0.72461575698E+02  0.70000007039E+02 0.  0.
        -12    1    1    2    0    0  0.62007813662E+01 -0.14513806081E+02 -0.10078626427E+02  0.18726424302E+02  0.00000000000E+00 0.  1.
         11    1    3    3    0    0  0.16309812104E+01  0.82316483311E+01 -0.13285658429E+02  0.15713970030E+02  0.51100000000E-03 0. -1.
        -11    1    3    3    0    0  0.70549685034E+01 -0.85723051188E+00 -0.14109349453E+02  0.15798138086E+02  0.51100000000E-03 0.  1.
         12    1    3    3    0    0 -0.14886731080E+02  0.71393882615E+01  0.37473634308E+02  0.40949467582E+02  0.00000000000E+00 0. -1.
</event>
<event>
 7    1  0.2604986E-013  0.7246161E+02  0.7816164E-02  0.1226708E+00
        -11   -1    0    0    0    0  0.00000000000E+00  0.00000000000E+00  0.45593999997E+02  0.45594000000E+02  0.51100000000E-03 0. -1.
         11   -1    0    0    0    0 -0.00000000000E+00 -0.00000000000E+00 -0.45593999997E+02  0.45594000000E+02  0.51100000000E-03 0.  1.
    9900012    2    1    2    0    0  0.99206536963E+01 -0.15879368977E+02  0.32265602757E+00  0.72461605906E+02  0.70000046390E+02 0.  0.
        -12    1    1    2    0    0 -0.99206536963E+01  0.15879368977E+02 -0.32265602757E+00  0.18726394094E+02  0.00000000000E+00 0.  1.
         11    1    3    3    0    0  0.21086074982E+02 -0.66514918201E+01 -0.88677583739E+01  0.23822301325E+02  0.51100000000E-03 0.  1.
        -11    1    3    3    0    0 -0.18617135509E+00 -0.85731539383E+01 -0.17655424613E+02  0.19627726480E+02  0.51100000000E-03 0. -1.
         12    1    3    3    0    0 -0.10979249930E+02 -0.65472321860E+00  0.26845839015E+02  0.29011578101E+02  0.00000000000E+00 0. -1.
</event>
<event>
 7    1  0.2604986E-013  0.7246160E+02  0.7816164E-02  0.1226708E+00
        -11   -1    0    0    0    0  0.00000000000E+00  0.00000000000E+00  0.45593999997E+02  0.45594000000E+02  0.51100000000E-03 0. -1.
         11   -1    0    0    0    0 -0.00000000000E+00 -0.00000000000E+00 -0.45593999997E+02  0.45594000000E+02  0.51100000000E-03 0.  1.
    9900012    2    1    2    0    0  0.12122816297E+02  0.77302141804E+01  0.11998305368E+02  0.72461595702E+02  0.70000033098E+02 0.  0.
        -12    1    1    2    0    0 -0.12122816297E+02 -0.77302141804E+01 -0.11998305368E+02  0.18726404298E+02  0.00000000000E+00 0.  1.
         11    1    3    3    0    0  0.14092208696E+02  0.18327547619E+02  0.69481931808E+00  0.23129464365E+02  0.51100000000E-03 0.  1.
        -11    1    3    3    0    0 -0.12515656816E+02  0.78374856602E+01  0.21252287548E+02  0.25879095295E+02  0.51100000000E-03 0. -1.
         12    1    3    3    0    0  0.10546264416E+02 -0.18434819098E+02 -0.99488014987E+01  0.23453036042E+02  0.00000000000E+00 0. -1.
</event>
<event>
 7    1  0.2604986E-013  0.7246153E+02  0.7816164E-02  0.1226708E+00
        -11   -1    0    0    0    0  0.00000000000E+00  0.00000000000E+00  0.45593999997E+02  0.45594000000E+02  0.51100000000E-03 0.  1.
         11   -1    0    0    0    0 -0.00000000000E+00 -0.00000000000E+00 -0.45593999997E+02  0.45594000000E+02  0.51100000000E-03 0. -1.
    9900012    2    1    2    0    0 -0.18389938281E+02 -0.30546367680E+01  0.17776826676E+01  0.72461526989E+02  0.69999943586E+02 0.  0.
        -12    1    1    2    0    0  0.18389938281E+02  0.30546367680E+01 -0.17776826676E+01  0.18726473011E+02  0.00000000000E+00 0.  1.
         11    1    3    3    0    0 -0.15009473690E+02 -0.16100770337E+02 -0.14675193848E+02  0.26455253176E+02  0.51100000000E-03 0. -1.
        -11    1    3    3    0    0 -0.47960237725E+01 -0.14262448263E+02  0.23208448601E+01  0.15225163238E+02  0.51100000000E-03 0.  1.
         12    1    3    3    0    0  0.14155591812E+01  0.27308581832E+02  0.14132031655E+02  0.30781110575E+02  0.00000000000E+00 0. -1.
</event>
<event>
 7    1  0.2604986E-013  0.7246155E+02  0.7816164E-02  0.1226708E+00
        -11   -1    0    0    0    0  0.00000000000E+00  0.00000000000E+00  0.45593999997E+02  0.45594000000E+02  0.51100000000E-03 0.  1.
         11   -1    0    0    0    0 -0.00000000000E+00 -0.00000000000E+00 -0.45593999997E+02  0.45594000000E+02  0.51100000000E-03 0. -1.
    9900012    2    1    2    0    0  0.21576436861E+01 -0.18160022013E+02 -0.40296400761E+01  0.72461552794E+02  0.69999977203E+02 0.  0.
        -12    1    1    2    0    0 -0.21576436861E+01  0.18160022013E+02  0.40296400761E+01  0.18726447206E+02  0.00000000000E+00 0.  1.
         11    1    3    3    0    0  0.47322286865E+01  0.16604030872E+02 -0.30170048793E+01  0.17526840795E+02  0.51100000000E-03 0. -1.
        -11    1    3    3    0    0  0.13011761124E+01  0.47964267249E+01  0.12097598456E+02  0.13078633617E+02  0.51100000000E-03 0.  1.
        -12    1    3    3    0    0 -0.38757611128E+01 -0.39560479610E+02 -0.13110233653E+02  0.41856078383E+02  0.00000000000E+00 0.  1.
</event>
<event>
 7    1  0.2604986E-013  0.7246156E+02  0.7816164E-02  0.1226708E+00
        -11   -1    0    0    0    0  0.00000000000E+00  0.00000000000E+00  0.45593999997E+02  0.45594000000E+02  0.51100000000E-03 0. -1.
         11   -1    0    0    0    0 -0.00000000000E+00 -0.00000000000E+00 -0.45593999997E+02  0.45594000000E+02  0.51100000000E-03 0.  1.
    9900012    2    1    2    0    0  0.92673388247E+01  0.87571298560E+01  0.13715270086E+02  0.72461560783E+02  0.69999987610E+02 0.  0.
        -12    1    1    2    0    0 -0.92673388247E+01 -0.87571298560E+01 -0.13715270086E+02  0.18726439217E+02  0.00000000000E+00 0.  1.
         11    1    3    3    0    0 -0.23227521861E+00 -0.43683811899E+00  0.17506252536E+00  0.52481088812E+00  0.51100000000E-03 0. -1.
        -11    1    3    3    0    0  0.24654767530E+02 -0.70965310115E+01 -0.19414812367E+02  0.32173797629E+02  0.51100000000E-03 0.  1.
         12    1    3    3    0    0 -0.15155153487E+02  0.16290498987E+02  0.32955019928E+02  0.39762952266E+02  0.00000000000E+00 0. -1.
</event>
<event>
 7    1  0.2604986E-013  0.7246175E+02  0.7816164E-02  0.1226708E+00
        -11   -1    0    0    0    0  0.00000000000E+00  0.00000000000E+00  0.45593999997E+02  0.45594000000E+02  0.51100000000E-03 0.  1.
         11   -1    0    0    0    0 -0.00000000000E+00 -0.00000000000E+00 -0.45593999997E+02  0.45594000000E+02  0.51100000000E-03 0. -1.
    9900012    2    1    2    0    0  0.10570767506E+02 -0.11905128202E+02 -0.98589614628E+01  0.72461753064E+02  0.70000238091E+02 0.  0.
        -12    1    1    2    0    0 -0.10570767506E+02  0.11905128202E+02  0.98589614628E+01  0.18726246936E+02  0.00000000000E+00 0.  1.
         11    1    3    3    0    0 -0.55745002059E+01  0.12322445234E+02 -0.80326351861E+01  0.15730255477E+02  0.51100000000E-03 0.  1.
        -11    1    3    3    0    0  0.16157078389E+02  0.62520679759E+01 -0.15573255490E+02  0.23295188836E+02  0.51100000000E-03 0. -1.
         12    1    3    3    0    0 -0.11810677239E-01 -0.30479641412E+02  0.13746929214E+02  0.33436308751E+02  0.00000000000E+00 0. -1.
</event>
<event>
 7    1  0.2604986E-013  0.7246163E+02  0.7816164E-02  0.1226708E+00
        -11   -1    0    0    0    0  0.00000000000E+00  0.00000000000E+00  0.45593999997E+02  0.45594000000E+02  0.51100000000E-03 0.  1.
         11   -1    0    0    0    0 -0.00000000000E+00 -0.00000000000E+00 -0.45593999997E+02  0.45594000000E+02  0.51100000000E-03 0. -1.
    9900012    2    1    2    0    0  0.63461410737E+01 -0.13744923943E+02  0.11021813395E+02  0.72461633261E+02  0.70000082025E+02 0.  0.
        -12    1    1    2    0    0 -0.63461410737E+01  0.13744923943E+02 -0.11021813395E+02  0.18726366739E+02  0.00000000000E+00 0.  1.
         11    1    3    3    0    0  0.17573005707E+02 -0.23597381220E+02 -0.34080231905E+01  0.29618601459E+02  0.51100000000E-03 0. -1.
        -11    1    3    3    0    0  0.12191636278E+02 -0.14327357051E+01  0.11254703825E+02  0.16654041107E+02  0.51100000000E-03 0.  1.
        -12    1    3    3    0    0 -0.23418500911E+02  0.11285192982E+02  0.31751327605E+01  0.26188990695E+02  0.00000000000E+00 0.  1.
</event>
<event>
 7    1  0.2604986E-013  0.7246189E+02  0.7816164E-02  0.1226707E+00
        -11   -1    0    0    0    0  0.00000000000E+00  0.00000000000E+00  0.45593999997E+02  0.45594000000E+02  0.51100000000E-03 0. -1.
         11   -1    0    0    0    0 -0.00000000000E+00 -0.00000000000E+00 -0.45593999997E+02  0.45594000000E+02  0.51100000000E-03 0.  1.
    9900012    2    1    2    0    0 -0.67178529633E+01  0.13556951589E+01  0.17426982514E+02  0.72461890491E+02  0.70000417114E+02 0.  0.
        -12    1    1    2    0    0  0.67178529633E+01 -0.13556951589E+01 -0.17426982514E+02  0.18726109509E+02  0.00000000000E+00 0.  1.
         11    1    3    3    0    0  0.33766332760E+01  0.18779655346E+02 -0.10218290388E+02  0.21644642892E+02  0.51100000000E-03 0. -1.
        -11    1    3    3    0    0  0.81461081557E+01 -0.34338766966E+01 -0.55510149007E+01  0.10438599233E+02  0.51100000000E-03 0.  1.
         12    1    3    3    0    0 -0.18240594395E+02 -0.13990083491E+02  0.33196287803E+02  0.40378648366E+02  0.00000000000E+00 0. -1.
</event>
<event>
 7    1  0.2604986E-013  0.7246152E+02  0.7816164E-02  0.1226708E+00
        -11   -1    0    0    0    0  0.00000000000E+00  0.00000000000E+00  0.45593999997E+02  0.45594000000E+02  0.51100000000E-03 0. -1.
         11   -1    0    0    0    0 -0.00000000000E+00 -0.00000000000E+00 -0.45593999997E+02  0.45594000000E+02  0.51100000000E-03 0.  1.
    9900012    2    1    2    0    0  0.14945367250E+02  0.10991491362E+02  0.25503120176E+01  0.72461522062E+02  0.69999937168E+02 0.  0.
        -12    1    1    2    0    0 -0.14945367250E+02 -0.10991491362E+02 -0.25503120176E+01  0.18726477938E+02  0.00000000000E+00 0.  1.
         11    1    3    3    0    0  0.32137735929E+02  0.55930539206E+01  0.47310539310E+01  0.32962087227E+02  0.51100000000E-03 0. -1.
        -11    1    3    3    0    0  0.58135244333E+01 -0.93560548239E+01 -0.48562531263E+01  0.12038107114E+02  0.51100000000E-03 0.  1.
        -12    1    3    3    0    0 -0.23005893113E+02  0.14754492266E+02  0.26755112129E+01  0.27461327721E+02  0.00000000000E+00 0.  1.
</event>
<event>
 7    1  0.2604986E-013  0.7246156E+02  0.7816164E-02  0.1226708E+00
        -11   -1    0    0    0    0  0.00000000000E+00  0.00000000000E+00  0.45593999997E+02  0.45594000000E+02  0.51100000000E-03 0.  1.
         11   -1    0    0    0    0 -0.00000000000E+00 -0.00000000000E+00 -0.45593999997E+02  0.45594000000E+02  0.51100000000E-03 0. -1.
    9900012    2    1    2    0    0 -0.61845071704E+01 -0.59490851785E+01 -0.16644513638E+02  0.72461559397E+02  0.69999985805E+02 0.  0.
        -12    1    1    2    0    0  0.61845071704E+01  0.59490851785E+01  0.16644513638E+02  0.18726440603E+02  0.00000000000E+00 0.  1.
         11    1    3    3    0    0  0.28027648227E+01 -0.10739695232E+02  0.14957147787E+02  0.18625595682E+02  0.51100000000E-03 0. -1.
        -11    1    3    3    0    0  0.49168097256E+01 -0.11077546632E+02  0.37332478528E+01  0.12681648041E+02  0.51100000000E-03 0.  1.
         12    1    3    3    0    0 -0.13904081719E+02  0.15868156685E+02 -0.35334909277E+02  0.41154315675E+02  0.00000000000E+00 0. -1.
</event>
<event>
 7    1  0.2604986E-013  0.7246158E+02  0.7816164E-02  0.1226708E+00
        -11   -1    0    0    0    0  0.00000000000E+00  0.00000000000E+00  0.45593999997E+02  0.45594000000E+02  0.51100000000E-03 0. -1.
         11   -1    0    0    0    0 -0.00000000000E+00 -0.00000000000E+00 -0.45593999997E+02  0.45594000000E+02  0.51100000000E-03 0.  1.
    9900012    2    1    2    0    0  0.10896789614E+02 -0.16294668313E+01  0.15142113707E+02  0.72461580333E+02  0.70000013077E+02 0.  0.
        -12    1    1    2    0    0 -0.10896789614E+02  0.16294668313E+01 -0.15142113707E+02  0.18726419667E+02  0.00000000000E+00 0.  1.
         11    1    3    3    0    0 -0.20458320617E+01  0.14853661968E+02  0.97463973949E+01  0.17883203435E+02  0.51100000000E-03 0. -1.
        -11    1    3    3    0    0 -0.18127152517E+02 -0.13875314202E+02 -0.56353719871E+00  0.22834963915E+02  0.51100000000E-03 0.  1.
         12    1    3    3    0    0  0.31069774192E+02 -0.26078145970E+01  0.59592535110E+01  0.31743412982E+02  0.00000000000E+00 0. -1.
</event>
<event>
 7    1  0.2604986E-013  0.7246105E+02  0.7816164E-02  0.1226709E+00
        -11   -1    0    0    0    0  0.00000000000E+00  0.00000000000E+00  0.45593999997E+02  0.45594000000E+02  0.51100000000E-03 0. -1.
         11   -1    0    0    0    0 -0.00000000000E+00 -0.00000000000E+00 -0.45593999997E+02  0.45594000000E+02  0.51100000000E-03 0.  1.
    9900012    2    1    2    0    0 -0.42789149353E+00 -0.16568392977E+02 -0.87180317768E+01  0.72461045762E+02  0.69999316696E+02 0.  0.
        -12    1    1    2    0    0  0.42789149353E+00  0.16568392977E+02  0.87180317768E+01  0.18726954238E+02  0.00000000000E+00 0.  1.
         11    1    3    3    0    0  0.17416545392E+02 -0.31763470923E+01  0.54115602821E+01  0.18512434178E+02  0.51100000000E-03 0. -1.
        -11    1    3    3    0    0 -0.96120016705E+01  0.13949905120E+02  0.70985152818E+01  0.18367889058E+02  0.51100000000E-03 0.  1.
        -12    1    3    3    0    0 -0.82324352147E+01 -0.27341951004E+02 -0.21228107341E+02  0.35580722527E+02  0.00000000000E+00 0.  1.
</event>
<event>
 7    1  0.2604986E-013  0.7246156E+02  0.7816164E-02  0.1226708E+00
        -11   -1    0    0    0    0  0.00000000000E+00  0.00000000000E+00  0.45593999997E+02  0.45594000000E+02  0.51100000000E-03 0.  1.
         11   -1    0    0    0    0 -0.00000000000E+00 -0.00000000000E+00 -0.45593999997E+02  0.45594000000E+02  0.51100000000E-03 0. -1.
    9900012    2    1    2    0    0 -0.37900985271E+01  0.61924794837E+01 -0.17261746554E+02  0.72461560320E+02  0.69999987007E+02 0.  0.
        -12    1    1    2    0    0  0.37900985271E+01 -0.61924794837E+01  0.17261746554E+02  0.18726439680E+02  0.00000000000E+00 0.  1.
         11    1    3    3    0    0  0.19079696720E+02 -0.77695314258E+01 -0.15933801013E+02  0.26043933276E+02  0.51100000000E-03 0. -1.
        -11    1    3    3    0    0 -0.40095238326E+01 -0.86202994849E+00  0.16197727947E+02  0.16708852980E+02  0.51100000000E-03 0.  1.
        -12    1    3    3    0    0 -0.18860271415E+02  0.14824040858E+02 -0.17525673487E+02  0.29708774064E+02  0.00000000000E+00 0.  1.
</event>
<event>
 7    1  0.2604986E-013  0.7246156E+02  0.7816164E-02  0.1226708E+00
        -11   -1    0    0    0    0  0.00000000000E+00  0.00000000000E+00  0.45593999997E+02  0.45594000000E+02  0.51100000000E-03 0.  1.
         11   -1    0    0    0    0 -0.00000000000E+00 -0.00000000000E+00 -0.45593999997E+02  0.45594000000E+02  0.51100000000E-03 0. -1.
    9900012    2    1    2    0    0 -0.13865402934E+02 -0.58737753417E+01 -0.11132330085E+02  0.72461563916E+02  0.69999991691E+02 0.  0.
        -12    1    1    2    0    0  0.13865402934E+02  0.58737753417E+01  0.11132330085E+02  0.18726436084E+02  0.00000000000E+00 0.  1.
         11    1    3    3    0    0  0.71731976407E+01 -0.20956825507E+02 -0.21085411895E+02  0.30581659451E+02  0.51100000000E-03 0. -1.
        -11    1    3    3    0    0 -0.12137427359E+02 -0.61778454549E+01  0.12757271498E+02  0.18660945681E+02  0.51100000000E-03 0.  1.
        -12    1    3    3    0    0 -0.89011732162E+01  0.21260895621E+02 -0.28041896884E+01  0.23218958784E+02  0.00000000000E+00 0.  1.
</event>
<event>
 7    1  0.2604986E-013  0.7246158E+02  0.7816164E-02  0.1226708E+00
        -11   -1    0    0    0    0  0.00000000000E+00  0.00000000000E+00  0.45593999997E+02  0.45594000000E+02  0.51100000000E-03 0.  1.
         11   -1    0    0    0    0 -0.00000000000E+00 -0.00000000000E+00 -0.45593999997E+02  0.45594000000E+02  0.51100000000E-03 0. -1.
    9900012    2    1    2    0    0 -0.17033724242E+02  0.41571742848E+01 -0.65763925099E+01  0.72461580213E+02  0.70000012921E+02 0.  0.
        -12    1    1    2    0    0  0.17033724242E+02 -0.41571742848E+01  0.65763925099E+01  0.18726419787E+02  0.00000000000E+00 0.  1.
         11    1    3    3    0    0 -0.12054798288E+02  0.77163661057E+01 -0.10939907095E+02  0.18015050240E+02  0.51100000000E-03 0. -1.
        -11    1    3    3    0    0 -0.12077547717E+02  0.10620941810E+02 -0.19821827107E+02  0.25525994475E+02  0.51100000000E-03 0.  1.
        -12    1    3    3    0    0  0.70986217630E+01 -0.14180133631E+02  0.24185341693E+02  0.28920535498E+02  0.00000000000E+00 0.  1.
</event>
<event>
 7    1  0.2604986E-013  0.7246160E+02  0.7816164E-02  0.1226708E+00
        -11   -1    0    0    0    0  0.00000000000E+00  0.00000000000E+00  0.45593999997E+02  0.45594000000E+02  0.51100000000E-03 0. -1.
         11   -1    0    0    0    0 -0.00000000000E+00 -0.00000000000E+00 -0.45593999997E+02  0.45594000000E+02  0.51100000000E-03 0.  1.
    9900012    2    1    2    0    0 -0.55709701119E+01  0.17497069321E+02  0.36735409601E+01  0.72461600292E+02  0.70000039078E+02 0.  0.
        -12    1    1    2    0    0  0.55709701119E+01 -0.17497069321E+02 -0.36735409601E+01  0.18726399708E+02  0.00000000000E+00 0.  1.
         11    1    3    3    0    0 -0.12078970237E+02  0.29860513582E+01  0.27676825141E+02  0.30345093094E+02  0.51100000000E-03 0. -1.
        -11    1    3    3    0    0  0.48395962973E+01 -0.90917204746E+01 -0.37190507522E+01  0.10950452606E+02  0.51100000000E-03 0.  1.
        -12    1    3    3    0    0  0.16684038274E+01  0.23602738438E+02 -0.20284233429E+02  0.31166054593E+02  0.00000000000E+00 0.  1.
</event>
<event>
 7    1  0.2604986E-013  0.7246153E+02  0.7816164E-02  0.1226708E+00
        -11   -1    0    0    0    0  0.00000000000E+00  0.00000000000E+00  0.45593999997E+02  0.45594000000E+02  0.51100000000E-03 0.  1.
         11   -1    0    0    0    0 -0.00000000000E+00 -0.00000000000E+00 -0.45593999997E+02  0.45594000000E+02  0.51100000000E-03 0. -1.
    9900012    2    1    2    0    0  0.18099151172E+02 -0.29336985555E+01 -0.38071894552E+01  0.72461533385E+02  0.69999951918E+02 0.  0.
        -12    1    1    2    0    0 -0.18099151172E+02  0.29336985555E+01  0.38071894552E+01  0.18726466615E+02  0.00000000000E+00 0.  1.
         11    1    3    3    0    0  0.15970930448E+01  0.67675525368E+01 -0.14795910985E+02  0.16348377768E+02  0.51100000000E-03 0. -1.
        -11    1    3    3    0    0  0.22732041617E+00  0.15289812109E+02  0.19798315470E+02  0.25016061333E+02  0.51100000000E-03 0.  1.
        -12    1    3    3    0    0  0.16274737711E+02 -0.24991063201E+02 -0.88095939402E+01  0.31097094284E+02  0.00000000000E+00 0.  1.
</event>
<event>
 7    1  0.2604986E-013  0.7246155E+02  0.7816164E-02  0.1226708E+00
        -11   -1    0    0    0    0  0.00000000000E+00  0.00000000000E+00  0.45593999997E+02  0.45594000000E+02  0.51100000000E-03 0.  1.
         11   -1    0    0    0    0 -0.00000000000E+00 -0.00000000000E+00 -0.45593999997E+02  0.45594000000E+02  0.51100000000E-03 0. -1.
    9900012    2    1    2    0    0 -0.30682518517E+00  0.16957196653E+02 -0.79397183876E+01  0.72461553778E+02  0.69999978485E+02 0.  0.
        -12    1    1    2    0    0  0.30682518517E+00 -0.16957196653E+02  0.79397183876E+01  0.18726446222E+02  0.00000000000E+00 0.  1.
         11    1    3    3    0    0 -0.29031052840E+00 -0.19072419566E+02 -0.56754911507E+00  0.19083070522E+02  0.51100000000E-03 0. -1.
        -11    1    3    3    0    0  0.41681162551E+01 -0.76181030961E+01 -0.34907568541E+01  0.93591704533E+01  0.51100000000E-03 0.  1.
        -12    1    3    3    0    0 -0.41846309119E+01  0.43647719315E+02 -0.38814124184E+01  0.44019312803E+02  0.00000000000E+00 0.  1.
</event>
<event>
 7    1  0.2604986E-013  0.7246085E+02  0.7816164E-02  0.1226710E+00
        -11   -1    0    0    0    0  0.00000000000E+00  0.00000000000E+00  0.45593999997E+02  0.45594000000E+02  0.51100000000E-03 0. -1.
         11   -1    0    0    0    0 -0.00000000000E+00 -0.00000000000E+00 -0.45593999997E+02  0.45594000000E+02  0.51100000000E-03 0.  1.
    9900012    2    1    2    0    0  0.18666516975E+02  0.71486012391E+00  0.13252298914E+01  0.72460850852E+02  0.69999062786E+02 0.  0.
        -12    1    1    2    0    0 -0.18666516975E+02 -0.71486012391E+00 -0.13252298914E+01  0.18727149148E+02  0.00000000000E+00 0.  1.
         11    1    3    3    0    0 -0.45312551034E+01  0.72040416666E+01  0.22514699843E+01  0.88033860814E+01  0.51100000000E-03 0.  1.
        -11    1    3    3    0    0  0.30555166482E+01  0.23586673221E+02 -0.10824127838E+02  0.26130998438E+02  0.51100000000E-03 0. -1.
         12    1    3    3    0    0  0.20142255430E+02 -0.30075854764E+02  0.98978877450E+01  0.37526466332E+02  0.00000000000E+00 0. -1.
</event>
<event>
 7    1  0.2604986E-013  0.7246152E+02  0.7816164E-02  0.1226708E+00
        -11   -1    0    0    0    0  0.00000000000E+00  0.00000000000E+00  0.45593999997E+02  0.45594000000E+02  0.51100000000E-03 0. -1.
         11   -1    0    0    0    0 -0.00000000000E+00 -0.00000000000E+00 -0.45593999997E+02  0.45594000000E+02  0.51100000000E-03 0.  1.
    9900012    2    1    2    0    0 -0.10108868630E+02  0.14600710000E+02 -0.59423008921E+01  0.72461524160E+02  0.69999939901E+02 0.  0.
        -12    1    1    2    0    0  0.10108868630E+02 -0.14600710000E+02  0.59423008921E+01  0.18726475840E+02  0.00000000000E+00 0.  1.
         11    1    3    3    0    0 -0.19603234146E+02 -0.19615553364E+02 -0.51360583868E+01  0.28203471751E+02  0.51100000000E-03 0. -1.
        -11    1    3    3    0    0  0.50621707413E+01  0.51230132477E+00 -0.80286766869E+01  0.95051393922E+01  0.51100000000E-03 0.  1.
        -12    1    3    3    0    0  0.44321947747E+01  0.33703962039E+02  0.72224341816E+01  0.34752913017E+02  0.00000000000E+00 0.  1.
</event>
<event>
 7    1  0.2604986E-013  0.7246151E+02  0.7816164E-02  0.1226708E+00
        -11   -1    0    0    0    0  0.00000000000E+00  0.00000000000E+00  0.45593999997E+02  0.45594000000E+02  0.51100000000E-03 0. -1.
         11   -1    0    0    0    0 -0.00000000000E+00 -0.00000000000E+00 -0.45593999997E+02  0.45594000000E+02  0.51100000000E-03 0.  1.
    9900012    2    1    2    0    0 -0.95435781682E+01  0.12291711418E+02 -0.10417075002E+02  0.72461507925E+02  0.69999918753E+02 0.  0.
        -12    1    1    2    0    0  0.95435781682E+01 -0.12291711418E+02  0.10417075002E+02  0.18726492075E+02  0.00000000000E+00 0.  1.
         11    1    3    3    0    0 -0.14287778686E+02  0.42511691668E+01  0.13252379613E+02  0.19945892428E+02  0.51100000000E-03 0. -1.
        -11    1    3    3    0    0  0.12854456321E+02  0.23653526410E+02 -0.60012037621E+01  0.27581530157E+02  0.51100000000E-03 0.  1.
        -12    1    3    3    0    0 -0.81102558036E+01 -0.15612984160E+02 -0.17668250853E+02  0.24934085341E+02  0.00000000000E+00 0.  1.
</event>
<event>
 7    1  0.2604986E-013  0.7246157E+02  0.7816164E-02  0.1226708E+00
        -11   -1    0    0    0    0  0.00000000000E+00  0.00000000000E+00  0.45593999997E+02  0.45594000000E+02  0.51100000000E-03 0. -1.
         11   -1    0    0    0    0 -0.00000000000E+00 -0.00000000000E+00 -0.45593999997E+02  0.45594000000E+02  0.51100000000E-03 0.  1.
    9900012    2    1    2    0    0 -0.12609059017E+02  0.62886373523E+01  0.12334655749E+02  0.72461573179E+02  0.70000003757E+02 0.  0.
        -12    1    1    2    0    0  0.12609059017E+02 -0.62886373523E+01 -0.12334655749E+02  0.18726426821E+02  0.00000000000E+00 0.  1.
         11    1    3    3    0    0 -0.44431607420E+01  0.21133529456E+02  0.30934345679E+02  0.37726668121E+02  0.51100000000E-03 0. -1.
        -11    1    3    3    0    0  0.76540936333E+01 -0.28392784553E+01 -0.10479137309E+01  0.82307214108E+01  0.51100000000E-03 0.  1.
        -12    1    3    3    0    0 -0.15819991909E+02 -0.12005613648E+02 -0.17551776199E+02  0.26504183647E+02  0.00000000000E+00 0.  1.
</event>
<event>
 7    1  0.2604986E-013  0.7246151E+02  0.7816164E-02  0.1226708E+00
        -11   -1    0    0    0    0  0.00000000000E+00  0.00000000000E+00  0.45593999997E+02  0.45594000000E+02  0.51100000000E-03 0.  1.
         11   -1    0    0    0    0 -0.00000000000E+00 -0.00000000000E+00 -0.45593999997E+02  0.45594000000E+02  0.51100000000E-03 0. -1.
    9900012    2    1    2    0    0  0.77003918737E+01 -0.16435645651E+02 -0.46103164334E+01  0.72461508054E+02  0.69999918921E+02 0.  0.
        -12    1    1    2    0    0 -0.77003918737E+01  0.16435645651E+02  0.46103164334E+01  0.18726491946E+02  0.00000000000E+00 0.  1.
         11    1    3    3    0    0 -0.98714956502E+00 -0.15905008183E+02 -0.29266310493E+02  0.33323575433E+02  0.51100000000E-03 0. -1.
        -11    1    3    3    0    0 -0.53600197769E+01  0.66589208667E+00 -0.43185515766E+01  0.69154256746E+01  0.51100000000E-03 0.  1.
        -12    1    3    3    0    0  0.14047561216E+02 -0.11965295552E+01  0.28974545636E+02  0.32222506946E+02  0.00000000000E+00 0.  1.
</event>
<event>
 7    1  0.2604986E-013  0.7246154E+02  0.7816164E-02  0.1226708E+00
        -11   -1    0    0    0    0  0.00000000000E+00  0.00000000000E+00  0.45593999997E+02  0.45594000000E+02  0.51100000000E-03 0.  1.
         11   -1    0    0    0    0 -0.00000000000E+00 -0.00000000000E+00 -0.45593999997E+02  0.45594000000E+02  0.51100000000E-03 0. -1.
    9900012    2    1    2    0    0  0.11143085059E+02  0.97794511089E+01 -0.11440032449E+02  0.72461538747E+02  0.69999958904E+02 0.  0.
        -12    1    1    2    0    0 -0.11143085059E+02 -0.97794511089E+01  0.11440032449E+02  0.18726461253E+02  0.00000000000E+00 0.  1.
         11    1    3    3    0    0 -0.13045417767E+02  0.44315329701E+01 -0.49950931822E+01  0.14655113966E+02  0.51100000000E-03 0. -1.
        -11    1    3    3    0    0 -0.32276784777E+01 -0.46216863924E+01 -0.23396684791E+02  0.24066216008E+02  0.51100000000E-03 0.  1.
        -12    1    3    3    0    0  0.27416181304E+02  0.99696045312E+01  0.16951745524E+02  0.33740208774E+02  0.00000000000E+00 0.  1.
</event>
<event>
 7    1  0.2604986E-013  0.7246155E+02  0.7816164E-02  0.1226708E+00
        -11   -1    0    0    0    0  0.00000000000E+00  0.00000000000E+00  0.45593999997E+02  0.45594000000E+02  0.51100000000E-03 0. -1.
         11   -1    0    0    0    0 -0.00000000000E+00 -0.00000000000E+00 -0.45593999997E+02  0.45594000000E+02  0.51100000000E-03 0.  1.
    9900012    2    1    2    0    0 -0.17593804707E+02 -0.31313280806E+01  0.55975551038E+01  0.72461553387E+02  0.69999977975E+02 0.  0.
        -12    1    1    2    0    0  0.17593804707E+02  0.31313280806E+01 -0.55975551038E+01  0.18726446613E+02  0.00000000000E+00 0.  1.
         11    1    3    3    0    0 -0.16625085585E+02  0.99896577759E+01 -0.75788771151E+00  0.19410335577E+02  0.51100000000E-03 0. -1.
        -11    1    3    3    0    0  0.10475234081E+01 -0.40948551254E+00 -0.21938622759E+02  0.21967433908E+02  0.51100000000E-03 0.  1.
         12    1    3    3    0    0 -0.20162425305E+01 -0.12711500344E+02  0.28294065574E+02  0.31083783902E+02  0.00000000000E+00 0. -1.
</event>
<event>
 7    1  0.2604986E-013  0.7246157E+02  0.7816164E-02  0.1226708E+00
        -11   -1    0    0    0    0  0.00000000000E+00  0.00000000000E+00  0.45593999997E+02  0.45594000000E+02  0.51100000000E-03 0.  1.
         11   -1    0    0    0    0 -0.00000000000E+00 -0.00000000000E+00 -0.45593999997E+02  0.45594000000E+02  0.51100000000E-03 0. -1.
    9900012    2    1    2    0    0  0.18498168936E+02 -0.15423640626E+01 -0.24734517184E+01  0.72461572036E+02  0.70000002269E+02 0.  0.
        -12    1    1    2    0    0 -0.18498168936E+02  0.15423640626E+01  0.24734517184E+01  0.18726427964E+02  0.00000000000E+00 0.  1.
         11    1    3    3    0    0 -0.84667425197E+00 -0.12451650645E+02  0.96386663369E+01  0.15769094777E+02  0.51100000000E-03 0.  1.
        -11    1    3    3    0    0 -0.88874975068E+01  0.16031960473E+02 -0.19804691260E+02  0.26985869723E+02  0.51100000000E-03 0. -1.
         12    1    3    3    0    0  0.28232340694E+02 -0.51226738907E+01  0.76925732043E+01  0.29706607537E+02  0.00000000000E+00 0. -1.
</event>
<event>
 7    1  0.2604986E-013  0.7246159E+02  0.7816164E-02  0.1226708E+00
        -11   -1    0    0    0    0  0.00000000000E+00  0.00000000000E+00  0.45593999997E+02  0.45594000000E+02  0.51100000000E-03 0. -1.
         11   -1    0    0    0    0 -0.00000000000E+00 -0.00000000000E+00 -0.45593999997E+02  0.45594000000E+02  0.51100000000E-03 0.  1.
    9900012    2    1    2    0    0  0.89747693431E+01  0.63262785382E+01  0.15169377255E+02  0.72461593746E+02  0.70000030550E+02 0.  0.
        -12    1    1    2    0    0 -0.89747693431E+01 -0.63262785382E+01 -0.15169377255E+02  0.18726406254E+02  0.00000000000E+00 0.  1.
         11    1    3    3    0    0 -0.14617881109E+00 -0.51292127578E+01  0.89005451882E+01  0.10273747937E+02  0.51100000000E-03 0. -1.
        -11    1    3    3    0    0  0.29982318531E+02  0.94536926300E+01 -0.12714452702E+02  0.33911193382E+02  0.51100000000E-03 0.  1.
         12    1    3    3    0    0 -0.20861370377E+02  0.20017986660E+01  0.18983284768E+02  0.28276652427E+02  0.00000000000E+00 0. -1.
</event>
<event>
 7    1  0.2604986E-013  0.7246155E+02  0.7816164E-02  0.1226708E+00
        -11   -1    0    0    0    0  0.00000000000E+00  0.00000000000E+00  0.45593999997E+02  0.45594000000E+02  0.51100000000E-03 0. -1.
         11   -1    0    0    0    0 -0.00000000000E+00 -0.00000000000E+00 -0.45593999997E+02  0.45594000000E+02  0.51100000000E-03 0.  1.
    9900012    2    1    2    0    0 -0.40512679429E+01 -0.17979002683E+02 -0.33200392373E+01  0.72461548923E+02  0.69999972160E+02 0.  0.
        -12    1    1    2    0    0  0.40512679429E+01  0.17979002683E+02  0.33200392373E+01  0.18726451077E+02  0.00000000000E+00 0.  1.
         11    1    3    3    0    0 -0.72394008362E+01 -0.19174071734E+02 -0.15607841817E+02  0.25761573667E+02  0.51100000000E-03 0. -1.
        -11    1    3    3    0    0 -0.17129541947E+02 -0.59083278008E+01 -0.53276337484E+01  0.18886853267E+02  0.51100000000E-03 0.  1.
         12    1    3    3    0    0  0.20317674840E+02  0.71033968526E+01  0.17615436328E+02  0.27813121989E+02  0.00000000000E+00 0. -1.
</event>
<event>
 7    1  0.2604986E-013  0.7246155E+02  0.7816164E-02  0.1226708E+00
        -11   -1    0    0    0    0  0.00000000000E+00  0.00000000000E+00  0.45593999997E+02  0.45594000000E+02  0.51100000000E-03 0. -1.
         11   -1    0    0    0    0 -0.00000000000E+00 -0.00000000000E+00 -0.45593999997E+02  0.45594000000E+02  0.51100000000E-03 0.  1.
    9900012    2    1    2    0    0 -0.16382729111E+02  0.77984264357E+01 -0.46336282070E+01  0.72461554038E+02  0.69999978823E+02 0.  0.
        -12    1    1    2    0    0  0.16382729111E+02 -0.77984264357E+01  0.46336282070E+01  0.18726445962E+02  0.00000000000E+00 0.  1.
         11    1    3    3    0    0  0.75483741129E+01 -0.32859541758E+01 -0.26112039648E+01  0.86367721401E+01  0.51100000000E-03 0. -1.
        -11    1    3    3    0    0  0.26070736161E+01  0.26804665194E+02 -0.14459011511E+02  0.30567137961E+02  0.51100000000E-03 0.  1.
         12    1    3    3    0    0 -0.26538176840E+02 -0.15720284582E+02  0.12436587269E+02  0.33257643937E+02  0.00000000000E+00 0. -1.
</event>
<event>
 7    1  0.2604986E-013  0.7246159E+02  0.7816164E-02  0.1226708E+00
        -11   -1    0    0    0    0  0.00000000000E+00  0.00000000000E+00  0.45593999997E+02  0.45594000000E+02  0.51100000000E-03 0. -1.
         11   -1    0    0    0    0 -0.00000000000E+00 -0.00000000000E+00 -0.45593999997E+02  0.45594000000E+02  0.51100000000E-03 0.  1.
    9900012    2    1    2    0    0  0.42308922232E+01 -0.14513791137E+02  0.11051147746E+02  0.72461589541E+02  0.70000025073E+02 0.  0.
        -12    1    1    2    0    0 -0.42308922232E+01  0.14513791137E+02 -0.11051147746E+02  0.18726410459E+02  0.00000000000E+00 0.  1.
         11    1    3    3    0    0 -0.10071491494E+02  0.49474697927E+01  0.17961464128E+02  0.21178446406E+02  0.51100000000E-03 0. -1.
        -11    1    3    3    0    0  0.11270140812E+02  0.81687851618E+01 -0.16766663736E+02  0.21791423498E+02  0.51100000000E-03 0.  1.
         12    1    3    3    0    0  0.30322429050E+01 -0.27630046092E+02  0.98563473537E+01  0.29491719638E+02  0.00000000000E+00 0. -1.
</event>
<event>
 7    1  0.2604986E-013  0.7246156E+02  0.7816164E-02  0.1226708E+00
        -11   -1    0    0    0    0  0.00000000000E+00  0.00000000000E+00  0.45593999997E+02  0.45594000000E+02  0.51100000000E-03 0.  1.
         11   -1    0    0    0    0 -0.00000000000E+00 -0.00000000000E+00 -0.45593999997E+02  0.45594000000E+02  0.51100000000E-03 0. -1.
    9900012    2    1    2    0    0 -0.98561625828E+01 -0.36738575562E+01 -0.15493166800E+02  0.72461564469E+02  0.69999992411E+02 0.  0.
        -12    1    1    2    0    0  0.98561625828E+01  0.36738575562E+01  0.15493166800E+02  0.18726435531E+02  0.00000000000E+00 0.  1.
         11    1    3    3    0    0 -0.78446943497E+01 -0.18002445651E+01  0.43328114405E+01  0.91407529873E+01  0.51100000000E-03 0. -1.
        -11    1    3    3    0    0 -0.26666884013E+02 -0.16598840877E+02 -0.98373934312E+01  0.32915323653E+02  0.51100000000E-03 0.  1.
         12    1    3    3    0    0  0.24655415780E+02  0.14725227886E+02 -0.99885848098E+01  0.30405487828E+02  0.00000000000E+00 0. -1.
</event>
<event>
 7    1  0.2604986E-013  0.7246158E+02  0.7816164E-02  0.1226708E+00
        -11   -1    0    0    0    0  0.00000000000E+00  0.00000000000E+00  0.45593999997E+02  0.45594000000E+02  0.51100000000E-03 0.  1.
         11   -1    0    0    0    0 -0.00000000000E+00 -0.00000000000E+00 -0.45593999997E+02  0.45594000000E+02  0.51100000000E-03 0. -1.
    9900012    2    1    2    0    0 -0.15000950130E+02  0.75823887473E+01 -0.82557615076E+01  0.72461582244E+02  0.70000015566E+02 0.  0.
        -12    1    1    2    0    0  0.15000950130E+02 -0.75823887473E+01  0.82557615076E+01  0.18726417756E+02  0.00000000000E+00 0.  1.
         11    1    3    3    0    0 -0.25599915832E+02  0.26187033995E+01 -0.16819466960E+02  0.30742605081E+02  0.51100000000E-03 0. -1.
        -11    1    3    3    0    0  0.12722689336E+02 -0.10256354769E+02 -0.87761259458E+01  0.18549394167E+02  0.51100000000E-03 0.  1.
        -12    1    3    3    0    0 -0.21237236341E+01  0.15220040117E+02  0.17339831398E+02  0.23169582995E+02  0.00000000000E+00 0.  1.
</event>
<event>
 7    1  0.2604986E-013  0.7246168E+02  0.7816164E-02  0.1226708E+00
        -11   -1    0    0    0    0  0.00000000000E+00  0.00000000000E+00  0.45593999997E+02  0.45594000000E+02  0.51100000000E-03 0.  1.
         11   -1    0    0    0    0 -0.00000000000E+00 -0.00000000000E+00 -0.45593999997E+02  0.45594000000E+02  0.51100000000E-03 0. -1.
    9900012    2    1    2    0    0 -0.13546775845E+02  0.56212663230E+00 -0.12916812369E+02  0.72461677245E+02  0.70000139323E+02 0.  0.
        -12    1    1    2    0    0  0.13546775845E+02 -0.56212663230E+00  0.12916812369E+02  0.18726322755E+02  0.00000000000E+00 0.  1.
         11    1    3    3    0    0  0.96116075423E+01 -0.83631050805E+01  0.27068304265E+00  0.12743539371E+02  0.51100000000E-03 0. -1.
        -11    1    3    3    0    0 -0.13788041472E+02 -0.13535450974E+02  0.13522607547E+02  0.23583456825E+02  0.51100000000E-03 0.  1.
        -12    1    3    3    0    0 -0.93703419155E+01  0.22460682687E+02 -0.26710102959E+02  0.36134681048E+02  0.00000000000E+00 0.  1.
</event>
<event>
 7    1  0.2604986E-013  0.7246152E+02  0.7816164E-02  0.1226708E+00
        -11   -1    0    0    0    0  0.00000000000E+00  0.00000000000E+00  0.45593999997E+02  0.45594000000E+02  0.51100000000E-03 0. -1.
         11   -1    0    0    0    0 -0.00000000000E+00 -0.00000000000E+00 -0.45593999997E+02  0.45594000000E+02  0.51100000000E-03 0.  1.
    9900012    2    1    2    0    0 -0.14866979460E+02  0.34722276613E+01  0.10844243763E+02  0.72461519659E+02  0.69999934038E+02 0.  0.
        -12    1    1    2    0    0  0.14866979460E+02 -0.34722276613E+01 -0.10844243763E+02  0.18726480341E+02  0.00000000000E+00 0.  1.
         11    1    3    3    0    0  0.38853076884E+01 -0.54951939653E+01  0.70630607450E+01  0.97560032748E+01  0.51100000000E-03 0. -1.
        -11    1    3    3    0    0  0.78544421632E+01 -0.20483923534E+02  0.66167968494E+01  0.22914305266E+02  0.51100000000E-03 0.  1.
        -12    1    3    3    0    0 -0.26606729311E+02  0.29451345160E+02 -0.28356138316E+01  0.39791211118E+02  0.00000000000E+00 0.  1.
</event>
<event>
 7    1  0.2604986E-013  0.7246154E+02  0.7816164E-02  0.1226708E+00
        -11   -1    0    0    0    0  0.00000000000E+00  0.00000000000E+00  0.45593999997E+02  0.45594000000E+02  0.51100000000E-03 0.  1.
         11   -1    0    0    0    0 -0.00000000000E+00 -0.00000000000E+00 -0.45593999997E+02  0.45594000000E+02  0.51100000000E-03 0. -1.
    9900012    2    1    2    0    0  0.10330128003E+02 -0.53032882587E+01 -0.14691620989E+02  0.72461544430E+02  0.69999966307E+02 0.  0.
        -12    1    1    2    0    0 -0.10330128003E+02  0.53032882587E+01  0.14691620989E+02  0.18726455570E+02  0.00000000000E+00 0.  1.
         11    1    3    3    0    0  0.17156465275E+01 -0.14930377447E+00 -0.11766458201E+02  0.11891815399E+02  0.51100000000E-03 0. -1.
        -11    1    3    3    0    0  0.22468994153E+02  0.19471967460E+02  0.71350813720E+01  0.30576504075E+02  0.51100000000E-03 0.  1.
         12    1    3    3    0    0 -0.13854512677E+02 -0.24625951945E+02 -0.10060244160E+02  0.29993224956E+02  0.00000000000E+00 0. -1.
</event>
<event>
 7    1  0.2604986E-013  0.7246154E+02  0.7816164E-02  0.1226708E+00
        -11   -1    0    0    0    0  0.00000000000E+00  0.00000000000E+00  0.45593999997E+02  0.45594000000E+02  0.51100000000E-03 0.  1.
         11   -1    0    0    0    0 -0.00000000000E+00 -0.00000000000E+00 -0.45593999997E+02  0.45594000000E+02  0.51100000000E-03 0. -1.
    9900012    2    1    2    0    0 -0.26299322730E+01  0.10220335988E+02 -0.15469596061E+02  0.72461542413E+02  0.69999963679E+02 0.  0.
        -12    1    1    2    0    0  0.26299322730E+01 -0.10220335988E+02  0.15469596061E+02  0.18726457587E+02  0.00000000000E+00 0.  1.
         11    1    3    3    0    0  0.27561569036E+00  0.27768477356E+02 -0.24814966885E+02  0.37241735733E+02  0.51100000000E-03 0. -1.
        -11    1    3    3    0    0  0.55031288528E+01  0.61548149446E+01 -0.35441132703E+00  0.82638841850E+01  0.51100000000E-03 0.  1.
        -12    1    3    3    0    0 -0.84086768162E+01 -0.23702956312E+02  0.96997821511E+01  0.26955922494E+02  0.00000000000E+00 0.  1.
</event>
<event>
 7    1  0.2604986E-013  0.7246157E+02  0.7816164E-02  0.1226708E+00
        -11   -1    0    0    0    0  0.00000000000E+00  0.00000000000E+00  0.45593999997E+02  0.45594000000E+02  0.51100000000E-03 0.  1.
         11   -1    0    0    0    0 -0.00000000000E+00 -0.00000000000E+00 -0.45593999997E+02  0.45594000000E+02  0.51100000000E-03 0. -1.
    9900012    2    1    2    0    0 -0.39060033123E+01 -0.10747442604E+02 -0.14829518502E+02  0.72461574730E+02  0.70000005778E+02 0.  0.
        -12    1    1    2    0    0  0.39060033123E+01  0.10747442604E+02  0.14829518502E+02  0.18726425270E+02  0.00000000000E+00 0.  1.
         11    1    3    3    0    0  0.78705137270E+01  0.55883762751E+01 -0.19612060714E+01  0.98499373213E+01  0.51100000000E-03 0. -1.
        -11    1    3    3    0    0  0.11606852702E+02 -0.68054404050E+01  0.18163648669E+02  0.22604229294E+02  0.51100000000E-03 0.  1.
         12    1    3    3    0    0 -0.23383369741E+02 -0.95303784744E+01 -0.31031961100E+02  0.40007408114E+02  0.00000000000E+00 0. -1.
</event>
<event>
 7    1  0.2604986E-013  0.7246158E+02  0.7816164E-02  0.1226708E+00
        -11   -1    0    0    0    0  0.00000000000E+00  0.00000000000E+00  0.45593999997E+02  0.45594000000E+02  0.51100000000E-03 0.  1.
         11   -1    0    0    0    0 -0.00000000000E+00 -0.00000000000E+00 -0.45593999997E+02  0.45594000000E+02  0.51100000000E-03 0. -1.
    9900012    2    1    2    0    0  0.30853249296E+00  0.67156645540E+01 -0.17478081050E+02  0.72461583901E+02  0.70000017725E+02 0.  0.
        -12    1    1    2    0    0 -0.30853249296E+00 -0.67156645540E+01  0.17478081050E+02  0.18726416099E+02  0.00000000000E+00 0.  1.
         11    1    3    3    0    0 -0.11033759207E+02 -0.94473510736E+01 -0.35623166783E+02  0.38470849958E+02  0.51100000000E-03 0. -1.
        -11    1    3    3    0    0  0.94947250302E+01  0.44714485219E+01 -0.19443607804E+01  0.10673527739E+02  0.51100000000E-03 0.  1.
        -12    1    3    3    0    0  0.18475666693E+01  0.11691567106E+02  0.20089446513E+02  0.23317206205E+02  0.00000000000E+00 0.  1.
</event>
<event>
 7    1  0.2604986E-013  0.7246159E+02  0.7816164E-02  0.1226708E+00
        -11   -1    0    0    0    0  0.00000000000E+00  0.00000000000E+00  0.45593999997E+02  0.45594000000E+02  0.51100000000E-03 0. -1.
         11   -1    0    0    0    0 -0.00000000000E+00 -0.00000000000E+00 -0.45593999997E+02  0.45594000000E+02  0.51100000000E-03 0.  1.
    9900012    2    1    2    0    0  0.69483780069E+01 -0.13051792081E+02  0.11491266320E+02  0.72461589904E+02  0.70000025545E+02 0.  0.
        -12    1    1    2    0    0 -0.69483780069E+01  0.13051792081E+02 -0.11491266320E+02  0.18726410096E+02  0.00000000000E+00 0.  1.
         11    1    3    3    0    0 -0.10885373852E+02  0.28404213101E+01 -0.10214921769E+01  0.11296141095E+02  0.51100000000E-03 0. -1.
        -11    1    3    3    0    0  0.11368190851E+02  0.19575963094E+02  0.10774813814E+02  0.25070913571E+02  0.51100000000E-03 0.  1.
         12    1    3    3    0    0  0.64655610085E+01 -0.35468176485E+02  0.17379446830E+01  0.36094535238E+02  0.00000000000E+00 0. -1.
</event>
<event>
 7    1  0.2604986E-013  0.7246166E+02  0.7816164E-02  0.1226708E+00
        -11   -1    0    0    0    0  0.00000000000E+00  0.00000000000E+00  0.45593999997E+02  0.45594000000E+02  0.51100000000E-03 0.  1.
         11   -1    0    0    0    0 -0.00000000000E+00 -0.00000000000E+00 -0.45593999997E+02  0.45594000000E+02  0.51100000000E-03 0. -1.
    9900012    2    1    2    0    0 -0.87618964357E+01 -0.39942241179E+01 -0.16060862615E+02  0.72461655899E+02  0.70000111515E+02 0.  0.
        -12    1    1    2    0    0  0.87618964357E+01  0.39942241179E+01  0.16060862615E+02  0.18726344101E+02  0.00000000000E+00 0.  1.
         11    1    3    3    0    0 -0.11131821042E+02  0.71248736128E+01  0.12594169243E+02  0.18256351303E+02  0.51100000000E-03 0. -1.
        -11    1    3    3    0    0  0.13077129667E+02  0.60890906798E+00  0.72359481256E+01  0.14957975669E+02  0.51100000000E-03 0.  1.
         12    1    3    3    0    0 -0.10707205061E+02 -0.11728006799E+02 -0.35890979984E+02  0.39247328927E+02  0.00000000000E+00 0. -1.
</event>
<event>
 7    1  0.2604986E-013  0.7246160E+02  0.7816164E-02  0.1226708E+00
        -11   -1    0    0    0    0  0.00000000000E+00  0.00000000000E+00  0.45593999997E+02  0.45594000000E+02  0.51100000000E-03 0.  1.
         11   -1    0    0    0    0 -0.00000000000E+00 -0.00000000000E+00 -0.45593999997E+02  0.45594000000E+02  0.51100000000E-03 0. -1.
    9900012    2    1    2    0    0  0.18417130956E+02 -0.30365209523E+01  0.15055853443E+01  0.72461602605E+02  0.70000042091E+02 0.  0.
        -12    1    1    2    0    0 -0.18417130956E+02  0.30365209523E+01 -0.15055853443E+01  0.18726397395E+02  0.00000000000E+00 0.  1.
         11    1    3    3    0    0  0.22507814655E+02  0.76743009476E+01 -0.37441901394E+01  0.24073129743E+02  0.51100000000E-03 0. -1.
        -11    1    3    3    0    0  0.15450361898E+02  0.33241780868E+01  0.15592006021E+02  0.22200776895E+02  0.51100000000E-03 0.  1.
        -12    1    3    3    0    0 -0.19541045596E+02 -0.14034999987E+02 -0.10342230537E+02  0.26187695968E+02  0.00000000000E+00 0.  1.
</event>
<event>
 7    1  0.2604986E-013  0.7246165E+02  0.7816164E-02  0.1226708E+00
        -11   -1    0    0    0    0  0.00000000000E+00  0.00000000000E+00  0.45593999997E+02  0.45594000000E+02  0.51100000000E-03 0.  1.
         11   -1    0    0    0    0 -0.00000000000E+00 -0.00000000000E+00 -0.45593999997E+02  0.45594000000E+02  0.51100000000E-03 0. -1.
    9900012    2    1    2    0    0  0.57201773941E+01  0.10581814954E+02 -0.14352035786E+02  0.72461650427E+02  0.70000104387E+02 0.  0.
        -12    1    1    2    0    0 -0.57201773941E+01 -0.10581814954E+02  0.14352035786E+02  0.18726349573E+02  0.00000000000E+00 0.  1.
         11    1    3    3    0    0  0.65748065512E+01 -0.90803661115E+01 -0.19796623291E+02  0.22750547772E+02  0.51100000000E-03 0. -1.
        -11    1    3    3    0    0  0.20927740268E+02  0.26056636755E+01  0.63683648711E+01  0.22029885776E+02  0.51100000000E-03 0.  1.
        -12    1    3    3    0    0 -0.21782369425E+02  0.17056517390E+02 -0.92377736557E+00  0.27681216879E+02  0.00000000000E+00 0.  1.
</event>
<event>
 7    1  0.2604986E-013  0.7246161E+02  0.7816164E-02  0.1226708E+00
        -11   -1    0    0    0    0  0.00000000000E+00  0.00000000000E+00  0.45593999997E+02  0.45594000000E+02  0.51100000000E-03 0.  1.
         11   -1    0    0    0    0 -0.00000000000E+00 -0.00000000000E+00 -0.45593999997E+02  0.45594000000E+02  0.51100000000E-03 0. -1.
    9900012    2    1    2    0    0 -0.18383586807E+02 -0.21375940826E+01 -0.28551699169E+01  0.72461613066E+02  0.70000055718E+02 0.  0.
        -12    1    1    2    0    0  0.18383586807E+02  0.21375940826E+01  0.28551699169E+01  0.18726386934E+02  0.00000000000E+00 0.  1.
         11    1    3    3    0    0 -0.29322561760E+00 -0.18237936504E+02 -0.16822281299E+02  0.24813251652E+02  0.51100000000E-03 0. -1.
        -11    1    3    3    0    0 -0.12661209917E+02  0.86994111824E+01 -0.12391931823E+02  0.19736918859E+02  0.51100000000E-03 0.  1.
        -12    1    3    3    0    0 -0.54291512721E+01  0.74009312393E+01  0.26359043205E+02  0.27911442554E+02  0.00000000000E+00 0.  1.
</event>
<event>
 7    1  0.2604986E-013  0.7246153E+02  0.7816164E-02  0.1226708E+00
        -11   -1    0    0    0    0  0.00000000000E+00  0.00000000000E+00  0.45593999997E+02  0.45594000000E+02  0.51100000000E-03 0. -1.
         11   -1    0    0    0    0 -0.00000000000E+00 -0.00000000000E+00 -0.45593999997E+02  0.45594000000E+02  0.51100000000E-03 0.  1.
    9900012    2    1    2    0    0 -0.10326778456E+02  0.14877522503E+02  0.47641874558E+01  0.72461534471E+02  0.69999953333E+02 0.  0.
        -12    1    1    2    0    0  0.10326778456E+02 -0.14877522503E+02 -0.47641874558E+01  0.18726465529E+02  0.00000000000E+00 0.  1.
         11    1    3    3    0    0 -0.43012527866E+01  0.65495680043E+01  0.90924879194E+01  0.12002956028E+02  0.51100000000E-03 0. -1.
        -11    1    3    3    0    0 -0.24098351206E+02  0.15205314396E+02  0.15770893711E+02  0.32567671170E+02  0.51100000000E-03 0.  1.
        -12    1    3    3    0    0  0.18072825537E+02 -0.68773598976E+01 -0.20099194174E+02  0.27890907273E+02  0.00000000000E+00 0.  1.
</event>
<event>
 7    1  0.2604986E-013  0.7246158E+02  0.7816164E-02  0.1226708E+00
        -11   -1    0    0    0    0  0.00000000000E+00  0.00000000000E+00  0.45593999997E+02  0.45594000000E+02  0.51100000000E-03 0. -1.
         11   -1    0    0    0    0 -0.00000000000E+00 -0.00000000000E+00 -0.45593999997E+02  0.45594000000E+02  0.51100000000E-03 0.  1.
    9900012    2    1    2    0    0  0.84896255449E+01  0.16691459070E+02  0.13768291083E-01  0.72461581834E+02  0.70000015032E+02 0.  0.
        -12    1    1    2    0    0 -0.84896255449E+01 -0.16691459070E+02 -0.13768291083E-01  0.18726418166E+02  0.00000000000E+00 0.  1.
         11    1    3    3    0    0  0.11495528538E+02 -0.16161350342E+02  0.84703074382E+01  0.21565772177E+02  0.51100000000E-03 0. -1.
        -11    1    3    3    0    0  0.97546521003E+01  0.82166509401E+01 -0.17553507056E+02  0.21697746438E+02  0.51100000000E-03 0.  1.
        -12    1    3    3    0    0 -0.12760555093E+02  0.24636158472E+02  0.90969679089E+01  0.29198063218E+02  0.00000000000E+00 0.  1.
</event>
<event>
 7    1  0.2604986E-013  0.7246158E+02  0.7816164E-02  0.1226708E+00
        -11   -1    0    0    0    0  0.00000000000E+00  0.00000000000E+00  0.45593999997E+02  0.45594000000E+02  0.51100000000E-03 0.  1.
         11   -1    0    0    0    0 -0.00000000000E+00 -0.00000000000E+00 -0.45593999997E+02  0.45594000000E+02  0.51100000000E-03 0. -1.
    9900012    2    1    2    0    0 -0.17971286915E+02  0.33901795326E+01 -0.40272161864E+01  0.72461576400E+02  0.70000007953E+02 0.  0.
        -12    1    1    2    0    0  0.17971286915E+02 -0.33901795326E+01  0.40272161864E+01  0.18726423600E+02  0.00000000000E+00 0.  1.
         11    1    3    3    0    0  0.59959757865E+01 -0.64408284880E+01 -0.27089467091E+02  0.28482893547E+02  0.51100000000E-03 0. -1.
        -11    1    3    3    0    0  0.21412042206E+01  0.10012074871E+02  0.19973554944E+01  0.10431482539E+02  0.51100000000E-03 0.  1.
        -12    1    3    3    0    0 -0.26108466922E+02 -0.18106685011E+00  0.21064895410E+02  0.33547200314E+02  0.00000000000E+00 0.  1.
</event>
<event>
 7    1  0.2604986E-013  0.7246145E+02  0.7816164E-02  0.1226708E+00
        -11   -1    0    0    0    0  0.00000000000E+00  0.00000000000E+00  0.45593999997E+02  0.45594000000E+02  0.51100000000E-03 0. -1.
         11   -1    0    0    0    0 -0.00000000000E+00 -0.00000000000E+00 -0.45593999997E+02  0.45594000000E+02  0.51100000000E-03 0.  1.
    9900012    2    1    2    0    0 -0.17455367252E+02 -0.54354303032E+01 -0.40558739329E+01  0.72461445009E+02  0.69999836792E+02 0.  0.
        -12    1    1    2    0    0  0.17455367252E+02  0.54354303032E+01  0.40558739329E+01  0.18726554991E+02  0.00000000000E+00 0.  1.
         11    1    3    3    0    0 -0.15976702040E+02 -0.12774804834E+02  0.92958467338E+01  0.22469165836E+02  0.51100000000E-03 0. -1.
        -11    1    3    3    0    0 -0.77729622543E+01  0.19278879487E+02  0.99641198486E+01  0.23051633805E+02  0.51100000000E-03 0.  1.
        -12    1    3    3    0    0  0.62942970425E+01 -0.11939504956E+02 -0.23315840515E+02  0.26940645367E+02  0.00000000000E+00 0.  1.
</event>
<event>
 7    1  0.2604986E-013  0.7246150E+02  0.7816164E-02  0.1226708E+00
        -11   -1    0    0    0    0  0.00000000000E+00  0.00000000000E+00  0.45593999997E+02  0.45594000000E+02  0.51100000000E-03 0. -1.
         11   -1    0    0    0    0 -0.00000000000E+00 -0.00000000000E+00 -0.45593999997E+02  0.45594000000E+02  0.51100000000E-03 0.  1.
    9900012    2    1    2    0    0 -0.38184217865E+01  0.15735205503E+02 -0.94076963727E+01  0.72461500375E+02  0.69999908917E+02 0.  0.
        -12    1    1    2    0    0  0.38184217865E+01 -0.15735205503E+02  0.94076963727E+01  0.18726499625E+02  0.00000000000E+00 0.  1.
         11    1    3    3    0    0  0.32719501855E+01 -0.94427261139E+01 -0.12299217278E+02  0.15847443970E+02  0.51100000000E-03 0. -1.
        -11    1    3    3    0    0 -0.68850614448E+01 -0.14748305923E+02  0.36482617881E+01  0.16680120295E+02  0.51100000000E-03 0.  1.
         12    1    3    3    0    0 -0.20531052725E+00  0.39926237540E+02 -0.75674088322E+00  0.39933936111E+02  0.00000000000E+00 0. -1.
</event>
<event>
 7    1  0.2604986E-013  0.7246157E+02  0.7816164E-02  0.1226708E+00
        -11   -1    0    0    0    0  0.00000000000E+00  0.00000000000E+00  0.45593999997E+02  0.45594000000E+02  0.51100000000E-03 0.  1.
         11   -1    0    0    0    0 -0.00000000000E+00 -0.00000000000E+00 -0.45593999997E+02  0.45594000000E+02  0.51100000000E-03 0. -1.
    9900012    2    1    2    0    0  0.10560613138E+01 -0.13784659595E+02 -0.12631187334E+02  0.72461574844E+02  0.70000005927E+02 0.  0.
        -12    1    1    2    0    0 -0.10560613138E+01  0.13784659595E+02  0.12631187334E+02  0.18726425156E+02  0.00000000000E+00 0.  1.
         11    1    3    3    0    0 -0.40356498824E+01  0.17926919861E+02  0.63051144304E-02  0.18375553480E+02  0.51100000000E-03 0. -1.
        -11    1    3    3    0    0 -0.14147970171E+02 -0.37981936962E+01  0.54879233095E+01  0.15643165851E+02  0.51100000000E-03 0.  1.
        -12    1    3    3    0    0  0.19239681367E+02 -0.27913385759E+02 -0.18125415758E+02  0.38442855514E+02  0.00000000000E+00 0.  1.
</event>
<event>
 7    1  0.2604986E-013  0.7246158E+02  0.7816164E-02  0.1226708E+00
        -11   -1    0    0    0    0  0.00000000000E+00  0.00000000000E+00  0.45593999997E+02  0.45594000000E+02  0.51100000000E-03 0.  1.
         11   -1    0    0    0    0 -0.00000000000E+00 -0.00000000000E+00 -0.45593999997E+02  0.45594000000E+02  0.51100000000E-03 0. -1.
    9900012    2    1    2    0    0 -0.10409731785E+02  0.73534601653E+01 -0.13720163766E+02  0.72461580534E+02  0.70000013339E+02 0.  0.
        -12    1    1    2    0    0  0.10409731785E+02 -0.73534601653E+01  0.13720163766E+02  0.18726419466E+02  0.00000000000E+00 0.  1.
         11    1    3    3    0    0 -0.37780833316E+01  0.19144399778E+02  0.88217599717E+01  0.21415074265E+02  0.51100000000E-03 0. -1.
        -11    1    3    3    0    0 -0.61634621968E+00  0.13072035858E+02  0.44847649627E+01  0.13833695138E+02  0.51100000000E-03 0.  1.
         12    1    3    3    0    0 -0.60153022338E+01 -0.24862975470E+02 -0.27026688700E+02  0.37212811132E+02  0.00000000000E+00 0. -1.
</event>
<event>
 7    1  0.2604986E-013  0.7246157E+02  0.7816164E-02  0.1226708E+00
        -11   -1    0    0    0    0  0.00000000000E+00  0.00000000000E+00  0.45593999997E+02  0.45594000000E+02  0.51100000000E-03 0.  1.
         11   -1    0    0    0    0 -0.00000000000E+00 -0.00000000000E+00 -0.45593999997E+02  0.45594000000E+02  0.51100000000E-03 0. -1.
    9900012    2    1    2    0    0 -0.29404954946E+01 -0.17869679516E+02 -0.47651970614E+01  0.72461573144E+02  0.70000003712E+02 0.  0.
        -12    1    1    2    0    0  0.29404954946E+01  0.17869679516E+02  0.47651970614E+01  0.18726426856E+02  0.00000000000E+00 0.  1.
         11    1    3    3    0    0  0.38107802479E+01  0.19291132424E+01 -0.46815702079E+01  0.63372410300E+01  0.51100000000E-03 0. -1.
        -11    1    3    3    0    0 -0.26254218012E+02 -0.21209214842E+02 -0.19157046638E+02  0.38808596906E+02  0.51100000000E-03 0.  1.
         12    1    3    3    0    0  0.19502942270E+02  0.14104220833E+01  0.19073419785E+02  0.27315735207E+02  0.00000000000E+00 0. -1.
</event>
<event>
 7    1  0.2604986E-013  0.7246176E+02  0.7816164E-02  0.1226708E+00
        -11   -1    0    0    0    0  0.00000000000E+00  0.00000000000E+00  0.45593999997E+02  0.45594000000E+02  0.51100000000E-03 0.  1.
         11   -1    0    0    0    0 -0.00000000000E+00 -0.00000000000E+00 -0.45593999997E+02  0.45594000000E+02  0.51100000000E-03 0. -1.
    9900012    2    1    2    0    0  0.10407407376E+02  0.15539909550E+02  0.93230054019E+00  0.72461759016E+02  0.70000245844E+02 0.  0.
        -12    1    1    2    0    0 -0.10407407376E+02 -0.15539909550E+02 -0.93230054019E+00  0.18726240984E+02  0.00000000000E+00 0.  1.
         11    1    3    3    0    0  0.13162584080E+02 -0.35220685435E+01 -0.20620874628E+02  0.24715967656E+02  0.51100000000E-03 0. -1.
        -11    1    3    3    0    0  0.70817620248E+01 -0.68996042969E+01  0.16923029419E+02  0.19599612695E+02  0.51100000000E-03 0.  1.
         12    1    3    3    0    0 -0.98369387290E+01  0.25961582390E+02  0.46301457491E+01  0.28146178665E+02  0.00000000000E+00 0. -1.
</event>
<event>
 7    1  0.2604986E-013  0.7246159E+02  0.7816164E-02  0.1226708E+00
        -11   -1    0    0    0    0  0.00000000000E+00  0.00000000000E+00  0.45593999997E+02  0.45594000000E+02  0.51100000000E-03 0. -1.
         11   -1    0    0    0    0 -0.00000000000E+00 -0.00000000000E+00 -0.45593999997E+02  0.45594000000E+02  0.51100000000E-03 0.  1.
    9900012    2    1    2    0    0 -0.10469100795E+02 -0.12124518345E+02 -0.96990937581E+01  0.72461589872E+02  0.70000025503E+02 0.  0.
        -12    1    1    2    0    0  0.10469100795E+02  0.12124518345E+02  0.96990937581E+01  0.18726410128E+02  0.00000000000E+00 0.  1.
         11    1    3    3    0    0  0.72063276709E+01  0.40818685437E+01  0.11476121883E+02  0.14152532743E+02  0.51100000000E-03 0. -1.
        -11    1    3    3    0    0  0.94834339034E+01  0.66447943569E-01  0.10065833652E+02  0.13829712264E+02  0.51100000000E-03 0.  1.
         12    1    3    3    0    0 -0.27158862370E+02 -0.16272834832E+02 -0.31241049293E+02  0.44479344865E+02  0.00000000000E+00 0. -1.
</event>
<event>
 7    1  0.2604986E-013  0.7246152E+02  0.7816164E-02  0.1226708E+00
        -11   -1    0    0    0    0  0.00000000000E+00  0.00000000000E+00  0.45593999997E+02  0.45594000000E+02  0.51100000000E-03 0. -1.
         11   -1    0    0    0    0 -0.00000000000E+00 -0.00000000000E+00 -0.45593999997E+02  0.45594000000E+02  0.51100000000E-03 0.  1.
    9900012    2    1    2    0    0 -0.66762076167E+01  0.40794442588E+01  0.17013740097E+02  0.72461522337E+02  0.69999937526E+02 0.  0.
        -12    1    1    2    0    0  0.66762076167E+01 -0.40794442588E+01 -0.17013740097E+02  0.18726477663E+02  0.00000000000E+00 0.  1.
         11    1    3    3    0    0 -0.13183637819E+02  0.18198378958E+02  0.29156053368E+02  0.36811204152E+02  0.51100000000E-03 0. -1.
        -11    1    3    3    0    0  0.13353204794E+02 -0.99100443930E+01  0.44503740320E+01  0.17214031701E+02  0.51100000000E-03 0.  1.
        -12    1    3    3    0    0 -0.68457745914E+01 -0.42088903067E+01 -0.16592687303E+02  0.18436286484E+02  0.00000000000E+00 0.  1.
</event>
<event>
 7    1  0.2604986E-013  0.7246154E+02  0.7816164E-02  0.1226708E+00
        -11   -1    0    0    0    0  0.00000000000E+00  0.00000000000E+00  0.45593999997E+02  0.45594000000E+02  0.51100000000E-03 0.  1.
         11   -1    0    0    0    0 -0.00000000000E+00 -0.00000000000E+00 -0.45593999997E+02  0.45594000000E+02  0.51100000000E-03 0. -1.
    9900012    2    1    2    0    0 -0.15612560044E+02  0.28455983823E+01  0.99413615946E+01  0.72461544606E+02  0.69999966536E+02 0.  0.
        -12    1    1    2    0    0  0.15612560044E+02 -0.28455983823E+01 -0.99413615946E+01  0.18726455394E+02  0.00000000000E+00 0.  1.
         11    1    3    3    0    0  0.10187459389E+02  0.91545169221E+01  0.16617056916E+01  0.13796766830E+02  0.51100000000E-03 0. -1.
        -11    1    3    3    0    0 -0.31934592809E+02  0.11725048752E+02  0.16629831138E+02  0.37866162600E+02  0.51100000000E-03 0.  1.
         12    1    3    3    0    0  0.61345733762E+01 -0.18033967292E+02 -0.83501752346E+01  0.20798615176E+02  0.00000000000E+00 0. -1.
</event>
<event>
 7    1  0.2604986E-013  0.7246157E+02  0.7816164E-02  0.1226708E+00
        -11   -1    0    0    0    0  0.00000000000E+00  0.00000000000E+00  0.45593999997E+02  0.45594000000E+02  0.51100000000E-03 0.  1.
         11   -1    0    0    0    0 -0.00000000000E+00 -0.00000000000E+00 -0.45593999997E+02  0.45594000000E+02  0.51100000000E-03 0. -1.
    9900012    2    1    2    0    0 -0.12192237310E+02  0.42164141151E+01  0.13573892904E+02  0.72461565017E+02  0.69999993125E+02 0.  0.
        -12    1    1    2    0    0  0.12192237310E+02 -0.42164141151E+01 -0.13573892904E+02  0.18726434983E+02  0.00000000000E+00 0.  1.
         11    1    3    3    0    0  0.13935493314E+02  0.50399265863E+01 -0.11850533900E+02  0.18974561599E+02  0.51100000000E-03 0. -1.
        -11    1    3    3    0    0  0.59254337587E+01 -0.96854281950E+01  0.14638888393E+02  0.18526071850E+02  0.51100000000E-03 0.  1.
        -12    1    3    3    0    0 -0.32053164383E+02  0.88619157238E+01  0.10785538411E+02  0.34960931567E+02  0.00000000000E+00 0.  1.
</event>
<event>
 7    1  0.2604986E-013  0.7246165E+02  0.7816164E-02  0.1226708E+00
        -11   -1    0    0    0    0  0.00000000000E+00  0.00000000000E+00  0.45593999997E+02  0.45594000000E+02  0.51100000000E-03 0. -1.
         11   -1    0    0    0    0 -0.00000000000E+00 -0.00000000000E+00 -0.45593999997E+02  0.45594000000E+02  0.51100000000E-03 0.  1.
    9900012    2    1    2    0    0 -0.14191830479E+02  0.62477748000E+01 -0.10499211682E+02  0.72461649895E+02  0.70000103695E+02 0.  0.
        -12    1    1    2    0    0  0.14191830479E+02 -0.62477748000E+01  0.10499211682E+02  0.18726350105E+02  0.00000000000E+00 0.  1.
         11    1    3    3    0    0  0.69106319472E+01  0.16488352648E+01 -0.92183870029E+01  0.11638477170E+02  0.51100000000E-03 0. -1.
        -11    1    3    3    0    0 -0.11166611935E+01  0.28057294274E+02 -0.81719413845E+01  0.29244475041E+02  0.51100000000E-03 0.  1.
         12    1    3    3    0    0 -0.19985801233E+02 -0.23458354739E+02  0.68911167050E+01  0.31578697684E+02  0.00000000000E+00 0. -1.
</event>
<event>
 7    1  0.2604986E-013  0.7246156E+02  0.7816164E-02  0.1226708E+00
        -11   -1    0    0    0    0  0.00000000000E+00  0.00000000000E+00  0.45593999997E+02  0.45594000000E+02  0.51100000000E-03 0.  1.
         11   -1    0    0    0    0 -0.00000000000E+00 -0.00000000000E+00 -0.45593999997E+02  0.45594000000E+02  0.51100000000E-03 0. -1.
    9900012    2    1    2    0    0 -0.28978586637E+01 -0.12953613863E+02  0.13209305832E+02  0.72461562605E+02  0.69999989983E+02 0.  0.
        -12    1    1    2    0    0  0.28978586637E+01  0.12953613863E+02 -0.13209305832E+02  0.18726437395E+02  0.00000000000E+00 0.  1.
         11    1    3    3    0    0 -0.11631578935E+02 -0.94099143356E+01  0.59097817628E+00  0.14972954678E+02  0.51100000000E-03 0. -1.
        -11    1    3    3    0    0  0.36227269042E+00 -0.93698792258E+01  0.33210553500E+02  0.34508937136E+02  0.51100000000E-03 0.  1.
         12    1    3    3    0    0  0.83714475806E+01  0.58261796981E+01 -0.20592225844E+02  0.22979670791E+02  0.00000000000E+00 0. -1.
</event>
<event>
 7    1  0.2604986E-013  0.7246159E+02  0.7816164E-02  0.1226708E+00
        -11   -1    0    0    0    0  0.00000000000E+00  0.00000000000E+00  0.45593999997E+02  0.45594000000E+02  0.51100000000E-03 0.  1.
         11   -1    0    0    0    0 -0.00000000000E+00 -0.00000000000E+00 -0.45593999997E+02  0.45594000000E+02  0.51100000000E-03 0. -1.
    9900012    2    1    2    0    0 -0.18074350077E+02 -0.17659770916E+01 -0.45692004563E+01  0.72461590878E+02  0.70000026814E+02 0.  0.
        -12    1    1    2    0    0  0.18074350077E+02  0.17659770916E+01  0.45692004563E+01  0.18726409122E+02  0.00000000000E+00 0.  1.
         11    1    3    3    0    0 -0.28773372496E+01 -0.18518992111E+02 -0.17254662888E+02  0.25474605593E+02  0.51100000000E-03 0. -1.
        -11    1    3    3    0    0  0.61239474375E+01  0.74731005605E+01 -0.10417485991E+02  0.14208236303E+02  0.51100000000E-03 0.  1.
        -12    1    3    3    0    0 -0.21320960265E+02  0.92799144594E+01  0.23102948423E+02  0.32778748982E+02  0.00000000000E+00 0.  1.
</event>
<event>
 7    1  0.2604986E-013  0.7246156E+02  0.7816164E-02  0.1226708E+00
        -11   -1    0    0    0    0  0.00000000000E+00  0.00000000000E+00  0.45593999997E+02  0.45594000000E+02  0.51100000000E-03 0. -1.
         11   -1    0    0    0    0 -0.00000000000E+00 -0.00000000000E+00 -0.45593999997E+02  0.45594000000E+02  0.51100000000E-03 0.  1.
    9900012    2    1    2    0    0 -0.94209513539E-01 -0.96620583312E+01  0.16041056254E+02  0.72461555266E+02  0.69999980423E+02 0.  0.
        -12    1    1    2    0    0  0.94209513539E-01  0.96620583312E+01 -0.16041056254E+02  0.18726444734E+02  0.00000000000E+00 0.  1.
         11    1    3    3    0    0 -0.22080144966E+02  0.11204833635E+02  0.19933511931E+02  0.31787198629E+02  0.51100000000E-03 0. -1.
        -11    1    3    3    0    0 -0.43133995232E+01 -0.39415919518E+01  0.54949366630E+01  0.80209657619E+01  0.51100000000E-03 0.  1.
        -12    1    3    3    0    0  0.26299334976E+02 -0.16925300014E+02 -0.93873923395E+01  0.32653390876E+02  0.00000000000E+00 0.  1.
</event>
<event>
 7    1  0.2604986E-013  0.7246160E+02  0.7816164E-02  0.1226708E+00
        -11   -1    0    0    0    0  0.00000000000E+00  0.00000000000E+00  0.45593999997E+02  0.45594000000E+02  0.51100000000E-03 0.  1.
         11   -1    0    0    0    0 -0.00000000000E+00 -0.00000000000E+00 -0.45593999997E+02  0.45594000000E+02  0.51100000000E-03 0. -1.
    9900012    2    1    2    0    0 -0.50394857896E+01 -0.53391135607E+01 -0.17227171617E+02  0.72461601719E+02  0.70000040937E+02 0.  0.
        -12    1    1    2    0    0  0.50394857896E+01  0.53391135607E+01  0.17227171617E+02  0.18726398281E+02  0.00000000000E+00 0.  1.
         11    1    3    3    0    0  0.65300436742E+01  0.62498802015E+01  0.76931822224E+01  0.11869605128E+02  0.51100000000E-03 0. -1.
        -11    1    3    3    0    0 -0.26375274650E+02  0.74600688420E+01 -0.22772472583E+01  0.27504428650E+02  0.51100000000E-03 0.  1.
         12    1    3    3    0    0  0.14805745187E+02 -0.19049062604E+02 -0.22643106582E+02  0.33087567942E+02  0.00000000000E+00 0. -1.
</event>
<event>
 7    1  0.2604986E-013  0.7246157E+02  0.7816164E-02  0.1226708E+00
        -11   -1    0    0    0    0  0.00000000000E+00  0.00000000000E+00  0.45593999997E+02  0.45594000000E+02  0.51100000000E-03 0.  1.
         11   -1    0    0    0    0 -0.00000000000E+00 -0.00000000000E+00 -0.45593999997E+02  0.45594000000E+02  0.51100000000E-03 0. -1.
    9900012    2    1    2    0    0  0.17268633690E+02  0.44618750000E+01 -0.57065716137E+01  0.72461574884E+02  0.70000005979E+02 0.  0.
        -12    1    1    2    0    0 -0.17268633690E+02 -0.44618750000E+01  0.57065716137E+01  0.18726425116E+02  0.00000000000E+00 0.  1.
         11    1    3    3    0    0  0.86528004191E+01  0.17406553931E+01  0.12110219409E+02  0.14985267788E+02  0.51100000000E-03 0. -1.
        -11    1    3    3    0    0  0.10149389094E+01  0.11418676112E+02  0.17162638755E+02  0.20639099651E+02  0.51100000000E-03 0.  1.
         12    1    3    3    0    0  0.76008943618E+01 -0.86974565051E+01 -0.34979429777E+02  0.36837207444E+02  0.00000000000E+00 0. -1.
</event>
<event>
 7    1  0.2604986E-013  0.7246156E+02  0.7816164E-02  0.1226708E+00
        -11   -1    0    0    0    0  0.00000000000E+00  0.00000000000E+00  0.45593999997E+02  0.45594000000E+02  0.51100000000E-03 0.  1.
         11   -1    0    0    0    0 -0.00000000000E+00 -0.00000000000E+00 -0.45593999997E+02  0.45594000000E+02  0.51100000000E-03 0. -1.
    9900012    2    1    2    0    0 -0.16899528741E+01 -0.95136248644E+01 -0.16041024853E+02  0.72461562082E+02  0.69999989302E+02 0.  0.
        -12    1    1    2    0    0  0.16899528741E+01  0.95136248644E+01  0.16041024853E+02  0.18726437918E+02  0.00000000000E+00 0.  1.
         11    1    3    3    0    0  0.74583890821E+01  0.31554529601E+01  0.81076273881E+01  0.11459409811E+02  0.51100000000E-03 0. -1.
        -11    1    3    3    0    0 -0.15494688175E+02 -0.20194450125E+02  0.85518021720E+01  0.26852085545E+02  0.51100000000E-03 0.  1.
         12    1    3    3    0    0  0.63463462190E+01  0.75253723003E+01 -0.32700454413E+02  0.34150066726E+02  0.00000000000E+00 0. -1.
</event>
<event>
 7    1  0.2604986E-013  0.7246151E+02  0.7816164E-02  0.1226708E+00
        -11   -1    0    0    0    0  0.00000000000E+00  0.00000000000E+00  0.45593999997E+02  0.45594000000E+02  0.51100000000E-03 0. -1.
         11   -1    0    0    0    0 -0.00000000000E+00 -0.00000000000E+00 -0.45593999997E+02  0.45594000000E+02  0.51100000000E-03 0.  1.
    9900012    2    1    2    0    0 -0.16970844381E+02  0.50493451255E+01 -0.60972006228E+01  0.72461513393E+02  0.69999925875E+02 0.  0.
        -12    1    1    2    0    0  0.16970844381E+02 -0.50493451255E+01  0.60972006228E+01  0.18726486607E+02  0.00000000000E+00 0.  1.
         11    1    3    3    0    0 -0.90800476522E+01 -0.15305951949E+02 -0.93681744398E+01  0.20111740924E+02  0.51100000000E-03 0. -1.
        -11    1    3    3    0    0 -0.83007448180E+01 -0.14360159940E+02 -0.35646568903E+01  0.16965356968E+02  0.51100000000E-03 0.  1.
         12    1    3    3    0    0  0.40994808868E+00  0.34715457014E+02  0.68356307073E+01  0.35384415500E+02  0.00000000000E+00 0. -1.
</event>
<event>
 7    1  0.2604986E-013  0.7246157E+02  0.7816164E-02  0.1226708E+00
        -11   -1    0    0    0    0  0.00000000000E+00  0.00000000000E+00  0.45593999997E+02  0.45594000000E+02  0.51100000000E-03 0. -1.
         11   -1    0    0    0    0 -0.00000000000E+00 -0.00000000000E+00 -0.45593999997E+02  0.45594000000E+02  0.51100000000E-03 0.  1.
    9900012    2    1    2    0    0  0.15562387669E+02  0.10345260054E+02  0.12111025770E+01  0.72461572552E+02  0.70000002941E+02 0.  0.
        -12    1    1    2    0    0 -0.15562387669E+02 -0.10345260054E+02 -0.12111025770E+01  0.18726427448E+02  0.00000000000E+00 0.  1.
         11    1    3    3    0    0  0.24551863180E+02  0.13592915112E+02 -0.75837104120E+01  0.29070156359E+02  0.51100000000E-03 0. -1.
        -11    1    3    3    0    0  0.31657140307E+01 -0.16689613432E+02 -0.79151341554E+01  0.18740712121E+02  0.51100000000E-03 0.  1.
        -12    1    3    3    0    0 -0.12155189542E+02  0.13441958373E+02  0.16709947144E+02  0.24650704073E+02  0.00000000000E+00 0.  1.
</event>
<event>
 7    1  0.2604986E-013  0.7246158E+02  0.7816164E-02  0.1226708E+00
        -11   -1    0    0    0    0  0.00000000000E+00  0.00000000000E+00  0.45593999997E+02  0.45594000000E+02  0.51100000000E-03 0.  1.
         11   -1    0    0    0    0 -0.00000000000E+00 -0.00000000000E+00 -0.45593999997E+02  0.45594000000E+02  0.51100000000E-03 0. -1.
    9900012    2    1    2    0    0 -0.35637623115E+01 -0.11529969219E+02 -0.14319149144E+02  0.72461584854E+02  0.70000018966E+02 0.  0.
        -12    1    1    2    0    0  0.35637623115E+01  0.11529969219E+02  0.14319149144E+02  0.18726415146E+02  0.00000000000E+00 0.  1.
         11    1    3    3    0    0  0.16964603555E+02  0.90550085816E+01 -0.46681156533E+01  0.19788437488E+02  0.51100000000E-03 0. -1.
        -11    1    3    3    0    0  0.10281585395E+02 -0.13711836939E+02  0.50266944828E+01  0.17860378723E+02  0.51100000000E-03 0.  1.
        -12    1    3    3    0    0 -0.30809951262E+02 -0.68731408623E+01 -0.14677727974E+02  0.34812768642E+02  0.00000000000E+00 0.  1.
</event>
<event>
 7    1  0.2604986E-013  0.7246160E+02  0.7816164E-02  0.1226708E+00
        -11   -1    0    0    0    0  0.00000000000E+00  0.00000000000E+00  0.45593999997E+02  0.45594000000E+02  0.51100000000E-03 0.  1.
         11   -1    0    0    0    0 -0.00000000000E+00 -0.00000000000E+00 -0.45593999997E+02  0.45594000000E+02  0.51100000000E-03 0. -1.
    9900012    2    1    2    0    0  0.72504831842E+01  0.16675169110E+02  0.44774367416E+01  0.72461595886E+02  0.70000033338E+02 0.  0.
        -12    1    1    2    0    0 -0.72504831842E+01 -0.16675169110E+02 -0.44774367416E+01  0.18726404114E+02  0.00000000000E+00 0.  1.
         11    1    3    3    0    0 -0.12172440167E+02  0.37751135298E+02 -0.57974050592E+01  0.40086486770E+02  0.51100000000E-03 0. -1.
        -11    1    3    3    0    0  0.24354670650E+01  0.10586762556E+01  0.18233285998E+01  0.32213076045E+01  0.51100000000E-03 0.  1.
        -12    1    3    3    0    0  0.16987456286E+02 -0.22134642444E+02  0.84515132010E+01  0.29153801511E+02  0.00000000000E+00 0.  1.
</event>
<event>
 7    1  0.2604986E-013  0.7246158E+02  0.7816164E-02  0.1226708E+00
        -11   -1    0    0    0    0  0.00000000000E+00  0.00000000000E+00  0.45593999997E+02  0.45594000000E+02  0.51100000000E-03 0.  1.
         11   -1    0    0    0    0 -0.00000000000E+00 -0.00000000000E+00 -0.45593999997E+02  0.45594000000E+02  0.51100000000E-03 0. -1.
    9900012    2    1    2    0    0  0.19166730142E+01 -0.17921243185E+02 -0.50827192396E+01  0.72461584764E+02  0.70000018849E+02 0.  0.
        -12    1    1    2    0    0 -0.19166730142E+01  0.17921243185E+02  0.50827192396E+01  0.18726415236E+02  0.00000000000E+00 0.  1.
         11    1    3    3    0    0  0.12903646194E+02  0.14156032206E+02 -0.12465502694E+02  0.22853579383E+02  0.51100000000E-03 0. -1.
        -11    1    3    3    0    0  0.15943077906E+01  0.54096856215E+01 -0.56408537615E+01  0.79765749088E+01  0.51100000000E-03 0.  1.
        -12    1    3    3    0    0 -0.12581280971E+02 -0.37486961012E+02  0.13023637216E+02  0.41631430472E+02  0.00000000000E+00 0.  1.
</event>
<event>
 7    1  0.2604986E-013  0.7246152E+02  0.7816164E-02  0.1226708E+00
        -11   -1    0    0    0    0  0.00000000000E+00  0.00000000000E+00  0.45593999997E+02  0.45594000000E+02  0.51100000000E-03 0.  1.
         11   -1    0    0    0    0 -0.00000000000E+00 -0.00000000000E+00 -0.45593999997E+02  0.45594000000E+02  0.51100000000E-03 0. -1.
    9900012    2    1    2    0    0 -0.16180469351E+02  0.30773437698E+01 -0.89108574488E+01  0.72461521058E+02  0.69999935860E+02 0.  0.
        -12    1    1    2    0    0  0.16180469351E+02 -0.30773437698E+01  0.89108574488E+01  0.18726478942E+02  0.00000000000E+00 0.  1.
         11    1    3    3    0    0 -0.24700738164E+02 -0.22784358400E+02 -0.56955370071E+01  0.34083611833E+02  0.51100000000E-03 0. -1.
        -11    1    3    3    0    0 -0.77115947837E+01  0.17455961698E+02 -0.57332140500E+01  0.19926089343E+02  0.51100000000E-03 0.  1.
        -12    1    3    3    0    0  0.16231863597E+02  0.84057404717E+01  0.25178936083E+01  0.18451819881E+02  0.00000000000E+00 0.  1.
</event>
<event>
 7    1  0.2604986E-013  0.7246159E+02  0.7816164E-02  0.1226708E+00
        -11   -1    0    0    0    0  0.00000000000E+00  0.00000000000E+00  0.45593999997E+02  0.45594000000E+02  0.51100000000E-03 0. -1.
         11   -1    0    0    0    0 -0.00000000000E+00 -0.00000000000E+00 -0.45593999997E+02  0.45594000000E+02  0.51100000000E-03 0.  1.
    9900012    2    1    2    0    0  0.80582113497E+00 -0.15066847067E+02  0.11091396989E+02  0.72461593100E+02  0.70000029708E+02 0.  0.
        -12    1    1    2    0    0 -0.80582113497E+00  0.15066847067E+02 -0.11091396989E+02  0.18726406900E+02  0.00000000000E+00 0.  1.
         11    1    3    3    0    0  0.25742493874E+01  0.30899843390E+01 -0.60049177871E+01  0.72272955533E+01  0.51100000000E-03 0. -1.
        -11    1    3    3    0    0 -0.74422111458E+00  0.12065864475E+02 -0.16227250559E+02  0.20235182519E+02  0.51100000000E-03 0.  1.
         12    1    3    3    0    0 -0.10242071379E+01 -0.30222695881E+02  0.33323565335E+02  0.44999115027E+02  0.00000000000E+00 0. -1.
</event>
<event>
 7    1  0.2604986E-013  0.7246152E+02  0.7816164E-02  0.1226708E+00
        -11   -1    0    0    0    0  0.00000000000E+00  0.00000000000E+00  0.45593999997E+02  0.45594000000E+02  0.51100000000E-03 0. -1.
         11   -1    0    0    0    0 -0.00000000000E+00 -0.00000000000E+00 -0.45593999997E+02  0.45594000000E+02  0.51100000000E-03 0.  1.
    9900012    2    1    2    0    0  0.96481082595E+01  0.98032123417E+01  0.12707959143E+02  0.72461516326E+02  0.69999929696E+02 0.  0.
        -12    1    1    2    0    0 -0.96481082595E+01 -0.98032123417E+01 -0.12707959143E+02  0.18726483674E+02  0.00000000000E+00 0.  1.
         11    1    3    3    0    0  0.67470178235E+01 -0.20135472611E+02 -0.14516589460E+01  0.21285366352E+02  0.51100000000E-03 0.  1.
        -11    1    3    3    0    0  0.17934079899E+02  0.16319339111E+02 -0.32246092947E+01  0.24461196949E+02  0.51100000000E-03 0. -1.
         12    1    3    3    0    0 -0.15032989463E+02  0.13619345843E+02  0.17384227384E+02  0.26714953024E+02  0.00000000000E+00 0. -1.
</event>
<event>
 7    1  0.2604986E-013  0.7246158E+02  0.7816164E-02  0.1226708E+00
        -11   -1    0    0    0    0  0.00000000000E+00  0.00000000000E+00  0.45593999997E+02  0.45594000000E+02  0.51100000000E-03 0.  1.
         11   -1    0    0    0    0 -0.00000000000E+00 -0.00000000000E+00 -0.45593999997E+02  0.45594000000E+02  0.51100000000E-03 0. -1.
    9900012    2    1    2    0    0 -0.12900748105E+02 -0.10846102590E+02 -0.81615925553E+01  0.72461579197E+02  0.70000011597E+02 0.  0.
        -12    1    1    2    0    0  0.12900748105E+02  0.10846102590E+02  0.81615925553E+01  0.18726420803E+02  0.00000000000E+00 0.  1.
         11    1    3    3    0    0 -0.28823571726E+02  0.28020210299E+00 -0.85048237094E+01  0.30053432863E+02  0.51100000000E-03 0. -1.
        -11    1    3    3    0    0  0.15958580861E+00 -0.22786349918E+02  0.70397234066E+00  0.22797780320E+02  0.51100000000E-03 0.  1.
        -12    1    3    3    0    0  0.15763237812E+02  0.11660045225E+02 -0.36074118657E+00  0.19610366013E+02  0.00000000000E+00 0.  1.
</event>
<event>
 7    1  0.2604986E-013  0.7246155E+02  0.7816164E-02  0.1226708E+00
        -11   -1    0    0    0    0  0.00000000000E+00  0.00000000000E+00  0.45593999997E+02  0.45594000000E+02  0.51100000000E-03 0.  1.
         11   -1    0    0    0    0 -0.00000000000E+00 -0.00000000000E+00 -0.45593999997E+02  0.45594000000E+02  0.51100000000E-03 0. -1.
    9900012    2    1    2    0    0 -0.15374212243E+02 -0.62126804272E+01  0.87014989084E+01  0.72461551233E+02  0.69999975169E+02 0.  0.
        -12    1    1    2    0    0  0.15374212243E+02  0.62126804272E+01 -0.87014989084E+01  0.18726448767E+02  0.00000000000E+00 0.  1.
         11    1    3    3    0    0 -0.10705282880E+02  0.28671720204E+01  0.24863090719E+02  0.27221260759E+02  0.51100000000E-03 0. -1.
        -11    1    3    3    0    0  0.96456914516E+01  0.61211801449E+01  0.75132695339E+01  0.13673237703E+02  0.51100000000E-03 0.  1.
         12    1    3    3    0    0 -0.14314620814E+02 -0.15201032592E+02 -0.23674861344E+02  0.31567052770E+02  0.00000000000E+00 0. -1.
</event>
<event>
 7    1  0.2604986E-013  0.7246158E+02  0.7816164E-02  0.1226708E+00
        -11   -1    0    0    0    0  0.00000000000E+00  0.00000000000E+00  0.45593999997E+02  0.45594000000E+02  0.51100000000E-03 0. -1.
         11   -1    0    0    0    0 -0.00000000000E+00 -0.00000000000E+00 -0.45593999997E+02  0.45594000000E+02  0.51100000000E-03 0.  1.
    9900012    2    1    2    0    0 -0.12439230589E+02  0.31964680321E+01  0.13628173908E+02  0.72461575098E+02  0.70000006258E+02 0.  0.
        -12    1    1    2    0    0  0.12439230589E+02 -0.31964680321E+01 -0.13628173908E+02  0.18726424902E+02  0.00000000000E+00 0.  1.
         11    1    3    3    0    0 -0.41106384803E+01  0.33747004668E+02  0.13499285788E+02  0.36578523614E+02  0.51100000000E-03 0. -1.
        -11    1    3    3    0    0  0.41301261828E+01 -0.17174368453E+01  0.52881659813E-01  0.44732905488E+01  0.51100000000E-03 0.  1.
        -12    1    3    3    0    0 -0.12458718292E+02 -0.28833099790E+02  0.76006460380E-01  0.31409760935E+02  0.00000000000E+00 0.  1.
</event>
<event>
 7    1  0.2604986E-013  0.7246152E+02  0.7816164E-02  0.1226708E+00
        -11   -1    0    0    0    0  0.00000000000E+00  0.00000000000E+00  0.45593999997E+02  0.45594000000E+02  0.51100000000E-03 0. -1.
         11   -1    0    0    0    0 -0.00000000000E+00 -0.00000000000E+00 -0.45593999997E+02  0.45594000000E+02  0.51100000000E-03 0.  1.
    9900012    2    1    2    0    0 -0.17447860303E+02  0.67028716209E+01  0.11509300093E+01  0.72461522568E+02  0.69999937827E+02 0.  0.
        -12    1    1    2    0    0  0.17447860303E+02 -0.67028716209E+01 -0.11509300093E+01  0.18726477432E+02  0.00000000000E+00 0.  1.
         11    1    3    3    0    0 -0.16844871214E+02  0.10965143542E+02 -0.65231025436E+01  0.21131373031E+02  0.51100000000E-03 0. -1.
        -11    1    3    3    0    0 -0.65823733464E+01  0.18101566658E+02  0.17647854677E+02  0.26123574206E+02  0.51100000000E-03 0.  1.
         12    1    3    3    0    0  0.59793842571E+01 -0.22363838580E+02 -0.99738221241E+01  0.25206575330E+02  0.00000000000E+00 0. -1.
</event>
<event>
 7    1  0.2604986E-013  0.7246160E+02  0.7816164E-02  0.1226708E+00
        -11   -1    0    0    0    0  0.00000000000E+00  0.00000000000E+00  0.45593999997E+02  0.45594000000E+02  0.51100000000E-03 0. -1.
         11   -1    0    0    0    0 -0.00000000000E+00 -0.00000000000E+00 -0.45593999997E+02  0.45594000000E+02  0.51100000000E-03 0.  1.
    9900012    2    1    2    0    0 -0.15381597395E+02 -0.79592289332E+01  0.71228536303E+01  0.72461603991E+02  0.70000043896E+02 0.  0.
        -12    1    1    2    0    0  0.15381597395E+02  0.79592289332E+01 -0.71228536303E+01  0.18726396009E+02  0.00000000000E+00 0.  1.
         11    1    3    3    0    0 -0.13103684235E+02 -0.15513432711E+02  0.97102210932E+01  0.22509143230E+02  0.51100000000E-03 0. -1.
        -11    1    3    3    0    0  0.13723184359E+02  0.22308826927E+02  0.54457359112E+01  0.26751926803E+02  0.51100000000E-03 0.  1.
         12    1    3    3    0    0 -0.16001097519E+02 -0.14754623149E+02 -0.80331033741E+01  0.23200533958E+02  0.00000000000E+00 0. -1.
</event>
<event>
 7    1  0.2604986E-013  0.7246155E+02  0.7816164E-02  0.1226708E+00
        -11   -1    0    0    0    0  0.00000000000E+00  0.00000000000E+00  0.45593999997E+02  0.45594000000E+02  0.51100000000E-03 0.  1.
         11   -1    0    0    0    0 -0.00000000000E+00 -0.00000000000E+00 -0.45593999997E+02  0.45594000000E+02  0.51100000000E-03 0. -1.
    9900012    2    1    2    0    0 -0.52133696911E+01 -0.12687710429E+02 -0.12748437928E+02  0.72461551082E+02  0.69999974973E+02 0.  0.
        -12    1    1    2    0    0  0.52133696911E+01  0.12687710429E+02  0.12748437928E+02  0.18726448918E+02  0.00000000000E+00 0.  1.
         11    1    3    3    0    0 -0.16190753438E+02 -0.21509589876E+02 -0.30073488113E+01  0.27089612413E+02  0.51100000000E-03 0. -1.
        -11    1    3    3    0    0  0.66827679302E+00 -0.78829909835E+01  0.13069766594E+02  0.15277661463E+02  0.51100000000E-03 0.  1.
         12    1    3    3    0    0  0.10309106954E+02  0.16704870431E+02 -0.22810855711E+02  0.30094277206E+02  0.00000000000E+00 0. -1.
</event>
<event>
 7    1  0.2604986E-013  0.7246163E+02  0.7816164E-02  0.1226708E+00
        -11   -1    0    0    0    0  0.00000000000E+00  0.00000000000E+00  0.45593999997E+02  0.45594000000E+02  0.51100000000E-03 0.  1.
         11   -1    0    0    0    0 -0.00000000000E+00 -0.00000000000E+00 -0.45593999997E+02  0.45594000000E+02  0.51100000000E-03 0. -1.
    9900012    2    1    2    0    0 -0.15071218355E+02  0.34266216937E+01  0.10573247932E+02  0.72461630070E+02  0.70000077868E+02 0.  0.
        -12    1    1    2    0    0  0.15071218355E+02 -0.34266216937E+01 -0.10573247932E+02  0.18726369930E+02  0.00000000000E+00 0.  1.
         11    1    3    3    0    0 -0.17063046943E+02 -0.57583126699E+01  0.83021405381E+01  0.19830059847E+02  0.51100000000E-03 0. -1.
        -11    1    3    3    0    0 -0.15784527681E+02  0.49673492364E+01  0.20820649172E+02  0.26595588069E+02  0.51100000000E-03 0.  1.
         12    1    3    3    0    0  0.17776356269E+02  0.42175851272E+01 -0.18549541778E+02  0.26035982153E+02  0.00000000000E+00 0. -1.
</event>
<event>
 7    1  0.2604986E-013  0.7246150E+02  0.7816164E-02  0.1226708E+00
        -11   -1    0    0    0    0  0.00000000000E+00  0.00000000000E+00  0.45593999997E+02  0.45594000000E+02  0.51100000000E-03 0.  1.
         11   -1    0    0    0    0 -0.00000000000E+00 -0.00000000000E+00 -0.45593999997E+02  0.45594000000E+02  0.51100000000E-03 0. -1.
    9900012    2    1    2    0    0 -0.16117559889E+02  0.48518309012E+01 -0.82076708187E+01  0.72461498454E+02  0.69999906415E+02 0.  0.
        -12    1    1    2    0    0  0.16117559889E+02 -0.48518309012E+01  0.82076708187E+01  0.18726501546E+02  0.00000000000E+00 0.  1.
         11    1    3    3    0    0 -0.63189575360E+01  0.20193834884E+02  0.14573598411E+02  0.25692605212E+02  0.51100000000E-03 0. -1.
        -11    1    3    3    0    0 -0.26291013430E+01 -0.62162045242E+01  0.99601597487E+01  0.12031548323E+02  0.51100000000E-03 0.  1.
        -12    1    3    3    0    0 -0.71695010104E+01 -0.91257994588E+01 -0.32741428978E+02  0.34737344919E+02  0.00000000000E+00 0.  1.
</event>
<event>
 7    1  0.2604986E-013  0.7246153E+02  0.7816164E-02  0.1226708E+00
        -11   -1    0    0    0    0  0.00000000000E+00  0.00000000000E+00  0.45593999997E+02  0.45594000000E+02  0.51100000000E-03 0. -1.
         11   -1    0    0    0    0 -0.00000000000E+00 -0.00000000000E+00 -0.45593999997E+02  0.45594000000E+02  0.51100000000E-03 0.  1.
    9900012    2    1    2    0    0 -0.15196283235E+02 -0.10291635067E+02  0.37196432323E+01  0.72461534176E+02  0.69999952949E+02 0.  0.
        -12    1    1    2    0    0  0.15196283235E+02  0.10291635067E+02 -0.37196432323E+01  0.18726465824E+02  0.00000000000E+00 0.  1.
         11    1    3    3    0    0 -0.51330456420E+01 -0.14075477095E+01  0.27678556140E+02  0.28185666896E+02  0.51100000000E-03 0. -1.
        -11    1    3    3    0    0  0.11023993824E+02  0.44345263436E+01 -0.47568024220E+01  0.12799243464E+02  0.51100000000E-03 0.  1.
        -12    1    3    3    0    0 -0.21087231416E+02 -0.13318613701E+02 -0.19202110486E+02  0.31476623815E+02  0.00000000000E+00 0.  1.
</event>
<event>
 7    1  0.2604986E-013  0.7246175E+02  0.7816164E-02  0.1226708E+00
        -11   -1    0    0    0    0  0.00000000000E+00  0.00000000000E+00  0.45593999997E+02  0.45594000000E+02  0.51100000000E-03 0.  1.
         11   -1    0    0    0    0 -0.00000000000E+00 -0.00000000000E+00 -0.45593999997E+02  0.45594000000E+02  0.51100000000E-03 0. -1.
    9900012    2    1    2    0    0  0.16456319581E+02 -0.20948707152E+00 -0.89340991853E+01  0.72461749247E+02  0.70000233119E+02 0.  0.
        -12    1    1    2    0    0 -0.16456319581E+02  0.20948707152E+00  0.89340991853E+01  0.18726250753E+02  0.00000000000E+00 0.  1.
         11    1    3    3    0    0  0.30004351367E+02 -0.91345759290E+01 -0.15084278984E+02  0.34802831078E+02  0.51100000000E-03 0. -1.
        -11    1    3    3    0    0  0.52023306909E+01 -0.86253303848E+01  0.64748518351E+01  0.11974317326E+02  0.51100000000E-03 0.  1.
         12    1    3    3    0    0 -0.18750362476E+02  0.17550419242E+02 -0.32467203619E+00  0.25684600844E+02  0.00000000000E+00 0. -1.
</event>
<event>
 7    1  0.2604986E-013  0.7246164E+02  0.7816164E-02  0.1226708E+00
        -11   -1    0    0    0    0  0.00000000000E+00  0.00000000000E+00  0.45593999997E+02  0.45594000000E+02  0.51100000000E-03 0.  1.
         11   -1    0    0    0    0 -0.00000000000E+00 -0.00000000000E+00 -0.45593999997E+02  0.45594000000E+02  0.51100000000E-03 0. -1.
    9900012    2    1    2    0    0 -0.67215480851E+01  0.17385449918E+02 -0.18009543208E+01  0.72461641198E+02  0.70000092365E+02 0.  0.
        -12    1    1    2    0    0  0.67215480851E+01 -0.17385449918E+02  0.18009543208E+01  0.18726358802E+02  0.00000000000E+00 0.  1.
         11    1    3    3    0    0 -0.14447524920E+02  0.16831178453E+02 -0.10735779366E+02  0.24642980812E+02  0.51100000000E-03 0. -1.
        -11    1    3    3    0    0 -0.29882370976E+01 -0.21758498741E+02  0.67205234302E+01  0.22967961682E+02  0.51100000000E-03 0.  1.
         12    1    3    3    0    0  0.10714213933E+02  0.22312770206E+02  0.22143016152E+01  0.24850698704E+02  0.00000000000E+00 0. -1.
</event>
<event>
 7    1  0.2604986E-013  0.7246171E+02  0.7816164E-02  0.1226708E+00
        -11   -1    0    0    0    0  0.00000000000E+00  0.00000000000E+00  0.45593999997E+02  0.45594000000E+02  0.51100000000E-03 0.  1.
         11   -1    0    0    0    0 -0.00000000000E+00 -0.00000000000E+00 -0.45593999997E+02  0.45594000000E+02  0.51100000000E-03 0. -1.
    9900012    2    1    2    0    0 -0.11591664782E+01  0.18547479467E+02 -0.23068186719E+01  0.72461706350E+02  0.70000177237E+02 0.  0.
        -12    1    1    2    0    0  0.11591664782E+01 -0.18547479467E+02  0.23068186719E+01  0.18726293650E+02  0.00000000000E+00 0.  1.
         11    1    3    3    0    0 -0.96731788482E+01  0.61515181777E+01  0.81039817530E+01  0.14038735179E+02  0.51100000000E-03 0. -1.
        -11    1    3    3    0    0  0.11638845879E+02  0.54320659329E+01  0.21809695054E+02  0.25310726428E+02  0.51100000000E-03 0.  1.
         12    1    3    3    0    0 -0.31248335087E+01  0.69638953560E+01 -0.32220495479E+02  0.33112244743E+02  0.00000000000E+00 0. -1.
</event>
<event>
 7    1  0.2604986E-013  0.7246163E+02  0.7816164E-02  0.1226708E+00
        -11   -1    0    0    0    0  0.00000000000E+00  0.00000000000E+00  0.45593999997E+02  0.45594000000E+02  0.51100000000E-03 0. -1.
         11   -1    0    0    0    0 -0.00000000000E+00 -0.00000000000E+00 -0.45593999997E+02  0.45594000000E+02  0.51100000000E-03 0.  1.
    9900012    2    1    2    0    0  0.99305940550E+01  0.54628624274E+01  0.14906961013E+02  0.72461626864E+02  0.70000073693E+02 0.  0.
        -12    1    1    2    0    0 -0.99305940550E+01 -0.54628624274E+01 -0.14906961013E+02  0.18726373136E+02  0.00000000000E+00 0.  1.
         11    1    3    3    0    0 -0.90152410064E+00 -0.94429402326E-01 -0.41318218725E+01  0.42300844984E+01  0.51100000000E-03 0. -1.
        -11    1    3    3    0    0  0.31745731985E+01 -0.13201736257E+02 -0.20043273462E+02  0.24209431355E+02  0.51100000000E-03 0.  1.
         12    1    3    3    0    0  0.76575449571E+01  0.18759028087E+02  0.39082056347E+02  0.44022111011E+02  0.00000000000E+00 0. -1.
</event>
<event>
 7    1  0.2604986E-013  0.7246156E+02  0.7816164E-02  0.1226708E+00
        -11   -1    0    0    0    0  0.00000000000E+00  0.00000000000E+00  0.45593999997E+02  0.45594000000E+02  0.51100000000E-03 0.  1.
         11   -1    0    0    0    0 -0.00000000000E+00 -0.00000000000E+00 -0.45593999997E+02  0.45594000000E+02  0.51100000000E-03 0. -1.
    9900012    2    1    2    0    0 -0.26836527219E+01  0.29242332636E+01 -0.18300996863E+02  0.72461558312E+02  0.69999984391E+02 0.  0.
        -12    1    1    2    0    0  0.26836527219E+01 -0.29242332636E+01  0.18300996863E+02  0.18726441688E+02  0.00000000000E+00 0.  1.
         11    1    3    3    0    0 -0.92790384688E+01 -0.17126913103E+01 -0.29610966752E+02  0.31078018255E+02  0.51100000000E-03 0. -1.
        -11    1    3    3    0    0 -0.49999499481E+01  0.12526273210E+02 -0.93512423004E+01  0.16411969804E+02  0.51100000000E-03 0.  1.
        -12    1    3    3    0    0  0.11595335695E+02 -0.78893486366E+01  0.20661212189E+02  0.24971570253E+02  0.00000000000E+00 0.  1.
</event>
<event>
 7    1  0.2604986E-013  0.7246153E+02  0.7816164E-02  0.1226708E+00
        -11   -1    0    0    0    0  0.00000000000E+00  0.00000000000E+00  0.45593999997E+02  0.45594000000E+02  0.51100000000E-03 0. -1.
         11   -1    0    0    0    0 -0.00000000000E+00 -0.00000000000E+00 -0.45593999997E+02  0.45594000000E+02  0.51100000000E-03 0.  1.
    9900012    2    1    2    0    0  0.34649386081E+01  0.18390528468E+02  0.68067396086E+00  0.72461530660E+02  0.69999948369E+02 0.  0.
        -12    1    1    2    0    0 -0.34649386081E+01 -0.18390528468E+02 -0.68067396086E+00  0.18726469340E+02  0.00000000000E+00 0.  1.
         11    1    3    3    0    0  0.16920076609E+02 -0.13015666754E+02  0.91741245509E+01  0.23234911987E+02  0.51100000000E-03 0. -1.
        -11    1    3    3    0    0 -0.63165217086E+01  0.10713599436E+02  0.13389780893E+02  0.18274733705E+02  0.51100000000E-03 0.  1.
        -12    1    3    3    0    0 -0.71386162921E+01  0.20692595787E+02 -0.21883231483E+02  0.30951884968E+02  0.00000000000E+00 0.  1.
</event>
<event>
 7    1  0.2604986E-013  0.7246161E+02  0.7816164E-02  0.1226708E+00
        -11   -1    0    0    0    0  0.00000000000E+00  0.00000000000E+00  0.45593999997E+02  0.45594000000E+02  0.51100000000E-03 0. -1.
         11   -1    0    0    0    0 -0.00000000000E+00 -0.00000000000E+00 -0.45593999997E+02  0.45594000000E+02  0.51100000000E-03 0.  1.
    9900012    2    1    2    0    0 -0.18589345284E+02  0.21086612970E+01  0.81709636453E+00  0.72461605338E+02  0.70000045651E+02 0.  0.
        -12    1    1    2    0    0  0.18589345284E+02 -0.21086612970E+01 -0.81709636453E+00  0.18726394662E+02  0.00000000000E+00 0.  1.
         11    1    3    3    0    0 -0.14220178732E+02  0.53600787408E+01 -0.34735802315E+01  0.15588767981E+02  0.51100000000E-03 0. -1.
        -11    1    3    3    0    0 -0.20154127092E+02  0.18317286695E+02 -0.65815906965E+01  0.28018371956E+02  0.51100000000E-03 0.  1.
         12    1    3    3    0    0  0.15784960540E+02 -0.21568704139E+02  0.10872267293E+02  0.28854465401E+02  0.00000000000E+00 0. -1.
</event>
<event>
 7    1  0.2604986E-013  0.7246156E+02  0.7816164E-02  0.1226708E+00
        -11   -1    0    0    0    0  0.00000000000E+00  0.00000000000E+00  0.45593999997E+02  0.45594000000E+02  0.51100000000E-03 0. -1.
         11   -1    0    0    0    0 -0.00000000000E+00 -0.00000000000E+00 -0.45593999997E+02  0.45594000000E+02  0.51100000000E-03 0.  1.
    9900012    2    1    2    0    0 -0.77912386831E+01  0.15443960713E+02  0.71735767228E+01  0.72461560784E+02  0.69999987611E+02 0.  0.
        -12    1    1    2    0    0  0.77912386831E+01 -0.15443960713E+02 -0.71735767228E+01  0.18726439216E+02  0.00000000000E+00 0.  1.
         11    1    3    3    0    0 -0.22925486063E+01 -0.77528324246E+01  0.48971000315E+01  0.94521838057E+01  0.51100000000E-03 0.  1.
        -11    1    3    3    0    0  0.21629888992E+02 -0.25717248743E+01  0.11273421014E+02  0.24526636302E+02  0.51100000000E-03 0. -1.
        -12    1    3    3    0    0 -0.27128579069E+02  0.25768518012E+02 -0.89969443232E+01  0.38482740677E+02  0.00000000000E+00 0.  1.
</event>
<event>
 7    1  0.2604986E-013  0.7246156E+02  0.7816164E-02  0.1226708E+00
        -11   -1    0    0    0    0  0.00000000000E+00  0.00000000000E+00  0.45593999997E+02  0.45594000000E+02  0.51100000000E-03 0. -1.
         11   -1    0    0    0    0 -0.00000000000E+00 -0.00000000000E+00 -0.45593999997E+02  0.45594000000E+02  0.51100000000E-03 0.  1.
    9900012    2    1    2    0    0 -0.14397457298E+02  0.11963962637E+02  0.50649016147E+00  0.72461555839E+02  0.69999981169E+02 0.  0.
        -12    1    1    2    0    0  0.14397457298E+02 -0.11963962637E+02 -0.50649016147E+00  0.18726444161E+02  0.00000000000E+00 0.  1.
         11    1    3    3    0    0  0.10236864320E+02  0.10361309852E+02  0.10749833100E+02  0.18102735839E+02  0.51100000000E-03 0. -1.
        -11    1    3    3    0    0 -0.36223671785E+01  0.18696556491E+00 -0.27126051282E+02  0.27367483599E+02  0.51100000000E-03 0.  1.
        -12    1    3    3    0    0 -0.21011954439E+02  0.14156872201E+01  0.16882708344E+02  0.26991336401E+02  0.00000000000E+00 0.  1.
</event>
<event>
 7    1  0.2604986E-013  0.7246159E+02  0.7816164E-02  0.1226708E+00
        -11   -1    0    0    0    0  0.00000000000E+00  0.00000000000E+00  0.45593999997E+02  0.45594000000E+02  0.51100000000E-03 0. -1.
         11   -1    0    0    0    0 -0.00000000000E+00 -0.00000000000E+00 -0.45593999997E+02  0.45594000000E+02  0.51100000000E-03 0.  1.
    9900012    2    1    2    0    0 -0.41554034495E+01  0.14420436296E+02  0.11200992023E+02  0.72461585952E+02  0.70000020397E+02 0.  0.
        -12    1    1    2    0    0  0.41554034495E+01 -0.14420436296E+02 -0.11200992023E+02  0.18726414048E+02  0.00000000000E+00 0.  1.
         11    1    3    3    0    0  0.18093471010E+02  0.62167901619E+01  0.14189787223E+02  0.23819576714E+02  0.51100000000E-03 0. -1.
        -11    1    3    3    0    0  0.83733992410E+01 -0.37181649122E+01 -0.11493418417E+02  0.14698205072E+02  0.51100000000E-03 0.  1.
        -12    1    3    3    0    0 -0.30622273701E+02  0.11921811046E+02  0.85046232170E+01  0.33943804167E+02  0.00000000000E+00 0.  1.
</event>
<event>
 7    1  0.2604986E-013  0.7246157E+02  0.7816164E-02  0.1226708E+00
        -11   -1    0    0    0    0  0.00000000000E+00  0.00000000000E+00  0.45593999997E+02  0.45594000000E+02  0.51100000000E-03 0. -1.
         11   -1    0    0    0    0 -0.00000000000E+00 -0.00000000000E+00 -0.45593999997E+02  0.45594000000E+02  0.51100000000E-03 0.  1.
    9900012    2    1    2    0    0 -0.17407529746E+02 -0.50207839264E+01  0.47380067328E+01  0.72461572928E+02  0.70000003431E+02 0.  0.
        -12    1    1    2    0    0  0.17407529746E+02  0.50207839264E+01 -0.47380067328E+01  0.18726427072E+02  0.00000000000E+00 0.  1.
         11    1    3    3    0    0  0.12494364798E+02  0.58486103329E+01  0.48063078285E+01  0.14608764141E+02  0.51100000000E-03 0. -1.
        -11    1    3    3    0    0 -0.19657712773E+02  0.13538753856E+02  0.14208153057E+02  0.27777601426E+02  0.51100000000E-03 0.  1.
        -12    1    3    3    0    0 -0.10244181771E+02 -0.24408148115E+02 -0.14276454152E+02  0.30075207360E+02  0.00000000000E+00 0.  1.
</event>
<event>
 7    1  0.2604986E-013  0.7246147E+02  0.7816164E-02  0.1226708E+00
        -11   -1    0    0    0    0  0.00000000000E+00  0.00000000000E+00  0.45593999997E+02  0.45594000000E+02  0.51100000000E-03 0. -1.
         11   -1    0    0    0    0 -0.00000000000E+00 -0.00000000000E+00 -0.45593999997E+02  0.45594000000E+02  0.51100000000E-03 0.  1.
    9900012    2    1    2    0    0  0.75087247092E+01  0.15296269590E+02 -0.77669827200E+01  0.72461472540E+02  0.69999872657E+02 0.  0.
        -12    1    1    2    0    0 -0.75087247092E+01 -0.15296269590E+02  0.77669827200E+01  0.18726527460E+02  0.00000000000E+00 0.  1.
         11    1    3    3    0    0  0.10737116003E+02  0.63588781434E+01  0.53454367583E+00  0.12490265349E+02  0.51100000000E-03 0. -1.
        -11    1    3    3    0    0  0.14767983279E+02 -0.92561612448E+01 -0.24215848881E+02  0.29835837317E+02  0.51100000000E-03 0.  1.
        -12    1    3    3    0    0 -0.17996374572E+02  0.18193552691E+02  0.15914322486E+02  0.30135369874E+02  0.00000000000E+00 0.  1.
</event>
<event>
 7    1  0.2604986E-013  0.7246154E+02  0.7816164E-02  0.1226708E+00
        -11   -1    0    0    0    0  0.00000000000E+00  0.00000000000E+00  0.45593999997E+02  0.45594000000E+02  0.51100000000E-03 0. -1.
         11   -1    0    0    0    0 -0.00000000000E+00 -0.00000000000E+00 -0.45593999997E+02  0.45594000000E+02  0.51100000000E-03 0.  1.
    9900012    2    1    2    0    0 -0.88479344676E+00 -0.18702297102E+02 -0.34874422588E+00  0.72461537471E+02  0.69999957241E+02 0.  0.
        -12    1    1    2    0    0  0.88479344676E+00  0.18702297102E+02  0.34874422588E+00  0.18726462529E+02  0.00000000000E+00 0.  1.
         11    1    3    3    0    0 -0.28980324495E+01 -0.17868801047E+01  0.23604514221E+02  0.23848786645E+02  0.51100000000E-03 0. -1.
        -11    1    3    3    0    0  0.19611980856E+01 -0.14432738699E+02  0.79630318119E+01  0.16600003620E+02  0.51100000000E-03 0.  1.
        -12    1    3    3    0    0  0.52040917078E-01 -0.24826782980E+01 -0.31916290258E+02  0.32012747205E+02  0.00000000000E+00 0.  1.
</event>
<event>
 7    1  0.2604986E-013  0.7246161E+02  0.7816164E-02  0.1226708E+00
        -11   -1    0    0    0    0  0.00000000000E+00  0.00000000000E+00  0.45593999997E+02  0.45594000000E+02  0.51100000000E-03 0. -1.
         11   -1    0    0    0    0 -0.00000000000E+00 -0.00000000000E+00 -0.45593999997E+02  0.45594000000E+02  0.51100000000E-03 0.  1.
    9900012    2    1    2    0    0  0.12211363817E+02  0.63236845765E+01 -0.12711067784E+02  0.72461611210E+02  0.70000053301E+02 0.  0.
        -12    1    1    2    0    0 -0.12211363817E+02 -0.63236845765E+01  0.12711067784E+02  0.18726388790E+02  0.00000000000E+00 0.  1.
         11    1    3    3    0    0  0.19445169840E+02  0.88533085268E+01 -0.13829854262E+02  0.25451140861E+02  0.51100000000E-03 0. -1.
        -11    1    3    3    0    0  0.10232851168E+01 -0.28731569033E+01 -0.22128624812E+02  0.22337819485E+02  0.51100000000E-03 0.  1.
         12    1    3    3    0    0 -0.82570911400E+01  0.34353295300E+00  0.23247411290E+02  0.24672650864E+02  0.00000000000E+00 0. -1.
</event>
<event>
 7    1  0.2604986E-013  0.7246195E+02  0.7816164E-02  0.1226707E+00
        -11   -1    0    0    0    0  0.00000000000E+00  0.00000000000E+00  0.45593999997E+02  0.45594000000E+02  0.51100000000E-03 0.  1.
         11   -1    0    0    0    0 -0.00000000000E+00 -0.00000000000E+00 -0.45593999997E+02  0.45594000000E+02  0.51100000000E-03 0. -1.
    9900012    2    1    2    0    0 -0.58512768557E+01 -0.16142719649E+01 -0.17715007598E+02  0.72461953727E+02  0.70000499490E+02 0.  0.
        -12    1    1    2    0    0  0.58512768557E+01  0.16142719649E+01  0.17715007598E+02  0.18726046273E+02  0.00000000000E+00 0.  1.
         11    1    3    3    0    0 -0.22493808008E+02 -0.52241364914E+01  0.22127540341E+01  0.23198260311E+02  0.51100000000E-03 0. -1.
        -11    1    3    3    0    0  0.21777551489E+00 -0.17391001273E+02 -0.13009773805E+02  0.21719773621E+02  0.51100000000E-03 0.  1.
         12    1    3    3    0    0  0.16424755637E+02  0.21000865800E+02 -0.69179878279E+01  0.27543919795E+02  0.00000000000E+00 0. -1.
</event>
<event>
 7    1  0.2604986E-013  0.7246171E+02  0.7816164E-02  0.1226708E+00
        -11   -1    0    0    0    0  0.00000000000E+00  0.00000000000E+00  0.45593999997E+02  0.45594000000E+02  0.51100000000E-03 0. -1.
         11   -1    0    0    0    0 -0.00000000000E+00 -0.00000000000E+00 -0.45593999997E+02  0.45594000000E+02  0.51100000000E-03 0.  1.
    9900012    2    1    2    0    0 -0.10081389368E+02 -0.59445596290E+00  0.15769782083E+02  0.72461713223E+02  0.70000186191E+02 0.  0.
        -12    1    1    2    0    0  0.10081389368E+02  0.59445596290E+00 -0.15769782083E+02  0.18726286777E+02  0.00000000000E+00 0.  1.
         11    1    3    3    0    0  0.23621645789E+02 -0.12928724285E+02  0.48546404002E+01  0.27362412084E+02  0.51100000000E-03 0. -1.
        -11    1    3    3    0    0 -0.16432661715E+02 -0.56257838313E+01 -0.11667274956E+01  0.17408132240E+02  0.51100000000E-03 0.  1.
        -12    1    3    3    0    0 -0.17270373441E+02  0.17960052154E+02  0.12081869179E+02  0.27691168899E+02  0.00000000000E+00 0.  1.
</event>
<event>
 7    1  0.2604986E-013  0.7246157E+02  0.7816164E-02  0.1226708E+00
        -11   -1    0    0    0    0  0.00000000000E+00  0.00000000000E+00  0.45593999997E+02  0.45594000000E+02  0.51100000000E-03 0. -1.
         11   -1    0    0    0    0 -0.00000000000E+00 -0.00000000000E+00 -0.45593999997E+02  0.45594000000E+02  0.51100000000E-03 0.  1.
    9900012    2    1    2    0    0  0.15021615008E+02  0.93318686808E+01  0.61600627335E+01  0.72461573127E+02  0.70000003691E+02 0.  0.
        -12    1    1    2    0    0 -0.15021615008E+02 -0.93318686808E+01 -0.61600627335E+01  0.18726426873E+02  0.00000000000E+00 0.  1.
         11    1    3    3    0    0  0.93566002603E+01 -0.24243868916E+02  0.21677534764E+02  0.33841197706E+02  0.51100000000E-03 0. -1.
        -11    1    3    3    0    0  0.50177212305E+00 -0.60159114305E+00 -0.52987405607E+00  0.94575575245E+00  0.51100000000E-03 0.  1.
        -12    1    3    3    0    0  0.51632426251E+01  0.34177328740E+02 -0.14987597974E+02  0.37674619669E+02  0.00000000000E+00 0.  1.
</event>
<event>
 7    1  0.2604986E-013  0.7246159E+02  0.7816164E-02  0.1226708E+00
        -11   -1    0    0    0    0  0.00000000000E+00  0.00000000000E+00  0.45593999997E+02  0.45594000000E+02  0.51100000000E-03 0.  1.
         11   -1    0    0    0    0 -0.00000000000E+00 -0.00000000000E+00 -0.45593999997E+02  0.45594000000E+02  0.51100000000E-03 0. -1.
    9900012    2    1    2    0    0  0.31482174981E+01 -0.13648295728E+01 -0.18409357436E+02  0.72461588855E+02  0.70000024178E+02 0.  0.
        -12    1    1    2    0    0 -0.31482174981E+01  0.13648295728E+01  0.18409357436E+02  0.18726411145E+02  0.00000000000E+00 0.  1.
         11    1    3    3    0    0  0.14604261813E+02  0.10818245352E+02 -0.28843210425E+02  0.34091783225E+02  0.51100000000E-03 0. -1.
        -11    1    3    3    0    0 -0.51036979713E+01  0.11380485846E+02  0.26208623900E+01  0.12744885680E+02  0.51100000000E-03 0.  1.
        -12    1    3    3    0    0 -0.63523463441E+01 -0.23563560771E+02  0.78129905987E+01  0.25624919949E+02  0.00000000000E+00 0.  1.
</event>
<event>
 7    1  0.2604986E-013  0.7246150E+02  0.7816164E-02  0.1226708E+00
        -11   -1    0    0    0    0  0.00000000000E+00  0.00000000000E+00  0.45593999997E+02  0.45594000000E+02  0.51100000000E-03 0.  1.
         11   -1    0    0    0    0 -0.00000000000E+00 -0.00000000000E+00 -0.45593999997E+02  0.45594000000E+02  0.51100000000E-03 0. -1.
    9900012    2    1    2    0    0 -0.15702254641E+02  0.10100964812E+02 -0.14462453011E+01  0.72461496952E+02  0.69999904458E+02 0.  0.
        -12    1    1    2    0    0  0.15702254641E+02 -0.10100964812E+02  0.14462453011E+01  0.18726503048E+02  0.00000000000E+00 0.  1.
         11    1    3    3    0    0 -0.50460357716E+01 -0.17243031129E+02 -0.50804323300E+01  0.18670709479E+02  0.51100000000E-03 0. -1.
        -11    1    3    3    0    0 -0.18076969507E+02 -0.38917703889E+01  0.10057517673E+02  0.21049379214E+02  0.51100000000E-03 0.  1.
        -12    1    3    3    0    0  0.74207506375E+01  0.31235766330E+02 -0.64233306436E+01  0.32741408259E+02  0.00000000000E+00 0.  1.
</event>
<event>
 7    1  0.2604986E-013  0.7246158E+02  0.7816164E-02  0.1226708E+00
        -11   -1    0    0    0    0  0.00000000000E+00  0.00000000000E+00  0.45593999997E+02  0.45594000000E+02  0.51100000000E-03 0. -1.
         11   -1    0    0    0    0 -0.00000000000E+00 -0.00000000000E+00 -0.45593999997E+02  0.45594000000E+02  0.51100000000E-03 0.  1.
    9900012    2    1    2    0    0  0.73994991988E+00  0.10903783087E+02  0.15206543667E+02  0.72461575307E+02  0.70000006529E+02 0.  0.
        -12    1    1    2    0    0 -0.73994991988E+00 -0.10903783087E+02 -0.15206543667E+02  0.18726424693E+02  0.00000000000E+00 0.  1.
         11    1    3    3    0    0  0.22968512651E+01  0.86509714052E+01  0.26346224628E+02  0.27825139432E+02  0.51100000000E-03 0. -1.
        -11    1    3    3    0    0 -0.74299756530E+01  0.17375909428E+02  0.71346358636E+01  0.20199747420E+02  0.51100000000E-03 0.  1.
        -12    1    3    3    0    0  0.58730743078E+01 -0.15123097746E+02 -0.18274316824E+02  0.24436688455E+02  0.00000000000E+00 0.  1.
</event>
<event>
 7    1  0.2604986E-013  0.7246157E+02  0.7816164E-02  0.1226708E+00
        -11   -1    0    0    0    0  0.00000000000E+00  0.00000000000E+00  0.45593999997E+02  0.45594000000E+02  0.51100000000E-03 0.  1.
         11   -1    0    0    0    0 -0.00000000000E+00 -0.00000000000E+00 -0.45593999997E+02  0.45594000000E+02  0.51100000000E-03 0. -1.
    9900012    2    1    2    0    0 -0.98906411271E+01 -0.15807110787E+02 -0.17290902192E+01  0.72461567176E+02  0.69999995937E+02 0.  0.
        -12    1    1    2    0    0  0.98906411271E+01  0.15807110787E+02  0.17290902192E+01  0.18726432824E+02  0.00000000000E+00 0.  1.
         11    1    3    3    0    0 -0.23435531263E+02  0.83818907709E+01  0.41050896588E+01  0.25225621496E+02  0.51100000000E-03 0. -1.
        -11    1    3    3    0    0 -0.10210886547E+01 -0.17703049692E+02  0.13418968414E+02  0.22237565154E+02  0.51100000000E-03 0.  1.
        -12    1    3    3    0    0  0.14565978791E+02 -0.64859518664E+01 -0.19253148292E+02  0.24998380526E+02  0.00000000000E+00 0.  1.
</event>
<event>
 7    1  0.2604986E-013  0.7246160E+02  0.7816164E-02  0.1226708E+00
        -11   -1    0    0    0    0  0.00000000000E+00  0.00000000000E+00  0.45593999997E+02  0.45594000000E+02  0.51100000000E-03 0.  1.
         11   -1    0    0    0    0 -0.00000000000E+00 -0.00000000000E+00 -0.45593999997E+02  0.45594000000E+02  0.51100000000E-03 0. -1.
    9900012    2    1    2    0    0 -0.13778860837E+02 -0.11457480715E+02 -0.54357270686E+01  0.72461601546E+02  0.70000040711E+02 0.  0.
        -12    1    1    2    0    0  0.13778860837E+02  0.11457480715E+02  0.54357270686E+01  0.18726398454E+02  0.00000000000E+00 0.  1.
         11    1    3    3    0    0  0.19857590849E+01  0.27246802221E+01  0.79616829281E+00  0.34642467677E+01  0.51100000000E-03 0. -1.
        -11    1    3    3    0    0 -0.26342499729E+02 -0.25838881313E+02  0.17246209012E+02  0.40730907246E+02  0.51100000000E-03 0.  1.
         12    1    3    3    0    0  0.10577879807E+02  0.11656720376E+02 -0.23478104373E+02  0.28266447532E+02  0.00000000000E+00 0. -1.
</event>
<event>
 7    1  0.2604986E-013  0.7246162E+02  0.7816164E-02  0.1226708E+00
        -11   -1    0    0    0    0  0.00000000000E+00  0.00000000000E+00  0.45593999997E+02  0.45594000000E+02  0.51100000000E-03 0.  1.
         11   -1    0    0    0    0 -0.00000000000E+00 -0.00000000000E+00 -0.45593999997E+02  0.45594000000E+02  0.51100000000E-03 0. -1.
    9900012    2    1    2    0    0 -0.72044073933E+01  0.26688656876E+01 -0.17077793423E+02  0.72461618659E+02  0.70000063004E+02 0.  0.
        -12    1    1    2    0    0  0.72044073933E+01 -0.26688656876E+01  0.17077793423E+02  0.18726381341E+02  0.00000000000E+00 0.  1.
         11    1    3    3    0    0  0.53731538192E+01 -0.25940662357E+01  0.41492969460E+01  0.72675048680E+01  0.51100000000E-03 0. -1.
        -11    1    3    3    0    0  0.11421832047E+02  0.23538415984E+02  0.32270853323E+01  0.26361512748E+02  0.51100000000E-03 0.  1.
         12    1    3    3    0    0 -0.23999393260E+02 -0.18275484061E+02 -0.24454175701E+02  0.38832601043E+02  0.00000000000E+00 0. -1.
</event>
<event>
 7    1  0.2604986E-013  0.7246152E+02  0.7816164E-02  0.1226708E+00
        -11   -1    0    0    0    0  0.00000000000E+00  0.00000000000E+00  0.45593999997E+02  0.45594000000E+02  0.51100000000E-03 0. -1.
         11   -1    0    0    0    0 -0.00000000000E+00 -0.00000000000E+00 -0.45593999997E+02  0.45594000000E+02  0.51100000000E-03 0.  1.
    9900012    2    1    2    0    0 -0.16744640727E+01  0.18231782438E+02 -0.39343795231E+01  0.72461519737E+02  0.69999934139E+02 0.  0.
        -12    1    1    2    0    0  0.16744640727E+01 -0.18231782438E+02  0.39343795231E+01  0.18726480263E+02  0.00000000000E+00 0.  1.
         11    1    3    3    0    0  0.13061077818E+02  0.28006444905E+02 -0.33115906325E+01  0.31079242957E+02  0.51100000000E-03 0. -1.
        -11    1    3    3    0    0 -0.46147888445E+01  0.84053809567E+01 -0.13762382148E+02  0.16773487049E+02  0.51100000000E-03 0.  1.
        -12    1    3    3    0    0 -0.10120753046E+02 -0.18180043423E+02  0.13139593258E+02  0.24608789732E+02  0.00000000000E+00 0.  1.
</event>
<event>
 7    1  0.2604986E-013  0.7246156E+02  0.7816164E-02  0.1226708E+00
        -11   -1    0    0    0    0  0.00000000000E+00  0.00000000000E+00  0.45593999997E+02  0.45594000000E+02  0.51100000000E-03 0.  1.
         11   -1    0    0    0    0 -0.00000000000E+00 -0.00000000000E+00 -0.45593999997E+02  0.45594000000E+02  0.51100000000E-03 0. -1.
    9900012    2    1    2    0    0 -0.97139039711E+01 -0.30332138537E+01 -0.15720029290E+02  0.72461557799E+02  0.69999983722E+02 0.  0.
        -12    1    1    2    0    0  0.97139039711E+01  0.30332138537E+01  0.15720029290E+02  0.18726442201E+02  0.00000000000E+00 0.  1.
         11    1    3    3    0    0 -0.27878151876E+01  0.39436995883E+01  0.81231823428E+00  0.48974014679E+01  0.51100000000E-03 0. -1.
        -11    1    3    3    0    0 -0.28950228353E+02  0.10345064627E+02  0.63451705648E+01  0.31391038109E+02  0.51100000000E-03 0.  1.
         12    1    3    3    0    0  0.22024139569E+02 -0.17321978069E+02 -0.22877518089E+02  0.36173118222E+02  0.00000000000E+00 0. -1.
</event>
<event>
 7    1  0.2604986E-013  0.7246147E+02  0.7816164E-02  0.1226708E+00
        -11   -1    0    0    0    0  0.00000000000E+00  0.00000000000E+00  0.45593999997E+02  0.45594000000E+02  0.51100000000E-03 0.  1.
         11   -1    0    0    0    0 -0.00000000000E+00 -0.00000000000E+00 -0.45593999997E+02  0.45594000000E+02  0.51100000000E-03 0. -1.
    9900012    2    1    2    0    0  0.18197835709E+02  0.36697935806E+01  0.24605210453E+01  0.72461474075E+02  0.69999874656E+02 0.  0.
        -12    1    1    2    0    0 -0.18197835709E+02 -0.36697935806E+01 -0.24605210453E+01  0.18726525925E+02  0.00000000000E+00 0.  1.
         11    1    3    3    0    0  0.16102720502E+02 -0.16559670262E+02  0.12915598766E+02  0.26463805065E+02  0.51100000000E-03 0. -1.
        -11    1    3    3    0    0  0.35432670392E+01 -0.66006207732E+01  0.98098637814E+01  0.12343271996E+02  0.51100000000E-03 0.  1.
         12    1    3    3    0    0 -0.14481518325E+01  0.26830084616E+02 -0.20264941502E+02  0.33654397013E+02  0.00000000000E+00 0. -1.
</event>
<event>
 7    1  0.2604986E-013  0.7246157E+02  0.7816164E-02  0.1226708E+00
        -11   -1    0    0    0    0  0.00000000000E+00  0.00000000000E+00  0.45593999997E+02  0.45594000000E+02  0.51100000000E-03 0.  1.
         11   -1    0    0    0    0 -0.00000000000E+00 -0.00000000000E+00 -0.45593999997E+02  0.45594000000E+02  0.51100000000E-03 0. -1.
    9900012    2    1    2    0    0  0.74806558369E+01 -0.17096952823E+02 -0.15533935608E+01  0.72461573776E+02  0.70000004535E+02 0.  0.
        -12    1    1    2    0    0 -0.74806558369E+01  0.17096952823E+02  0.15533935608E+01  0.18726426224E+02  0.00000000000E+00 0.  1.
         11    1    3    3    0    0  0.12317237519E+02 -0.30161601345E+01  0.18807906800E+02  0.22683670790E+02  0.51100000000E-03 0. -1.
        -11    1    3    3    0    0 -0.18267923122E+02  0.88502440614E+00  0.34494113519E+01  0.18611789874E+02  0.51100000000E-03 0.  1.
         12    1    3    3    0    0  0.13431341440E+02 -0.14965817094E+02 -0.23810711713E+02  0.31166113111E+02  0.00000000000E+00 0. -1.
</event>
<event>
 7    1  0.2604986E-013  0.7246141E+02  0.7816164E-02  0.1226708E+00
        -11   -1    0    0    0    0  0.00000000000E+00  0.00000000000E+00  0.45593999997E+02  0.45594000000E+02  0.51100000000E-03 0.  1.
         11   -1    0    0    0    0 -0.00000000000E+00 -0.00000000000E+00 -0.45593999997E+02  0.45594000000E+02  0.51100000000E-03 0. -1.
    9900012    2    1    2    0    0  0.21431674009E+01 -0.13539215490E+02 -0.12758590673E+02  0.72461410387E+02  0.69999791690E+02 0.  0.
        -12    1    1    2    0    0 -0.21431674009E+01  0.13539215490E+02  0.12758590673E+02  0.18726589613E+02  0.00000000000E+00 0.  1.
         11    1    3    3    0    0 -0.43798391545E+00 -0.10045468314E+02 -0.22225825858E+02  0.24394478861E+02  0.51100000000E-03 0. -1.
        -11    1    3    3    0    0  0.11873352017E+01 -0.25150228788E+02  0.26359988700E+01  0.25315850040E+02  0.51100000000E-03 0.  1.
        -12    1    3    3    0    0  0.13938161147E+01  0.21656481612E+02  0.68312363152E+01  0.22751081486E+02  0.00000000000E+00 0.  1.
</event>
<event>
 7    1  0.2604986E-013  0.7246154E+02  0.7816164E-02  0.1226708E+00
        -11   -1    0    0    0    0  0.00000000000E+00  0.00000000000E+00  0.45593999997E+02  0.45594000000E+02  0.51100000000E-03 0. -1.
         11   -1    0    0    0    0 -0.00000000000E+00 -0.00000000000E+00 -0.45593999997E+02  0.45594000000E+02  0.51100000000E-03 0.  1.
    9900012    2    1    2    0    0 -0.14330208530E+02 -0.26376810871E+01  0.11762989413E+02  0.72461543903E+02  0.69999965620E+02 0.  0.
        -12    1    1    2    0    0  0.14330208530E+02  0.26376810871E+01 -0.11762989413E+02  0.18726456097E+02  0.00000000000E+00 0.  1.
         11    1    3    3    0    0  0.12163248060E+02 -0.76998990924E+01  0.27495317854E+02  0.31035875266E+02  0.51100000000E-03 0. -1.
        -11    1    3    3    0    0 -0.56213200222E+00  0.33935004128E+01 -0.15043325732E+02  0.15431574346E+02  0.51100000000E-03 0.  1.
        -12    1    3    3    0    0 -0.25931324588E+02  0.16687175925E+01 -0.68900270879E+00  0.25994094291E+02  0.00000000000E+00 0.  1.
</event>
<event>
 7    1  0.2604986E-013  0.7246158E+02  0.7816164E-02  0.1226708E+00
        -11   -1    0    0    0    0  0.00000000000E+00  0.00000000000E+00  0.45593999997E+02  0.45594000000E+02  0.51100000000E-03 0.  1.
         11   -1    0    0    0    0 -0.00000000000E+00 -0.00000000000E+00 -0.45593999997E+02  0.45594000000E+02  0.51100000000E-03 0. -1.
    9900012    2    1    2    0    0 -0.12013313877E+02  0.13942098477E+02  0.34607770165E+01  0.72461580219E+02  0.70000012929E+02 0.  0.
        -12    1    1    2    0    0  0.12013313877E+02 -0.13942098477E+02 -0.34607770165E+01  0.18726419781E+02  0.00000000000E+00 0.  1.
         11    1    3    3    0    0  0.62757066897E+00 -0.16477794875E+01  0.38321308442E+01  0.42183230379E+01  0.51100000000E-03 0. -1.
        -11    1    3    3    0    0  0.10392105812E+02 -0.10203575106E+02  0.22486472729E+02  0.26790861580E+02  0.51100000000E-03 0.  1.
         12    1    3    3    0    0 -0.23032990358E+02  0.25793453071E+02 -0.22857826557E+02  0.41452395601E+02  0.00000000000E+00 0. -1.
</event>
<event>
 7    1  0.2604986E-013  0.7246149E+02  0.7816164E-02  0.1226708E+00
        -11   -1    0    0    0    0  0.00000000000E+00  0.00000000000E+00  0.45593999997E+02  0.45594000000E+02  0.51100000000E-03 0. -1.
         11   -1    0    0    0    0 -0.00000000000E+00 -0.00000000000E+00 -0.45593999997E+02  0.45594000000E+02  0.51100000000E-03 0.  1.
    9900012    2    1    2    0    0 -0.73995151083E+01  0.42563791361E+01  0.16667707644E+02  0.72461492976E+02  0.69999899279E+02 0.  0.
        -12    1    1    2    0    0  0.73995151083E+01 -0.42563791361E+01 -0.16667707644E+02  0.18726507024E+02  0.00000000000E+00 0.  1.
         11    1    3    3    0    0 -0.20352978039E+02 -0.15483420446E+02  0.20008249475E+02  0.32470141224E+02  0.51100000000E-03 0. -1.
        -11    1    3    3    0    0 -0.61570370755E+01  0.19069393944E+02  0.19973907769E+01  0.20138035186E+02  0.51100000000E-03 0.  1.
        -12    1    3    3    0    0  0.19110500006E+02  0.67040563795E+00 -0.53379326076E+01  0.19853316567E+02  0.00000000000E+00 0.  1.
</event>
<event>
 7    1  0.2604986E-013  0.7246155E+02  0.7816164E-02  0.1226708E+00
        -11   -1    0    0    0    0  0.00000000000E+00  0.00000000000E+00  0.45593999997E+02  0.45594000000E+02  0.51100000000E-03 0. -1.
         11   -1    0    0    0    0 -0.00000000000E+00 -0.00000000000E+00 -0.45593999997E+02  0.45594000000E+02  0.51100000000E-03 0.  1.
    9900012    2    1    2    0    0  0.16694453153E+02 -0.66344372703E+01 -0.52876617804E+01  0.72461551028E+02  0.69999974902E+02 0.  0.
        -12    1    1    2    0    0 -0.16694453153E+02  0.66344372703E+01  0.52876617804E+01  0.18726448972E+02  0.00000000000E+00 0.  1.
         11    1    3    3    0    0  0.18712899268E+02 -0.66934944280E+01  0.16341053952E+02  0.25729467759E+02  0.51100000000E-03 0. -1.
        -11    1    3    3    0    0 -0.29889677370E+01 -0.20493027220E+02 -0.12774490601E+02  0.24332811246E+02  0.51100000000E-03 0.  1.
         12    1    3    3    0    0  0.97052162274E+00  0.20552084377E+02 -0.88542251312E+01  0.22399272023E+02  0.00000000000E+00 0. -1.
</event>
<event>
 7    1  0.2604986E-013  0.7246164E+02  0.7816164E-02  0.1226708E+00
        -11   -1    0    0    0    0  0.00000000000E+00  0.00000000000E+00  0.45593999997E+02  0.45594000000E+02  0.51100000000E-03 0.  1.
         11   -1    0    0    0    0 -0.00000000000E+00 -0.00000000000E+00 -0.45593999997E+02  0.45594000000E+02  0.51100000000E-03 0. -1.
    9900012    2    1    2    0    0  0.39700911245E+01 -0.17548302890E+02  0.51934425518E+01  0.72461644151E+02  0.70000096212E+02 0.  0.
        -12    1    1    2    0    0 -0.39700911245E+01  0.17548302890E+02 -0.51934425518E+01  0.18726355849E+02  0.00000000000E+00 0.  1.
         11    1    3    3    0    0 -0.87346770698E+01  0.73671255857E+01 -0.66438759496E+00  0.11445983315E+02  0.51100000000E-03 0. -1.
        -11    1    3    3    0    0 -0.72718764528E+01 -0.28518921427E+02 -0.14024079351E+02  0.32601899767E+02  0.51100000000E-03 0.  1.
         12    1    3    3    0    0  0.19976644647E+02  0.36034929515E+01  0.19881909498E+02  0.28413761069E+02  0.00000000000E+00 0. -1.
</event>
<event>
 7    1  0.2604986E-013  0.7246157E+02  0.7816164E-02  0.1226708E+00
        -11   -1    0    0    0    0  0.00000000000E+00  0.00000000000E+00  0.45593999997E+02  0.45594000000E+02  0.51100000000E-03 0. -1.
         11   -1    0    0    0    0 -0.00000000000E+00 -0.00000000000E+00 -0.45593999997E+02  0.45594000000E+02  0.51100000000E-03 0.  1.
    9900012    2    1    2    0    0 -0.13091047811E+02  0.13118009671E+02  0.26872869143E+01  0.72461568908E+02  0.69999998194E+02 0.  0.
        -12    1    1    2    0    0  0.13091047811E+02 -0.13118009671E+02 -0.26872869143E+01  0.18726431092E+02  0.00000000000E+00 0.  1.
         11    1    3    3    0    0  0.45417836896E+01  0.45554347453E+01  0.50317877318E+01  0.81669255440E+01  0.51100000000E-03 0. -1.
        -11    1    3    3    0    0 -0.10958548085E+02  0.27274901725E+02 -0.21716651165E+02  0.36546175974E+02  0.51100000000E-03 0.  1.
         12    1    3    3    0    0 -0.66742834147E+01 -0.18712326799E+02  0.19372150348E+02  0.27748467389E+02  0.00000000000E+00 0. -1.
</event>
<event>
 7    1  0.2604986E-013  0.7246174E+02  0.7816164E-02  0.1226708E+00
        -11   -1    0    0    0    0  0.00000000000E+00  0.00000000000E+00  0.45593999997E+02  0.45594000000E+02  0.51100000000E-03 0.  1.
         11   -1    0    0    0    0 -0.00000000000E+00 -0.00000000000E+00 -0.45593999997E+02  0.45594000000E+02  0.51100000000E-03 0. -1.
    9900012    2    1    2    0    0  0.66961638373E+01  0.13104321746E+02 -0.11580620744E+02  0.72461744758E+02  0.70000227271E+02 0.  0.
        -12    1    1    2    0    0 -0.66961638373E+01 -0.13104321746E+02  0.11580620744E+02  0.18726255242E+02  0.00000000000E+00 0.  1.
         11    1    3    3    0    0  0.19069955441E+01  0.15011712082E+02 -0.75946269204E+01  0.16931228247E+02  0.51100000000E-03 0. -1.
        -11    1    3    3    0    0  0.22653782740E+02  0.17775140982E+02 -0.15104014661E+01  0.28834542171E+02  0.51100000000E-03 0.  1.
        -12    1    3    3    0    0 -0.17864614447E+02 -0.19682531318E+02 -0.24755923577E+01  0.26695974340E+02  0.00000000000E+00 0.  1.
</event>
<event>
 7    1  0.2604986E-013  0.7246158E+02  0.7816164E-02  0.1226708E+00
        -11   -1    0    0    0    0  0.00000000000E+00  0.00000000000E+00  0.45593999997E+02  0.45594000000E+02  0.51100000000E-03 0. -1.
         11   -1    0    0    0    0 -0.00000000000E+00 -0.00000000000E+00 -0.45593999997E+02  0.45594000000E+02  0.51100000000E-03 0.  1.
    9900012    2    1    2    0    0 -0.92032452993E+01  0.14936677378E+02 -0.65478940273E+01  0.72461575586E+02  0.70000006894E+02 0.  0.
        -12    1    1    2    0    0  0.92032452993E+01 -0.14936677378E+02  0.65478940273E+01  0.18726424414E+02  0.00000000000E+00 0.  1.
         11    1    3    3    0    0 -0.17454732639E+02  0.13569344327E+02  0.10605630448E+02  0.24520893018E+02  0.51100000000E-03 0. -1.
        -11    1    3    3    0    0  0.55008116580E+01  0.22472712387E+02 -0.59537133568E+01  0.23889923272E+02  0.51100000000E-03 0.  1.
         12    1    3    3    0    0  0.27506756817E+01 -0.21105379337E+02 -0.11199811118E+02  0.24050759296E+02  0.00000000000E+00 0. -1.
</event>
<event>
 7    1  0.2604986E-013  0.7246156E+02  0.7816164E-02  0.1226708E+00
        -11   -1    0    0    0    0  0.00000000000E+00  0.00000000000E+00  0.45593999997E+02  0.45594000000E+02  0.51100000000E-03 0.  1.
         11   -1    0    0    0    0 -0.00000000000E+00 -0.00000000000E+00 -0.45593999997E+02  0.45594000000E+02  0.51100000000E-03 0. -1.
    9900012    2    1    2    0    0  0.14634646036E+02  0.73130552610E+01  0.91118523489E+01  0.72461561602E+02  0.69999988676E+02 0.  0.
        -12    1    1    2    0    0 -0.14634646036E+02 -0.73130552610E+01 -0.91118523489E+01  0.18726438398E+02  0.00000000000E+00 0.  1.
         11    1    3    3    0    0  0.18943536270E+02 -0.16240287849E+02 -0.14752200287E+02  0.28986754378E+02  0.51100000000E-03 0. -1.
        -11    1    3    3    0    0 -0.20905060621E+01 -0.59680035514E+01  0.18697513191E+01  0.65941832127E+01  0.51100000000E-03 0.  1.
        -12    1    3    3    0    0 -0.22183841716E+01  0.29521346661E+02  0.21994301317E+02  0.36880624011E+02  0.00000000000E+00 0.  1.
</event>
<event>
 7    1  0.2604986E-013  0.7246211E+02  0.7816164E-02  0.1226707E+00
        -11   -1    0    0    0    0  0.00000000000E+00  0.00000000000E+00  0.45593999997E+02  0.45594000000E+02  0.51100000000E-03 0. -1.
         11   -1    0    0    0    0 -0.00000000000E+00 -0.00000000000E+00 -0.45593999997E+02  0.45594000000E+02  0.51100000000E-03 0.  1.
    9900012    2    1    2    0    0  0.10495352148E+02  0.49113058595E+01  0.14710056365E+02  0.72462106157E+02  0.70000698057E+02 0.  0.
        -12    1    1    2    0    0 -0.10495352148E+02 -0.49113058595E+01 -0.14710056365E+02  0.18725893843E+02  0.00000000000E+00 0.  1.
         11    1    3    3    0    0  0.13351720162E+02 -0.12864903248E+02 -0.10457337349E+02  0.21286852082E+02  0.51100000000E-03 0. -1.
        -11    1    3    3    0    0  0.36436115684E+01  0.22547580761E+02 -0.19128792211E+01  0.22920043861E+02  0.51100000000E-03 0.  1.
        -12    1    3    3    0    0 -0.64999795816E+01 -0.47713716534E+01  0.27080272935E+02  0.28255210214E+02  0.00000000000E+00 0.  1.
</event>
<event>
 7    1  0.2604986E-013  0.7246160E+02  0.7816164E-02  0.1226708E+00
        -11   -1    0    0    0    0  0.00000000000E+00  0.00000000000E+00  0.45593999997E+02  0.45594000000E+02  0.51100000000E-03 0. -1.
         11   -1    0    0    0    0 -0.00000000000E+00 -0.00000000000E+00 -0.45593999997E+02  0.45594000000E+02  0.51100000000E-03 0.  1.
    9900012    2    1    2    0    0 -0.64396633789E+01 -0.17583128247E+02  0.20579457745E+00  0.72461601126E+02  0.70000040164E+02 0.  0.
        -12    1    1    2    0    0  0.64396633789E+01  0.17583128247E+02 -0.20579457745E+00  0.18726398874E+02  0.00000000000E+00 0.  1.
         11    1    3    3    0    0 -0.73228984918E+01 -0.27889450677E+02  0.14314964718E+02  0.32192615870E+02  0.51100000000E-03 0. -1.
        -11    1    3    3    0    0 -0.47099703588E+01 -0.11411737078E+02 -0.12831114252E+02  0.17805871422E+02  0.51100000000E-03 0.  1.
        -12    1    3    3    0    0  0.55932054717E+01  0.21718059508E+02 -0.12780558891E+01  0.22463113833E+02  0.00000000000E+00 0.  1.
</event>
<event>
 7    1  0.2604986E-013  0.7246171E+02  0.7816164E-02  0.1226708E+00
        -11   -1    0    0    0    0  0.00000000000E+00  0.00000000000E+00  0.45593999997E+02  0.45594000000E+02  0.51100000000E-03 0.  1.
         11   -1    0    0    0    0 -0.00000000000E+00 -0.00000000000E+00 -0.45593999997E+02  0.45594000000E+02  0.51100000000E-03 0. -1.
    9900012    2    1    2    0    0 -0.19648765081E+00  0.52179932184E+01 -0.17983544909E+02  0.72461709708E+02  0.70000181612E+02 0.  0.
        -12    1    1    2    0    0  0.19648765081E+00 -0.52179932184E+01  0.17983544909E+02  0.18726290292E+02  0.00000000000E+00 0.  1.
         11    1    3    3    0    0 -0.45785192368E+01  0.31974979572E+02 -0.12595455374E+02  0.34669982022E+02  0.51100000000E-03 0. -1.
        -11    1    3    3    0    0  0.86391543981E+01 -0.41019031438E+01  0.67825629960E+01  0.11724493984E+02  0.51100000000E-03 0.  1.
         12    1    3    3    0    0 -0.42571228122E+01 -0.22655083210E+02 -0.12170652531E+02  0.26067233703E+02  0.00000000000E+00 0. -1.
</event>
<event>
 7    1  0.2604986E-013  0.7246157E+02  0.7816164E-02  0.1226708E+00
        -11   -1    0    0    0    0  0.00000000000E+00  0.00000000000E+00  0.45593999997E+02  0.45594000000E+02  0.51100000000E-03 0. -1.
         11   -1    0    0    0    0 -0.00000000000E+00 -0.00000000000E+00 -0.45593999997E+02  0.45594000000E+02  0.51100000000E-03 0.  1.
    9900012    2    1    2    0    0 -0.10469427284E+02  0.15398254685E+02  0.19910153983E+01  0.72461566882E+02  0.69999995555E+02 0.  0.
        -12    1    1    2    0    0  0.10469427284E+02 -0.15398254685E+02 -0.19910153983E+01  0.18726433118E+02  0.00000000000E+00 0.  1.
         11    1    3    3    0    0 -0.10899928515E+02  0.20689166616E+02  0.77439371246E+01  0.24633688707E+02  0.51100000000E-03 0. -1.
        -11    1    3    3    0    0 -0.23057422623E+02  0.12736057758E+01 -0.28276354043E+01  0.23265045281E+02  0.51100000000E-03 0.  1.
         12    1    3    3    0    0  0.23487923854E+02 -0.65645177062E+01 -0.29252863220E+01  0.24562832894E+02  0.00000000000E+00 0. -1.
</event>
<event>
 7    1  0.2604986E-013  0.7246156E+02  0.7816164E-02  0.1226708E+00
        -11   -1    0    0    0    0  0.00000000000E+00  0.00000000000E+00  0.45593999997E+02  0.45594000000E+02  0.51100000000E-03 0. -1.
         11   -1    0    0    0    0 -0.00000000000E+00 -0.00000000000E+00 -0.45593999997E+02  0.45594000000E+02  0.51100000000E-03 0.  1.
    9900012    2    1    2    0    0  0.66523564248E+01 -0.17494642611E+02  0.60275754717E+00  0.72461556591E+02  0.69999982149E+02 0.  0.
        -12    1    1    2    0    0 -0.66523564248E+01  0.17494642611E+02 -0.60275754717E+00  0.18726443409E+02  0.00000000000E+00 0.  1.
         11    1    3    3    0    0 -0.23431880361E+02 -0.49903141303E+01  0.68233684764E+01  0.24910130670E+02  0.51100000000E-03 0. -1.
        -11    1    3    3    0    0 -0.68577385411E+01 -0.43412589336E+01 -0.53258600490E+01  0.97077233453E+01  0.51100000000E-03 0.  1.
         12    1    3    3    0    0  0.36941975327E+02 -0.81630695473E+01 -0.89475088029E+00  0.37843702576E+02  0.00000000000E+00 0. -1.
</event>
<event>
 7    1  0.2604986E-013  0.7246145E+02  0.7816164E-02  0.1226708E+00
        -11   -1    0    0    0    0  0.00000000000E+00  0.00000000000E+00  0.45593999997E+02  0.45594000000E+02  0.51100000000E-03 0.  1.
         11   -1    0    0    0    0 -0.00000000000E+00 -0.00000000000E+00 -0.45593999997E+02  0.45594000000E+02  0.51100000000E-03 0. -1.
    9900012    2    1    2    0    0 -0.18497686773E+02  0.29187089794E+01  0.14789561232E-01  0.72461454756E+02  0.69999849490E+02 0.  0.
        -12    1    1    2    0    0  0.18497686773E+02 -0.29187089794E+01 -0.14789561232E-01  0.18726545244E+02  0.00000000000E+00 0.  1.
         11    1    3    3    0    0 -0.35673325639E+01 -0.47915601979E+01 -0.19552036748E+02  0.20444242515E+02  0.51100000000E-03 0. -1.
        -11    1    3    3    0    0 -0.28185251191E+02  0.15923351747E+02  0.10786838774E+02  0.34122095577E+02  0.51100000000E-03 0.  1.
         12    1    3    3    0    0  0.13254896983E+02 -0.82130825692E+01  0.87799875354E+01  0.17895116664E+02  0.00000000000E+00 0. -1.
</event>
<event>
 7    1  0.2604986E-013  0.7246151E+02  0.7816164E-02  0.1226708E+00
        -11   -1    0    0    0    0  0.00000000000E+00  0.00000000000E+00  0.45593999997E+02  0.45594000000E+02  0.51100000000E-03 0.  1.
         11   -1    0    0    0    0 -0.00000000000E+00 -0.00000000000E+00 -0.45593999997E+02  0.45594000000E+02  0.51100000000E-03 0. -1.
    9900012    2    1    2    0    0 -0.95464871239E+00  0.18626518484E+02 -0.16801711351E+01  0.72461507535E+02  0.69999918244E+02 0.  0.
        -12    1    1    2    0    0  0.95464871239E+00 -0.18626518484E+02  0.16801711351E+01  0.18726492465E+02  0.00000000000E+00 0.  1.
         11    1    3    3    0    0 -0.72808680165E+01 -0.14956423927E+01 -0.17523582116E+01  0.76366710550E+01  0.51100000000E-03 0. -1.
        -11    1    3    3    0    0 -0.15513275873E+02 -0.13949991772E+02 -0.99760176970E+01  0.23125417360E+02  0.51100000000E-03 0.  1.
         12    1    3    3    0    0  0.21839495177E+02  0.34072152649E+02  0.10048204773E+02  0.41699419119E+02  0.00000000000E+00 0. -1.
</event>
<event>
 7    1  0.2604986E-013  0.7246142E+02  0.7816164E-02  0.1226708E+00
        -11   -1    0    0    0    0  0.00000000000E+00  0.00000000000E+00  0.45593999997E+02  0.45594000000E+02  0.51100000000E-03 0.  1.
         11   -1    0    0    0    0 -0.00000000000E+00 -0.00000000000E+00 -0.45593999997E+02  0.45594000000E+02  0.51100000000E-03 0. -1.
    9900012    2    1    2    0    0 -0.34449361606E+01  0.14925464293E+02 -0.10772548268E+02  0.72461418206E+02  0.69999801876E+02 0.  0.
        -12    1    1    2    0    0  0.34449361606E+01 -0.14925464293E+02  0.10772548268E+02  0.18726581794E+02  0.00000000000E+00 0.  1.
         11    1    3    3    0    0 -0.50716969533E+01  0.25609207029E+02 -0.66536356532E+01  0.26941129566E+02  0.51100000000E-03 0. -1.
        -11    1    3    3    0    0 -0.30808821776E+01  0.16779965004E+02  0.13888750016E+01  0.17116893251E+02  0.51100000000E-03 0.  1.
         12    1    3    3    0    0  0.47076429703E+01 -0.27463707740E+02 -0.55077876162E+01  0.28403395388E+02  0.00000000000E+00 0. -1.
</event>
<event>
 7    1  0.2604986E-013  0.7246142E+02  0.7816164E-02  0.1226708E+00
        -11   -1    0    0    0    0  0.00000000000E+00  0.00000000000E+00  0.45593999997E+02  0.45594000000E+02  0.51100000000E-03 0. -1.
         11   -1    0    0    0    0 -0.00000000000E+00 -0.00000000000E+00 -0.45593999997E+02  0.45594000000E+02  0.51100000000E-03 0.  1.
    9900012    2    1    2    0    0  0.44793218840E+01  0.10690970191E+02  0.14707941416E+02  0.72461422393E+02  0.69999807331E+02 0.  0.
        -12    1    1    2    0    0 -0.44793218840E+01 -0.10690970191E+02 -0.14707941416E+02  0.18726577607E+02  0.00000000000E+00 0.  1.
         11    1    3    3    0    0 -0.89614293860E+01  0.25303018055E+02  0.10838765107E+02  0.28948726546E+02  0.51100000000E-03 0. -1.
        -11    1    3    3    0    0  0.39182625250E+01  0.79799897771E+01 -0.11531110750E+02  0.14560203757E+02  0.51100000000E-03 0.  1.
        -12    1    3    3    0    0  0.95224887450E+01 -0.22592037641E+02  0.15400287060E+02  0.28952492090E+02  0.00000000000E+00 0.  1.
</event>
<event>
 7    1  0.2604986E-013  0.7246160E+02  0.7816164E-02  0.1226708E+00
        -11   -1    0    0    0    0  0.00000000000E+00  0.00000000000E+00  0.45593999997E+02  0.45594000000E+02  0.51100000000E-03 0. -1.
         11   -1    0    0    0    0 -0.00000000000E+00 -0.00000000000E+00 -0.45593999997E+02  0.45594000000E+02  0.51100000000E-03 0.  1.
    9900012    2    1    2    0    0  0.47378187115E+01 -0.17605661463E+02  0.42745518691E+01  0.72461600576E+02  0.70000039448E+02 0.  0.
        -12    1    1    2    0    0 -0.47378187115E+01  0.17605661463E+02 -0.42745518691E+01  0.18726399424E+02  0.00000000000E+00 0.  1.
         11    1    3    3    0    0  0.68452201792E+01 -0.69516062179E+00 -0.85884413927E+01  0.11004617822E+02  0.51100000000E-03 0. -1.
        -11    1    3    3    0    0  0.18245369173E+02  0.66283358681E+01 -0.10936999593E+02  0.22281074772E+02  0.51100000000E-03 0.  1.
         12    1    3    3    0    0 -0.20352770641E+02 -0.23538836709E+02  0.23799992854E+02  0.39175907982E+02  0.00000000000E+00 0. -1.
</event>
<event>
 7    1  0.2604986E-013  0.7246142E+02  0.7816164E-02  0.1226708E+00
        -11   -1    0    0    0    0  0.00000000000E+00  0.00000000000E+00  0.45593999997E+02  0.45594000000E+02  0.51100000000E-03 0.  1.
         11   -1    0    0    0    0 -0.00000000000E+00 -0.00000000000E+00 -0.45593999997E+02  0.45594000000E+02  0.51100000000E-03 0. -1.
    9900012    2    1    2    0    0 -0.96598212547E+01 -0.15787716638E+02 -0.28496842215E+01  0.72461418799E+02  0.69999802649E+02 0.  0.
        -12    1    1    2    0    0  0.96598212547E+01  0.15787716638E+02  0.28496842215E+01  0.18726581201E+02  0.00000000000E+00 0.  1.
         11    1    3    3    0    0 -0.54189544559E+01 -0.23519726668E+02  0.42881754211E+01  0.24513895215E+02  0.51100000000E-03 0. -1.
        -11    1    3    3    0    0 -0.10906217807E+02  0.13576757912E+02  0.15701498463E+02  0.23448048885E+02  0.51100000000E-03 0.  1.
        -12    1    3    3    0    0  0.66653510077E+01 -0.58447478815E+01 -0.22839358106E+02  0.24499474699E+02  0.00000000000E+00 0.  1.
</event>
<event>
 7    1  0.2604986E-013  0.7246169E+02  0.7816164E-02  0.1226708E+00
        -11   -1    0    0    0    0  0.00000000000E+00  0.00000000000E+00  0.45593999997E+02  0.45594000000E+02  0.51100000000E-03 0.  1.
         11   -1    0    0    0    0 -0.00000000000E+00 -0.00000000000E+00 -0.45593999997E+02  0.45594000000E+02  0.51100000000E-03 0. -1.
    9900012    2    1    2    0    0  0.18364890852E+02  0.29276823837E+01 -0.21986679347E+01  0.72461690144E+02  0.70000156126E+02 0.  0.
        -12    1    1    2    0    0 -0.18364890852E+02 -0.29276823837E+01  0.21986679347E+01  0.18726309856E+02  0.00000000000E+00 0.  1.
         11    1    3    3    0    0 -0.10610532065E+01 -0.12973229177E+02  0.12402559909E+02  0.17979265884E+02  0.51100000000E-03 0.  1.
        -11    1    3    3    0    0  0.27786107542E+02 -0.58184648371E+01 -0.32048854876E+01  0.28569102133E+02  0.51100000000E-03 0. -1.
         12    1    3    3    0    0 -0.83601634841E+01  0.21719376398E+02 -0.11396342356E+02  0.25913322127E+02  0.00000000000E+00 0. -1.
</event>
<event>
 7    1  0.2604986E-013  0.7246161E+02  0.7816164E-02  0.1226708E+00
        -11   -1    0    0    0    0  0.00000000000E+00  0.00000000000E+00  0.45593999997E+02  0.45594000000E+02  0.51100000000E-03 0.  1.
         11   -1    0    0    0    0 -0.00000000000E+00 -0.00000000000E+00 -0.45593999997E+02  0.45594000000E+02  0.51100000000E-03 0. -1.
    9900012    2    1    2    0    0  0.46575952025E+01 -0.41267275857E-01 -0.18137885984E+02  0.72461606753E+02  0.70000047495E+02 0.  0.
        -12    1    1    2    0    0 -0.46575952025E+01  0.41267275857E-01  0.18137885984E+02  0.18726393247E+02  0.00000000000E+00 0.  1.
         11    1    3    3    0    0 -0.39306251921E+01  0.75479272964E+01  0.34226207533E+01  0.91725325813E+01  0.51100000000E-03 0. -1.
        -11    1    3    3    0    0 -0.18447500171E+02 -0.21981465912E+02 -0.79808444659E+01  0.29785717800E+02  0.51100000000E-03 0.  1.
         12    1    3    3    0    0  0.27035720566E+02  0.14392271339E+02 -0.13579662271E+02  0.33503356372E+02  0.00000000000E+00 0. -1.
</event>
<event>
 7    1  0.2604986E-013  0.7246161E+02  0.7816164E-02  0.1226708E+00
        -11   -1    0    0    0    0  0.00000000000E+00  0.00000000000E+00  0.45593999997E+02  0.45594000000E+02  0.51100000000E-03 0. -1.
         11   -1    0    0    0    0 -0.00000000000E+00 -0.00000000000E+00 -0.45593999997E+02  0.45594000000E+02  0.51100000000E-03 0.  1.
    9900012    2    1    2    0    0  0.71736434258E+01 -0.10072065808E+02  0.14063068253E+02  0.72461613314E+02  0.70000056040E+02 0.  0.
        -12    1    1    2    0    0 -0.71736434258E+01  0.10072065808E+02 -0.14063068253E+02  0.18726386686E+02  0.00000000000E+00 0.  1.
         11    1    3    3    0    0 -0.12846605537E+01  0.14758760458E+02 -0.15568281095E+02  0.21490526739E+02  0.51100000000E-03 0. -1.
        -11    1    3    3    0    0 -0.11076862369E+02 -0.65113212059E+01  0.29829422005E+01  0.13190607576E+02  0.51100000000E-03 0.  1.
         12    1    3    3    0    0  0.19535166348E+02 -0.18319505060E+02  0.26648407147E+02  0.37780478999E+02  0.00000000000E+00 0. -1.
</event>
<event>
 7    1  0.2604986E-013  0.7246156E+02  0.7816164E-02  0.1226708E+00
        -11   -1    0    0    0    0  0.00000000000E+00  0.00000000000E+00  0.45593999997E+02  0.45594000000E+02  0.51100000000E-03 0.  1.
         11   -1    0    0    0    0 -0.00000000000E+00 -0.00000000000E+00 -0.45593999997E+02  0.45594000000E+02  0.51100000000E-03 0. -1.
    9900012    2    1    2    0    0 -0.72463763873E+01  0.15820601070E+02  0.69194039488E+01  0.72461560403E+02  0.69999987115E+02 0.  0.
        -12    1    1    2    0    0  0.72463763873E+01 -0.15820601070E+02 -0.69194039488E+01  0.18726439597E+02  0.00000000000E+00 0.  1.
         11    1    3    3    0    0 -0.12371978532E+01  0.16337196654E+02 -0.61411181905E+01  0.17497085070E+02  0.51100000000E-03 0. -1.
        -11    1    3    3    0    0 -0.17950323060E+02  0.16773794175E+02  0.21180161326E+02  0.32437224034E+02  0.51100000000E-03 0.  1.
         12    1    3    3    0    0  0.11941144526E+02 -0.17290389758E+02 -0.81196391866E+01  0.22527251299E+02  0.00000000000E+00 0. -1.
</event>
<event>
 7    1  0.2604986E-013  0.7246156E+02  0.7816164E-02  0.1226708E+00
        -11   -1    0    0    0    0  0.00000000000E+00  0.00000000000E+00  0.45593999997E+02  0.45594000000E+02  0.51100000000E-03 0.  1.
         11   -1    0    0    0    0 -0.00000000000E+00 -0.00000000000E+00 -0.45593999997E+02  0.45594000000E+02  0.51100000000E-03 0. -1.
    9900012    2    1    2    0    0 -0.67513361695E+01  0.11798694044E+02 -0.12879820944E+02  0.72461561236E+02  0.69999988200E+02 0.  0.
        -12    1    1    2    0    0  0.67513361695E+01 -0.11798694044E+02  0.12879820944E+02  0.18726438764E+02  0.00000000000E+00 0.  1.
         11    1    3    3    0    0 -0.94250581052E+01  0.21633067744E+02 -0.25948459266E+02  0.35073407004E+02  0.51100000000E-03 0. -1.
        -11    1    3    3    0    0  0.79719457017E+01  0.44900592778E+01 -0.74572604498E+01  0.11803528467E+02  0.51100000000E-03 0.  1.
        -12    1    3    3    0    0 -0.52982237659E+01 -0.14324432978E+02  0.20525898772E+02  0.25584625766E+02  0.00000000000E+00 0.  1.
</event>
<event>
 7    1  0.2604986E-013  0.7246160E+02  0.7816164E-02  0.1226708E+00
        -11   -1    0    0    0    0  0.00000000000E+00  0.00000000000E+00  0.45593999997E+02  0.45594000000E+02  0.51100000000E-03 0.  1.
         11   -1    0    0    0    0 -0.00000000000E+00 -0.00000000000E+00 -0.45593999997E+02  0.45594000000E+02  0.51100000000E-03 0. -1.
    9900012    2    1    2    0    0 -0.10995023743E+02  0.14974690405E+02  0.23550634727E+01  0.72461595546E+02  0.70000032895E+02 0.  0.
        -12    1    1    2    0    0  0.10995023743E+02 -0.14974690405E+02 -0.23550634727E+01  0.18726404454E+02  0.00000000000E+00 0.  1.
         11    1    3    3    0    0 -0.13191417164E+02  0.21752366295E+02 -0.10489674837E+02  0.27517489070E+02  0.51100000000E-03 0. -1.
        -11    1    3    3    0    0  0.18861965488E+02  0.42497920896E+01  0.15505405271E+02  0.24784109178E+02  0.51100000000E-03 0.  1.
         12    1    3    3    0    0 -0.16665572067E+02 -0.11027467980E+02 -0.26606669606E+01  0.20159997298E+02  0.00000000000E+00 0. -1.
</event>
<event>
 7    1  0.2604986E-013  0.7246155E+02  0.7816164E-02  0.1226708E+00
        -11   -1    0    0    0    0  0.00000000000E+00  0.00000000000E+00  0.45593999997E+02  0.45594000000E+02  0.51100000000E-03 0.  1.
         11   -1    0    0    0    0 -0.00000000000E+00 -0.00000000000E+00 -0.45593999997E+02  0.45594000000E+02  0.51100000000E-03 0. -1.
    9900012    2    1    2    0    0 -0.81392336433E+01  0.13276993131E+02 -0.10399716401E+02  0.72461554204E+02  0.69999979040E+02 0.  0.
        -12    1    1    2    0    0  0.81392336433E+01 -0.13276993131E+02  0.10399716401E+02  0.18726445796E+02  0.00000000000E+00 0.  1.
         11    1    3    3    0    0 -0.10851741928E+02 -0.10820558650E+02  0.13482953315E+01  0.15383845193E+02  0.51100000000E-03 0. -1.
        -11    1    3    3    0    0 -0.17046390092E+02  0.95221418226E+01  0.12000448600E+02  0.22918581259E+02  0.51100000000E-03 0.  1.
         12    1    3    3    0    0  0.19758898377E+02  0.14575409959E+02 -0.23748460333E+02  0.34159127752E+02  0.00000000000E+00 0. -1.
</event>
<event>
 7    1  0.2604986E-013  0.7246154E+02  0.7816164E-02  0.1226708E+00
        -11   -1    0    0    0    0  0.00000000000E+00  0.00000000000E+00  0.45593999997E+02  0.45594000000E+02  0.51100000000E-03 0. -1.
         11   -1    0    0    0    0 -0.00000000000E+00 -0.00000000000E+00 -0.45593999997E+02  0.45594000000E+02  0.51100000000E-03 0.  1.
    9900012    2    1    2    0    0  0.13010394314E+02 -0.86345362844E+01 -0.10337061315E+02  0.72461537075E+02  0.69999956726E+02 0.  0.
        -12    1    1    2    0    0 -0.13010394314E+02  0.86345362844E+01  0.10337061315E+02  0.18726462925E+02  0.00000000000E+00 0.  1.
         11    1    3    3    0    0 -0.94084148345E+01 -0.19143201924E+00 -0.21334514430E+00  0.94127802656E+01  0.51100000000E-03 0. -1.
        -11    1    3    3    0    0  0.19771347759E+02  0.23197187409E+02 -0.49186070205E+01  0.30874073123E+02  0.51100000000E-03 0.  1.
         12    1    3    3    0    0  0.26474613891E+01 -0.31640291675E+02 -0.52051091498E+01  0.32174683686E+02  0.00000000000E+00 0. -1.
</event>
<event>
 7    1  0.2604986E-013  0.7246156E+02  0.7816164E-02  0.1226708E+00
        -11   -1    0    0    0    0  0.00000000000E+00  0.00000000000E+00  0.45593999997E+02  0.45594000000E+02  0.51100000000E-03 0. -1.
         11   -1    0    0    0    0 -0.00000000000E+00 -0.00000000000E+00 -0.45593999997E+02  0.45594000000E+02  0.51100000000E-03 0.  1.
    9900012    2    1    2    0    0 -0.76278611118E+01 -0.11278899547E+02  0.12856199350E+02  0.72461556080E+02  0.69999981484E+02 0.  0.
        -12    1    1    2    0    0  0.76278611118E+01  0.11278899547E+02 -0.12856199350E+02  0.18726443920E+02  0.00000000000E+00 0.  1.
         11    1    3    3    0    0 -0.13098643557E+02  0.13071556609E+02  0.10065791178E+02  0.21065616714E+02  0.51100000000E-03 0. -1.
        -11    1    3    3    0    0  0.13295563022E+02 -0.81529050254E+00  0.17931423157E+02  0.22337695301E+02  0.51100000000E-03 0.  1.
        -12    1    3    3    0    0 -0.78247805763E+01 -0.23535165654E+02 -0.15141014985E+02  0.29058244066E+02  0.00000000000E+00 0.  1.
</event>
<event>
 7    1  0.2604986E-013  0.7246158E+02  0.7816164E-02  0.1226708E+00
        -11   -1    0    0    0    0  0.00000000000E+00  0.00000000000E+00  0.45593999997E+02  0.45594000000E+02  0.51100000000E-03 0.  1.
         11   -1    0    0    0    0 -0.00000000000E+00 -0.00000000000E+00 -0.45593999997E+02  0.45594000000E+02  0.51100000000E-03 0. -1.
    9900012    2    1    2    0    0  0.22263307744E+01  0.96141814046E+01 -0.15915082279E+02  0.72461578111E+02  0.70000010183E+02 0.  0.
        -12    1    1    2    0    0 -0.22263307744E+01 -0.96141814046E+01  0.15915082279E+02  0.18726421889E+02  0.00000000000E+00 0.  1.
         11    1    3    3    0    0 -0.15544570372E+02 -0.11484013859E+02 -0.19163647318E+01  0.19421346411E+02  0.51100000000E-03 0. -1.
        -11    1    3    3    0    0 -0.92906742207E+00 -0.31565495126E+01  0.12262502341E+02  0.12696296114E+02  0.51100000000E-03 0.  1.
        -12    1    3    3    0    0  0.18699968569E+02  0.24254744776E+02 -0.26261219888E+02  0.40343935587E+02  0.00000000000E+00 0.  1.
</event>
<event>
 7    1  0.2604986E-013  0.7246157E+02  0.7816164E-02  0.1226708E+00
        -11   -1    0    0    0    0  0.00000000000E+00  0.00000000000E+00  0.45593999997E+02  0.45594000000E+02  0.51100000000E-03 0. -1.
         11   -1    0    0    0    0 -0.00000000000E+00 -0.00000000000E+00 -0.45593999997E+02  0.45594000000E+02  0.51100000000E-03 0.  1.
    9900012    2    1    2    0    0 -0.18804188061E+01  0.46753198598E+00  0.18625915164E+02  0.72461567432E+02  0.69999996271E+02 0.  0.
        -12    1    1    2    0    0  0.18804188061E+01 -0.46753198598E+00 -0.18625915164E+02  0.18726432568E+02  0.00000000000E+00 0.  1.
         11    1    3    3    0    0  0.14984474834E+01  0.47659224032E+01  0.22180838516E+02  0.22736511578E+02  0.51100000000E-03 0. -1.
        -11    1    3    3    0    0 -0.97906579410E+01  0.20640687720E+02 -0.66408918417E+01  0.23790679208E+02  0.51100000000E-03 0.  1.
         12    1    3    3    0    0  0.64117916514E+01 -0.24939078137E+02  0.30859684899E+01  0.25934376646E+02  0.00000000000E+00 0. -1.
</event>
<event>
 7    1  0.2604986E-013  0.7246155E+02  0.7816164E-02  0.1226708E+00
        -11   -1    0    0    0    0  0.00000000000E+00  0.00000000000E+00  0.45593999997E+02  0.45594000000E+02  0.51100000000E-03 0. -1.
         11   -1    0    0    0    0 -0.00000000000E+00 -0.00000000000E+00 -0.45593999997E+02  0.45594000000E+02  0.51100000000E-03 0.  1.
    9900012    2    1    2    0    0 -0.13529810372E+02 -0.55195685015E+01  0.11711466979E+02  0.72461551753E+02  0.69999975847E+02 0.  0.
        -12    1    1    2    0    0  0.13529810372E+02  0.55195685015E+01 -0.11711466979E+02  0.18726448247E+02  0.00000000000E+00 0.  1.
         11    1    3    3    0    0 -0.26868844844E+02 -0.49148696572E+01  0.36697134047E+01  0.27560071911E+02  0.51100000000E-03 0. -1.
        -11    1    3    3    0    0  0.11046285766E+01  0.11596654821E+01  0.24369734044E+02  0.24422304681E+02  0.51100000000E-03 0.  1.
         12    1    3    3    0    0  0.12234405895E+02 -0.17643643264E+01 -0.16327980470E+02  0.20479175161E+02  0.00000000000E+00 0. -1.
</event>
<event>
 7    1  0.2604986E-013  0.7246158E+02  0.7816164E-02  0.1226708E+00
        -11   -1    0    0    0    0  0.00000000000E+00  0.00000000000E+00  0.45593999997E+02  0.45594000000E+02  0.51100000000E-03 0.  1.
         11   -1    0    0    0    0 -0.00000000000E+00 -0.00000000000E+00 -0.45593999997E+02  0.45594000000E+02  0.51100000000E-03 0. -1.
    9900012    2    1    2    0    0 -0.11874931459E+02  0.10139927683E+02 -0.10336665348E+02  0.72461580665E+02  0.70000013510E+02 0.  0.
        -12    1    1    2    0    0  0.11874931459E+02 -0.10139927683E+02  0.10336665348E+02  0.18726419335E+02  0.00000000000E+00 0.  1.
         11    1    3    3    0    0 -0.54913129839E+01 -0.19579653676E+02 -0.11574748076E+02  0.23398550161E+02  0.51100000000E-03 0. -1.
        -11    1    3    3    0    0 -0.13024267904E+02 -0.40358650564E+01  0.48485773578E+01  0.14471643440E+02  0.51100000000E-03 0.  1.
        -12    1    3    3    0    0  0.66406494286E+01  0.33755446416E+02 -0.36104946302E+01  0.34591387064E+02  0.00000000000E+00 0.  1.
</event>
<event>
 7    1  0.2604986E-013  0.7246157E+02  0.7816164E-02  0.1226708E+00
        -11   -1    0    0    0    0  0.00000000000E+00  0.00000000000E+00  0.45593999997E+02  0.45594000000E+02  0.51100000000E-03 0.  1.
         11   -1    0    0    0    0 -0.00000000000E+00 -0.00000000000E+00 -0.45593999997E+02  0.45594000000E+02  0.51100000000E-03 0. -1.
    9900012    2    1    2    0    0  0.83867750066E+01  0.16458826285E+02 -0.30738177609E+01  0.72461566455E+02  0.69999994999E+02 0.  0.
        -12    1    1    2    0    0 -0.83867750066E+01 -0.16458826285E+02  0.30738177609E+01  0.18726433545E+02  0.00000000000E+00 0.  1.
         11    1    3    3    0    0 -0.19037495155E+02  0.35069774811E+01 -0.11838107999E+02  0.22690656978E+02  0.51100000000E-03 0. -1.
        -11    1    3    3    0    0 -0.94354996973E+01 -0.91631317447E+00  0.31549738918E+01  0.99911032870E+01  0.51100000000E-03 0.  1.
         12    1    3    3    0    0  0.36859769859E+02  0.13868161978E+02  0.56093163461E+01  0.39779806191E+02  0.00000000000E+00 0. -1.
</event>
<event>
 7    1  0.2604986E-013  0.7246153E+02  0.7816164E-02  0.1226708E+00
        -11   -1    0    0    0    0  0.00000000000E+00  0.00000000000E+00  0.45593999997E+02  0.45594000000E+02  0.51100000000E-03 0.  1.
         11   -1    0    0    0    0 -0.00000000000E+00 -0.00000000000E+00 -0.45593999997E+02  0.45594000000E+02  0.51100000000E-03 0. -1.
    9900012    2    1    2    0    0 -0.14735406715E+02 -0.82562404056E+01 -0.80859633835E+01  0.72461534222E+02  0.69999953009E+02 0.  0.
        -12    1    1    2    0    0  0.14735406715E+02  0.82562404056E+01  0.80859633835E+01  0.18726465778E+02  0.00000000000E+00 0.  1.
         11    1    3    3    0    0 -0.29680429556E+01  0.18410359782E+01  0.12442736201E+02  0.12923636364E+02  0.51100000000E-03 0. -1.
        -11    1    3    3    0    0 -0.75260348597E+01  0.85222597444E+01  0.15226225356E+02  0.19002843227E+02  0.51100000000E-03 0.  1.
         12    1    3    3    0    0 -0.42413289001E+01 -0.18619536128E+02 -0.35754924940E+02  0.40535054631E+02  0.00000000000E+00 0. -1.
</event>
<event>
 7    1  0.2604986E-013  0.7246135E+02  0.7816164E-02  0.1226709E+00
        -11   -1    0    0    0    0  0.00000000000E+00  0.00000000000E+00  0.45593999997E+02  0.45594000000E+02  0.51100000000E-03 0.  1.
         11   -1    0    0    0    0 -0.00000000000E+00 -0.00000000000E+00 -0.45593999997E+02  0.45594000000E+02  0.51100000000E-03 0. -1.
    9900012    2    1    2    0    0 -0.30305964974E+00  0.10015303657E+02 -0.15820533051E+02  0.72461350046E+02  0.69999713085E+02 0.  0.
        -12    1    1    2    0    0  0.30305964974E+00 -0.10015303657E+02  0.15820533051E+02  0.18726649954E+02  0.00000000000E+00 0.  1.
         11    1    3    3    0    0 -0.39005888143E+01  0.14821498622E+02 -0.10590060331E+02  0.18629030908E+02  0.51100000000E-03 0. -1.
        -11    1    3    3    0    0  0.79476764372E+01  0.93323390901E+01  0.20654861044E+02  0.24018355452E+02  0.51100000000E-03 0.  1.
         12    1    3    3    0    0 -0.43501472726E+01 -0.14138534056E+02 -0.25885333764E+02  0.29813963685E+02  0.00000000000E+00 0. -1.
</event>
<event>
 7    1  0.2604986E-013  0.7246153E+02  0.7816164E-02  0.1226708E+00
        -11   -1    0    0    0    0  0.00000000000E+00  0.00000000000E+00  0.45593999997E+02  0.45594000000E+02  0.51100000000E-03 0.  1.
         11   -1    0    0    0    0 -0.00000000000E+00 -0.00000000000E+00 -0.45593999997E+02  0.45594000000E+02  0.51100000000E-03 0. -1.
    9900012    2    1    2    0    0 -0.56498384406E+01 -0.17761354602E+02  0.18149796525E+01  0.72461533627E+02  0.69999952234E+02 0.  0.
        -12    1    1    2    0    0  0.56498384406E+01  0.17761354602E+02 -0.18149796525E+01  0.18726466373E+02  0.00000000000E+00 0.  1.
         11    1    3    3    0    0 -0.21282320908E+01 -0.15863172751E+02  0.67141302924E+01  0.17356530973E+02  0.51100000000E-03 0. -1.
        -11    1    3    3    0    0  0.22195450955E+01 -0.27394054923E+02 -0.83963628354E+01  0.28737771916E+02  0.51100000000E-03 0.  1.
         12    1    3    3    0    0 -0.57411514452E+01  0.25495873073E+02  0.34972121956E+01  0.26367230738E+02  0.00000000000E+00 0. -1.
</event>
<event>
 7    1  0.2604986E-013  0.7246156E+02  0.7816164E-02  0.1226708E+00
        -11   -1    0    0    0    0  0.00000000000E+00  0.00000000000E+00  0.45593999997E+02  0.45594000000E+02  0.51100000000E-03 0. -1.
         11   -1    0    0    0    0 -0.00000000000E+00 -0.00000000000E+00 -0.45593999997E+02  0.45594000000E+02  0.51100000000E-03 0.  1.
    9900012    2    1    2    0    0 -0.86085992325E+00  0.17557697761E+02  0.64549086691E+01  0.72461556760E+02  0.69999982370E+02 0.  0.
        -12    1    1    2    0    0  0.86085992325E+00 -0.17557697761E+02 -0.64549086691E+01  0.18726443240E+02  0.00000000000E+00 0.  1.
         11    1    3    3    0    0  0.29213297176E+01 -0.33586517438E+01 -0.56716337811E+01  0.72098639976E+01  0.51100000000E-03 0. -1.
        -11    1    3    3    0    0  0.23847798083E+02  0.20564192805E+02 -0.62002206335E+01  0.32094333383E+02  0.51100000000E-03 0.  1.
         12    1    3    3    0    0 -0.27629987723E+02  0.35215669972E+00  0.18326763084E+02  0.33157359380E+02  0.00000000000E+00 0. -1.
</event>
<event>
 7    1  0.2604986E-013  0.7246153E+02  0.7816164E-02  0.1226708E+00
        -11   -1    0    0    0    0  0.00000000000E+00  0.00000000000E+00  0.45593999997E+02  0.45594000000E+02  0.51100000000E-03 0.  1.
         11   -1    0    0    0    0 -0.00000000000E+00 -0.00000000000E+00 -0.45593999997E+02  0.45594000000E+02  0.51100000000E-03 0. -1.
    9900012    2    1    2    0    0  0.85526864910E+01 -0.28676691389E+01  0.16410627029E+02  0.72461530712E+02  0.69999948437E+02 0.  0.
        -12    1    1    2    0    0 -0.85526864910E+01  0.28676691389E+01 -0.16410627029E+02  0.18726469288E+02  0.00000000000E+00 0.  1.
         11    1    3    3    0    0 -0.99366280172E+01  0.26868070098E+02  0.78376891701E+01  0.29699480449E+02  0.51100000000E-03 0. -1.
        -11    1    3    3    0    0  0.77188432131E+01 -0.10720046672E+02 -0.79027679049E+01  0.15393299907E+02  0.51100000000E-03 0.  1.
        -12    1    3    3    0    0  0.10770471295E+02 -0.19015692565E+02  0.16475705764E+02  0.27368750356E+02  0.00000000000E+00 0.  1.
</event>
<event>
 7    1  0.2604986E-013  0.7246158E+02  0.7816164E-02  0.1226708E+00
        -11   -1    0    0    0    0  0.00000000000E+00  0.00000000000E+00  0.45593999997E+02  0.45594000000E+02  0.51100000000E-03 0.  1.
         11   -1    0    0    0    0 -0.00000000000E+00 -0.00000000000E+00 -0.45593999997E+02  0.45594000000E+02  0.51100000000E-03 0. -1.
    9900012    2    1    2    0    0 -0.10058953486E+02  0.48580078675E+01 -0.15029833135E+02  0.72461583639E+02  0.70000017384E+02 0.  0.
        -12    1    1    2    0    0  0.10058953486E+02 -0.48580078675E+01  0.15029833135E+02  0.18726416361E+02  0.00000000000E+00 0.  1.
         11    1    3    3    0    0 -0.23067190996E+02 -0.15986002128E+02 -0.17623737484E+02  0.33139759921E+02  0.51100000000E-03 0. -1.
        -11    1    3    3    0    0 -0.76264353466E+01  0.28921011849E+01 -0.65735736915E+01  0.10475621065E+02  0.51100000000E-03 0.  1.
        -12    1    3    3    0    0  0.20634672856E+02  0.17951908811E+02  0.91674780409E+01  0.28846202652E+02  0.00000000000E+00 0.  1.
</event>
<event>
 7    1  0.2604986E-013  0.7246157E+02  0.7816164E-02  0.1226708E+00
        -11   -1    0    0    0    0  0.00000000000E+00  0.00000000000E+00  0.45593999997E+02  0.45594000000E+02  0.51100000000E-03 0.  1.
         11   -1    0    0    0    0 -0.00000000000E+00 -0.00000000000E+00 -0.45593999997E+02  0.45594000000E+02  0.51100000000E-03 0. -1.
    9900012    2    1    2    0    0  0.69667357379E+01  0.15912487627E+02 -0.69954540684E+01  0.72461573567E+02  0.70000004263E+02 0.  0.
        -12    1    1    2    0    0 -0.69667357379E+01 -0.15912487627E+02  0.69954540684E+01  0.18726426433E+02  0.00000000000E+00 0.  1.
         11    1    3    3    0    0  0.10471915294E+02  0.22925325081E+00 -0.46181732679E+01  0.11447318096E+02  0.51100000000E-03 0. -1.
        -11    1    3    3    0    0  0.11755818016E+02 -0.11883610747E+02  0.17146842004E+02  0.23946474742E+02  0.51100000000E-03 0.  1.
         12    1    3    3    0    0 -0.15260997572E+02  0.27566845123E+02 -0.19524122804E+02  0.37067780730E+02  0.00000000000E+00 0. -1.
</event>
<event>
 7    1  0.2604986E-013  0.7246154E+02  0.7816164E-02  0.1226708E+00
        -11   -1    0    0    0    0  0.00000000000E+00  0.00000000000E+00  0.45593999997E+02  0.45594000000E+02  0.51100000000E-03 0. -1.
         11   -1    0    0    0    0 -0.00000000000E+00 -0.00000000000E+00 -0.45593999997E+02  0.45594000000E+02  0.51100000000E-03 0.  1.
    9900012    2    1    2    0    0 -0.18392072790E+02  0.27027530357E+01  0.22599129096E+01  0.72461536857E+02  0.69999956441E+02 0.  0.
        -12    1    1    2    0    0  0.18392072790E+02 -0.27027530357E+01 -0.22599129096E+01  0.18726463143E+02  0.00000000000E+00 0.  1.
         11    1    3    3    0    0  0.11563586546E+02 -0.15168659469E+02 -0.34457132266E+01  0.19382407069E+02  0.51100000000E-03 0. -1.
        -11    1    3    3    0    0 -0.14570140277E+02 -0.24514393052E+01 -0.14386903096E+02  0.20622354941E+02  0.51100000000E-03 0.  1.
         12    1    3    3    0    0 -0.15385519059E+02  0.20322851810E+02  0.20092529233E+02  0.32456774846E+02  0.00000000000E+00 0. -1.
</event>
<event>
 7    1  0.2604986E-013  0.7246158E+02  0.7816164E-02  0.1226708E+00
        -11   -1    0    0    0    0  0.00000000000E+00  0.00000000000E+00  0.45593999997E+02  0.45594000000E+02  0.51100000000E-03 0. -1.
         11   -1    0    0    0    0 -0.00000000000E+00 -0.00000000000E+00 -0.45593999997E+02  0.45594000000E+02  0.51100000000E-03 0.  1.
    9900012    2    1    2    0    0 -0.67764995080E+01  0.16612835758E+02  0.53639134463E+01  0.72461579494E+02  0.70000011984E+02 0.  0.
        -12    1    1    2    0    0  0.67764995080E+01 -0.16612835758E+02 -0.53639134463E+01  0.18726420506E+02  0.00000000000E+00 0.  1.
         11    1    3    3    0    0 -0.64016115796E+01  0.99978382131E+01  0.48512784620E+01  0.12824675541E+02  0.51100000000E-03 0. -1.
        -11    1    3    3    0    0  0.55001239293E+01  0.31887463447E+02 -0.59428729053E+01  0.32899535361E+02  0.51100000000E-03 0.  1.
         12    1    3    3    0    0 -0.58750118577E+01 -0.25272465903E+02  0.64555078896E+01  0.26737368592E+02  0.00000000000E+00 0. -1.
</event>
<event>
 7    1  0.2604986E-013  0.7246157E+02  0.7816164E-02  0.1226708E+00
        -11   -1    0    0    0    0  0.00000000000E+00  0.00000000000E+00  0.45593999997E+02  0.45594000000E+02  0.51100000000E-03 0. -1.
         11   -1    0    0    0    0 -0.00000000000E+00 -0.00000000000E+00 -0.45593999997E+02  0.45594000000E+02  0.51100000000E-03 0.  1.
    9900012    2    1    2    0    0  0.44226264736E+01  0.84290272218E+01  0.16126715108E+02  0.72461573085E+02  0.70000003635E+02 0.  0.
        -12    1    1    2    0    0 -0.44226264736E+01 -0.84290272218E+01 -0.16126715108E+02  0.18726426915E+02  0.00000000000E+00 0.  1.
         11    1    3    3    0    0 -0.14900077109E+02 -0.18365569779E+02  0.18038070135E+02  0.29743544268E+02  0.51100000000E-03 0. -1.
        -11    1    3    3    0    0  0.45081017297E+01  0.11069082590E+02 -0.13639574413E+02  0.18135202260E+02  0.51100000000E-03 0.  1.
        -12    1    3    3    0    0  0.14814601853E+02  0.15725514411E+02  0.11728219386E+02  0.24582826557E+02  0.00000000000E+00 0.  1.
</event>
<event>
 7    1  0.2604986E-013  0.7246159E+02  0.7816164E-02  0.1226708E+00
        -11   -1    0    0    0    0  0.00000000000E+00  0.00000000000E+00  0.45593999997E+02  0.45594000000E+02  0.51100000000E-03 0. -1.
         11   -1    0    0    0    0 -0.00000000000E+00 -0.00000000000E+00 -0.45593999997E+02  0.45594000000E+02  0.51100000000E-03 0.  1.
    9900012    2    1    2    0    0  0.15108195740E+02  0.48461687859E+01  0.99466400644E+01  0.72461586062E+02  0.70000020540E+02 0.  0.
        -12    1    1    2    0    0 -0.15108195740E+02 -0.48461687859E+01 -0.99466400644E+01  0.18726413938E+02  0.00000000000E+00 0.  1.
         11    1    3    3    0    0  0.19105522242E+02 -0.92210233864E+01 -0.32393853803E+01  0.21460239289E+02  0.51100000000E-03 0. -1.
        -11    1    3    3    0    0  0.13247978241E+02  0.21876028861E+02 -0.34411928911E+01  0.25805258670E+02  0.51100000000E-03 0.  1.
         12    1    3    3    0    0 -0.17245304743E+02 -0.78088366890E+01  0.16627218336E+02  0.25196088104E+02  0.00000000000E+00 0. -1.
</event>
<event>
 7    1  0.2604986E-013  0.7246159E+02  0.7816164E-02  0.1226708E+00
        -11   -1    0    0    0    0  0.00000000000E+00  0.00000000000E+00  0.45593999997E+02  0.45594000000E+02  0.51100000000E-03 0.  1.
         11   -1    0    0    0    0 -0.00000000000E+00 -0.00000000000E+00 -0.45593999997E+02  0.45594000000E+02  0.51100000000E-03 0. -1.
    9900012    2    1    2    0    0  0.18575424876E+02  0.23440400531E+01 -0.37085776685E+00  0.72461589009E+02  0.70000024380E+02 0.  0.
        -12    1    1    2    0    0 -0.18575424876E+02 -0.23440400531E+01  0.37085776685E+00  0.18726410991E+02  0.00000000000E+00 0.  1.
         11    1    3    3    0    0 -0.12974420346E+02 -0.11548729420E+02 -0.12779501180E+01  0.17416712987E+02  0.51100000000E-03 0. -1.
        -11    1    3    3    0    0 -0.73137533984E+01  0.38653844111E+01  0.10899596445E+02  0.13683325193E+02  0.51100000000E-03 0.  1.
         12    1    3    3    0    0  0.38863598620E+02  0.10027385062E+02 -0.99925040941E+01  0.41361550829E+02  0.00000000000E+00 0. -1.
</event>
<event>
 7    1  0.2604986E-013  0.7246165E+02  0.7816164E-02  0.1226708E+00
        -11   -1    0    0    0    0  0.00000000000E+00  0.00000000000E+00  0.45593999997E+02  0.45594000000E+02  0.51100000000E-03 0. -1.
         11   -1    0    0    0    0 -0.00000000000E+00 -0.00000000000E+00 -0.45593999997E+02  0.45594000000E+02  0.51100000000E-03 0.  1.
    9900012    2    1    2    0    0 -0.12069438583E+02  0.10495990084E+02  0.97385324294E+01  0.72461650397E+02  0.70000104349E+02 0.  0.
        -12    1    1    2    0    0  0.12069438583E+02 -0.10495990084E+02 -0.97385324294E+01  0.18726349603E+02  0.00000000000E+00 0.  1.
         11    1    3    3    0    0 -0.27167431787E+01  0.46329274736E+01  0.23547838035E+02  0.24152544107E+02  0.51100000000E-03 0. -1.
        -11    1    3    3    0    0 -0.41675070572E+01 -0.19676613253E+02 -0.42997797441E+01  0.20567579592E+02  0.51100000000E-03 0.  1.
        -12    1    3    3    0    0 -0.51851883475E+01  0.25539675863E+02 -0.95095258614E+01  0.27741526698E+02  0.00000000000E+00 0.  1.
</event>
<event>
 7    1  0.2604986E-013  0.7246159E+02  0.7816164E-02  0.1226708E+00
        -11   -1    0    0    0    0  0.00000000000E+00  0.00000000000E+00  0.45593999997E+02  0.45594000000E+02  0.51100000000E-03 0. -1.
         11   -1    0    0    0    0 -0.00000000000E+00 -0.00000000000E+00 -0.45593999997E+02  0.45594000000E+02  0.51100000000E-03 0.  1.
    9900012    2    1    2    0    0  0.32320564885E+01  0.13748964292E+02  0.12296263182E+02  0.72461593605E+02  0.70000030366E+02 0.  0.
        -12    1    1    2    0    0 -0.32320564885E+01 -0.13748964292E+02 -0.12296263182E+02  0.18726406395E+02  0.00000000000E+00 0.  1.
         11    1    3    3    0    0  0.15802244722E+02  0.86359459662E+01  0.21988269375E+02  0.28421373847E+02  0.51100000000E-03 0. -1.
        -11    1    3    3    0    0 -0.10159400287E+02  0.22832539623E+02 -0.70274378620E+01  0.25960030104E+02  0.51100000000E-03 0.  1.
         12    1    3    3    0    0 -0.24107879457E+01 -0.17719521297E+02 -0.26645683307E+01  0.18080189654E+02  0.00000000000E+00 0. -1.
</event>
<event>
 7    1  0.2604986E-013  0.7246138E+02  0.7816164E-02  0.1226709E+00
        -11   -1    0    0    0    0  0.00000000000E+00  0.00000000000E+00  0.45593999997E+02  0.45594000000E+02  0.51100000000E-03 0. -1.
         11   -1    0    0    0    0 -0.00000000000E+00 -0.00000000000E+00 -0.45593999997E+02  0.45594000000E+02  0.51100000000E-03 0.  1.
    9900012    2    1    2    0    0  0.46709777008E+01  0.21454593121E+01  0.18007370790E+02  0.72461376409E+02  0.69999747428E+02 0.  0.
        -12    1    1    2    0    0 -0.46709777008E+01 -0.21454593121E+01 -0.18007370790E+02  0.18726623591E+02  0.00000000000E+00 0.  1.
         11    1    3    3    0    0  0.14893748798E+02  0.16067380787E+02  0.12632683576E+02  0.25289704886E+02  0.51100000000E-03 0. -1.
        -11    1    3    3    0    0  0.11870667334E+02  0.90819137754E+01  0.24051547087E+01  0.15138648230E+02  0.51100000000E-03 0.  1.
        -12    1    3    3    0    0 -0.22093438432E+02 -0.23003835251E+02  0.29695325052E+01  0.32033023293E+02  0.00000000000E+00 0.  1.
</event>
<event>
 7    1  0.2604986E-013  0.7246159E+02  0.7816164E-02  0.1226708E+00
        -11   -1    0    0    0    0  0.00000000000E+00  0.00000000000E+00  0.45593999997E+02  0.45594000000E+02  0.51100000000E-03 0.  1.
         11   -1    0    0    0    0 -0.00000000000E+00 -0.00000000000E+00 -0.45593999997E+02  0.45594000000E+02  0.51100000000E-03 0. -1.
    9900012    2    1    2    0    0 -0.14871345174E+02 -0.62283255479E+01 -0.95252020073E+01  0.72461590315E+02  0.70000026080E+02 0.  0.
        -12    1    1    2    0    0  0.14871345174E+02  0.62283255479E+01  0.95252020073E+01  0.18726409685E+02  0.00000000000E+00 0.  1.
         11    1    3    3    0    0 -0.28227291376E+02 -0.29712714810E+02 -0.11887937097E+02  0.42672572556E+02  0.51100000000E-03 0. -1.
        -11    1    3    3    0    0 -0.89811488138E+00  0.41240298300E+01 -0.29726442452E+01  0.51624457816E+01  0.51100000000E-03 0.  1.
        -12    1    3    3    0    0  0.14254061083E+02  0.19360359433E+02  0.53353793344E+01  0.24626571978E+02  0.00000000000E+00 0.  1.
</event>
<event>
 7    1  0.2604986E-013  0.7246155E+02  0.7816164E-02  0.1226708E+00
        -11   -1    0    0    0    0  0.00000000000E+00  0.00000000000E+00  0.45593999997E+02  0.45594000000E+02  0.51100000000E-03 0. -1.
         11   -1    0    0    0    0 -0.00000000000E+00 -0.00000000000E+00 -0.45593999997E+02  0.45594000000E+02  0.51100000000E-03 0.  1.
    9900012    2    1    2    0    0 -0.52109903172E+01  0.11876025257E+02  0.13508715578E+02  0.72461553659E+02  0.69999978329E+02 0.  0.
        -12    1    1    2    0    0  0.52109903172E+01 -0.11876025257E+02 -0.13508715578E+02  0.18726446341E+02  0.00000000000E+00 0.  1.
         11    1    3    3    0    0  0.64605585624E+01  0.16874670414E+02 -0.34758451537E+01  0.18400402667E+02  0.51100000000E-03 0. -1.
        -11    1    3    3    0    0  0.14403577065E+02  0.11733702806E+02 -0.30674503061E+00  0.18580551837E+02  0.51100000000E-03 0.  1.
         12    1    3    3    0    0 -0.26075125944E+02 -0.16732347963E+02  0.17291305763E+02  0.35480599154E+02  0.00000000000E+00 0. -1.
</event>
<event>
 7    1  0.2604986E-013  0.7246166E+02  0.7816164E-02  0.1226708E+00
        -11   -1    0    0    0    0  0.00000000000E+00  0.00000000000E+00  0.45593999997E+02  0.45594000000E+02  0.51100000000E-03 0.  1.
         11   -1    0    0    0    0 -0.00000000000E+00 -0.00000000000E+00 -0.45593999997E+02  0.45594000000E+02  0.51100000000E-03 0. -1.
    9900012    2    1    2    0    0 -0.41676620220E+01  0.11849841682E+02 -0.13888402335E+02  0.72461658285E+02  0.70000114624E+02 0.  0.
        -12    1    1    2    0    0  0.41676620220E+01 -0.11849841682E+02  0.13888402335E+02  0.18726341715E+02  0.00000000000E+00 0.  1.
         11    1    3    3    0    0 -0.50635756940E+01  0.94893772074E+01 -0.71670006105E+01  0.12924936232E+02  0.51100000000E-03 0. -1.
        -11    1    3    3    0    0 -0.11554800385E+02 -0.15054670409E+02 -0.24999767361E+02  0.31387017722E+02  0.51100000000E-03 0.  1.
        -12    1    3    3    0    0  0.12450714057E+02  0.17415134884E+02  0.18278365637E+02  0.28149704331E+02  0.00000000000E+00 0.  1.
</event>
<event>
 7    1  0.2604986E-013  0.7246158E+02  0.7816164E-02  0.1226708E+00
        -11   -1    0    0    0    0  0.00000000000E+00  0.00000000000E+00  0.45593999997E+02  0.45594000000E+02  0.51100000000E-03 0.  1.
         11   -1    0    0    0    0 -0.00000000000E+00 -0.00000000000E+00 -0.45593999997E+02  0.45594000000E+02  0.51100000000E-03 0. -1.
    9900012    2    1    2    0    0  0.31815397626E+01 -0.15820948405E+02 -0.95002308378E+01  0.72461575096E+02  0.70000006255E+02 0.  0.
        -12    1    1    2    0    0 -0.31815397626E+01  0.15820948405E+02  0.95002308378E+01  0.18726424904E+02  0.00000000000E+00 0.  1.
         11    1    3    3    0    0 -0.35430092288E+01 -0.12459588074E+02  0.91709371501E+01  0.15871368493E+02  0.51100000000E-03 0. -1.
        -11    1    3    3    0    0  0.17007697267E+02 -0.81296445516E+01  0.13035133303E+02  0.22918716966E+02  0.51100000000E-03 0.  1.
        -12    1    3    3    0    0 -0.10283148275E+02  0.47682842200E+01 -0.31706301291E+02  0.33671489638E+02  0.00000000000E+00 0.  1.
</event>
<event>
 7    1  0.2604986E-013  0.7246091E+02  0.7816164E-02  0.1226710E+00
        -11   -1    0    0    0    0  0.00000000000E+00  0.00000000000E+00  0.45593999997E+02  0.45594000000E+02  0.51100000000E-03 0.  1.
         11   -1    0    0    0    0 -0.00000000000E+00 -0.00000000000E+00 -0.45593999997E+02  0.45594000000E+02  0.51100000000E-03 0. -1.
    9900012    2    1    2    0    0 -0.59305654631E-01  0.23652028799E+01 -0.18577035920E+02  0.72460908251E+02  0.69999137560E+02 0.  0.
        -12    1    1    2    0    0  0.59305654631E-01 -0.23652028799E+01  0.18577035920E+02  0.18727091749E+02  0.00000000000E+00 0.  1.
         11    1    3    3    0    0 -0.12548716152E+02 -0.11895815861E+02  0.96350748952E+01  0.19794326979E+02  0.51100000000E-03 0. -1.
        -11    1    3    3    0    0  0.13978798574E+02  0.70094770919E+01  0.66749147910E+01  0.17002766434E+02  0.51100000000E-03 0.  1.
         12    1    3    3    0    0 -0.14893880765E+01  0.72515416495E+01 -0.34887025606E+02  0.35663814838E+02  0.00000000000E+00 0. -1.
</event>
<event>
 7    1  0.2604986E-013  0.7246158E+02  0.7816164E-02  0.1226708E+00
        -11   -1    0    0    0    0  0.00000000000E+00  0.00000000000E+00  0.45593999997E+02  0.45594000000E+02  0.51100000000E-03 0.  1.
         11   -1    0    0    0    0 -0.00000000000E+00 -0.00000000000E+00 -0.45593999997E+02  0.45594000000E+02  0.51100000000E-03 0. -1.
    9900012    2    1    2    0    0 -0.18173546066E+02  0.45162904805E+01  0.65638531486E-01  0.72461575762E+02  0.70000007122E+02 0.  0.
        -12    1    1    2    0    0  0.18173546066E+02 -0.45162904805E+01 -0.65638531486E-01  0.18726424238E+02  0.00000000000E+00 0.  1.
         11    1    3    3    0    0  0.64020115880E+01  0.22926410620E+01 -0.26155519031E+02  0.27025046373E+02  0.51100000000E-03 0. -1.
        -11    1    3    3    0    0 -0.10056019185E+01 -0.77260429658E+01 -0.12570955642E+01  0.78919746988E+01  0.51100000000E-03 0.  1.
        -12    1    3    3    0    0 -0.23569955736E+02  0.99496923843E+01  0.27478253127E+02  0.37544554690E+02  0.00000000000E+00 0.  1.
</event>
<event>
 7    1  0.2604986E-013  0.7246152E+02  0.7816164E-02  0.1226708E+00
        -11   -1    0    0    0    0  0.00000000000E+00  0.00000000000E+00  0.45593999997E+02  0.45594000000E+02  0.51100000000E-03 0. -1.
         11   -1    0    0    0    0 -0.00000000000E+00 -0.00000000000E+00 -0.45593999997E+02  0.45594000000E+02  0.51100000000E-03 0.  1.
    9900012    2    1    2    0    0 -0.16908482724E+02  0.69900093729E+01  0.39905045921E+01  0.72461517523E+02  0.69999931255E+02 0.  0.
        -12    1    1    2    0    0  0.16908482724E+02 -0.69900093729E+01 -0.39905045921E+01  0.18726482477E+02  0.00000000000E+00 0.  1.
         11    1    3    3    0    0 -0.32743808575E+02  0.79831082978E+01 -0.14373681059E+02  0.36640001713E+02  0.51100000000E-03 0. -1.
        -11    1    3    3    0    0 -0.61625455230E+01  0.17040544951E+00 -0.12912844702E+01  0.62986840836E+01  0.51100000000E-03 0.  1.
        -12    1    3    3    0    0  0.21997871374E+02 -0.11635043745E+01  0.19655470122E+02  0.29522831726E+02  0.00000000000E+00 0.  1.
</event>
<event>
 7    1  0.2604986E-013  0.7246168E+02  0.7816164E-02  0.1226708E+00
        -11   -1    0    0    0    0  0.00000000000E+00  0.00000000000E+00  0.45593999997E+02  0.45594000000E+02  0.51100000000E-03 0. -1.
         11   -1    0    0    0    0 -0.00000000000E+00 -0.00000000000E+00 -0.45593999997E+02  0.45594000000E+02  0.51100000000E-03 0.  1.
    9900012    2    1    2    0    0 -0.15253862862E+02  0.10252288526E+02  0.35896042162E+01  0.72461681337E+02  0.70000144654E+02 0.  0.
        -12    1    1    2    0    0  0.15253862862E+02 -0.10252288526E+02 -0.35896042162E+01  0.18726318663E+02  0.00000000000E+00 0.  1.
         11    1    3    3    0    0  0.94795747578E+00 -0.93162781221E+01  0.14883098355E+02  0.17584034757E+02  0.51100000000E-03 0. -1.
        -11    1    3    3    0    0 -0.17502852188E+01  0.33507745885E+02 -0.84275127048E+01  0.34595599478E+02  0.51100000000E-03 0.  1.
         12    1    3    3    0    0 -0.14451535119E+02 -0.13939179237E+02 -0.28659814339E+01  0.20282047102E+02  0.00000000000E+00 0. -1.
</event>
<event>
 7    1  0.2604986E-013  0.7246153E+02  0.7816164E-02  0.1226708E+00
        -11   -1    0    0    0    0  0.00000000000E+00  0.00000000000E+00  0.45593999997E+02  0.45594000000E+02  0.51100000000E-03 0. -1.
         11   -1    0    0    0    0 -0.00000000000E+00 -0.00000000000E+00 -0.45593999997E+02  0.45594000000E+02  0.51100000000E-03 0.  1.
    9900012    2    1    2    0    0  0.14261497779E+02 -0.68634506220E+01  0.10009158109E+02  0.72461534253E+02  0.69999953049E+02 0.  0.
        -12    1    1    2    0    0 -0.14261497779E+02  0.68634506220E+01 -0.10009158109E+02  0.18726465747E+02  0.00000000000E+00 0.  1.
         11    1    3    3    0    0  0.10247036405E+02  0.78456837842E+01  0.63822136730E+01  0.14397540094E+02  0.51100000000E-03 0. -1.
        -11    1    3    3    0    0  0.14787899347E+02 -0.23099549649E+01 -0.22606624719E+02  0.27112309759E+02  0.51100000000E-03 0.  1.
         12    1    3    3    0    0 -0.10773437973E+02 -0.12399179441E+02  0.26233569155E+02  0.30951684400E+02  0.00000000000E+00 0. -1.
</event>
<event>
 7    1  0.2604986E-013  0.7246155E+02  0.7816164E-02  0.1226708E+00
        -11   -1    0    0    0    0  0.00000000000E+00  0.00000000000E+00  0.45593999997E+02  0.45594000000E+02  0.51100000000E-03 0.  1.
         11   -1    0    0    0    0 -0.00000000000E+00 -0.00000000000E+00 -0.45593999997E+02  0.45594000000E+02  0.51100000000E-03 0. -1.
    9900012    2    1    2    0    0 -0.20796930522E+01 -0.18091179522E+02 -0.43662374494E+01  0.72461550012E+02  0.69999973578E+02 0.  0.
        -12    1    1    2    0    0  0.20796930522E+01  0.18091179522E+02  0.43662374494E+01  0.18726449988E+02  0.00000000000E+00 0.  1.
         11    1    3    3    0    0 -0.17488279890E+01 -0.19697058855E+02  0.19264699580E+02  0.27607266743E+02  0.51100000000E-03 0. -1.
        -11    1    3    3    0    0 -0.17097899430E+01 -0.17285928199E+02 -0.45249159472E+01  0.17949973814E+02  0.51100000000E-03 0.  1.
         12    1    3    3    0    0  0.13789248797E+01  0.18891807531E+02 -0.19106021083E+02  0.26904309454E+02  0.00000000000E+00 0. -1.
</event>
<event>
 7    1  0.2604986E-013  0.7246153E+02  0.7816164E-02  0.1226708E+00
        -11   -1    0    0    0    0  0.00000000000E+00  0.00000000000E+00  0.45593999997E+02  0.45594000000E+02  0.51100000000E-03 0.  1.
         11   -1    0    0    0    0 -0.00000000000E+00 -0.00000000000E+00 -0.45593999997E+02  0.45594000000E+02  0.51100000000E-03 0. -1.
    9900012    2    1    2    0    0  0.16900000881E+02  0.31181167939E+00 -0.80606079096E+01  0.72461530600E+02  0.69999948291E+02 0.  0.
        -12    1    1    2    0    0 -0.16900000881E+02 -0.31181167939E+00  0.80606079096E+01  0.18726469400E+02  0.00000000000E+00 0.  1.
         11    1    3    3    0    0  0.76438464915E+01  0.22267324522E+01  0.30257239835E+01  0.85171434463E+01  0.51100000000E-03 0. -1.
        -11    1    3    3    0    0  0.26243578221E+02  0.12619118055E+02  0.12282119012E+02  0.31604081794E+02  0.51100000000E-03 0.  1.
         12    1    3    3    0    0 -0.16987423831E+02 -0.14534038828E+02 -0.23368450905E+02  0.32340305360E+02  0.00000000000E+00 0. -1.
</event>
<event>
 7    1  0.2604986E-013  0.7246157E+02  0.7816164E-02  0.1226708E+00
        -11   -1    0    0    0    0  0.00000000000E+00  0.00000000000E+00  0.45593999997E+02  0.45594000000E+02  0.51100000000E-03 0. -1.
         11   -1    0    0    0    0 -0.00000000000E+00 -0.00000000000E+00 -0.45593999997E+02  0.45594000000E+02  0.51100000000E-03 0.  1.
    9900012    2    1    2    0    0  0.59250713928E+00 -0.17578737080E+02 -0.64277741329E+01  0.72461565680E+02  0.69999993989E+02 0.  0.
        -12    1    1    2    0    0 -0.59250713928E+00  0.17578737080E+02  0.64277741329E+01  0.18726434320E+02  0.00000000000E+00 0.  1.
         11    1    3    3    0    0  0.92261721877E+01 -0.13689052272E+02  0.19353308355E+02  0.25437432062E+02  0.51100000000E-03 0. -1.
        -11    1    3    3    0    0  0.80099535008E+01 -0.14526562718E+02 -0.29746151423E+01  0.16853151485E+02  0.51100000000E-03 0.  1.
         12    1    3    3    0    0 -0.16643618549E+02  0.10636877911E+02 -0.22806467346E+02  0.30170982133E+02  0.00000000000E+00 0. -1.
</event>
<event>
 7    1  0.2604986E-013  0.7246160E+02  0.7816164E-02  0.1226708E+00
        -11   -1    0    0    0    0  0.00000000000E+00  0.00000000000E+00  0.45593999997E+02  0.45594000000E+02  0.51100000000E-03 0.  1.
         11   -1    0    0    0    0 -0.00000000000E+00 -0.00000000000E+00 -0.45593999997E+02  0.45594000000E+02  0.51100000000E-03 0. -1.
    9900012    2    1    2    0    0  0.19692266080E+01  0.14447016857E+02 -0.11750908103E+02  0.72461601768E+02  0.70000041000E+02 0.  0.
        -12    1    1    2    0    0 -0.19692266080E+01 -0.14447016857E+02  0.11750908103E+02  0.18726398232E+02  0.00000000000E+00 0.  1.
         11    1    3    3    0    0  0.19498028730E+01  0.60235461230E+01  0.95340726496E+00  0.64026420183E+01  0.51100000000E-03 0. -1.
        -11    1    3    3    0    0  0.11713201419E+02  0.32967905184E+02  0.21962106503E+01  0.35055744197E+02  0.51100000000E-03 0.  1.
        -12    1    3    3    0    0 -0.11693777684E+02 -0.24544434450E+02 -0.14900526018E+02  0.31003215553E+02  0.00000000000E+00 0.  1.
</event>
<event>
 7    1  0.2604986E-013  0.7246157E+02  0.7816164E-02  0.1226708E+00
        -11   -1    0    0    0    0  0.00000000000E+00  0.00000000000E+00  0.45593999997E+02  0.45594000000E+02  0.51100000000E-03 0.  1.
         11   -1    0    0    0    0 -0.00000000000E+00 -0.00000000000E+00 -0.45593999997E+02  0.45594000000E+02  0.51100000000E-03 0. -1.
    9900012    2    1    2    0    0  0.86521029924E+01  0.34831764904E+01 -0.16238467174E+02  0.72461568924E+02  0.69999998216E+02 0.  0.
        -12    1    1    2    0    0 -0.86521029924E+01 -0.34831764904E+01  0.16238467174E+02  0.18726431076E+02  0.00000000000E+00 0.  1.
         11    1    3    3    0    0  0.17310741316E+02  0.15161858977E+02  0.35086490635E+01  0.23277765165E+02  0.51100000000E-03 0. -1.
        -11    1    3    3    0    0 -0.50957524237E+01  0.15169065481E+02 -0.59521258361E+00  0.16013167039E+02  0.51100000000E-03 0.  1.
         12    1    3    3    0    0 -0.35628859003E+01 -0.26847747968E+02 -0.19151903654E+02  0.33170636721E+02  0.00000000000E+00 0. -1.
</event>
<event>
 7    1  0.2604986E-013  0.7246158E+02  0.7816164E-02  0.1226708E+00
        -11   -1    0    0    0    0  0.00000000000E+00  0.00000000000E+00  0.45593999997E+02  0.45594000000E+02  0.51100000000E-03 0.  1.
         11   -1    0    0    0    0 -0.00000000000E+00 -0.00000000000E+00 -0.45593999997E+02  0.45594000000E+02  0.51100000000E-03 0. -1.
    9900012    2    1    2    0    0  0.13327276489E+02  0.13148574926E+02 -0.42127540289E+00  0.72461580316E+02  0.70000013055E+02 0.  0.
        -12    1    1    2    0    0 -0.13327276489E+02 -0.13148574926E+02  0.42127540289E+00  0.18726419684E+02  0.00000000000E+00 0.  1.
         11    1    3    3    0    0  0.15258476798E+02  0.16670450167E+02 -0.84457631275E+01  0.24125835489E+02  0.51100000000E-03 0. -1.
        -11    1    3    3    0    0 -0.17449252712E+01 -0.15705464108E+02 -0.15315712146E+02  0.22006303776E+02  0.51100000000E-03 0.  1.
        -12    1    3    3    0    0 -0.18627503824E+00  0.12183588868E+02  0.23340199871E+02  0.26329441052E+02  0.00000000000E+00 0.  1.
</event>
<event>
 7    1  0.2604986E-013  0.7246177E+02  0.7816164E-02  0.1226707E+00
        -11   -1    0    0    0    0  0.00000000000E+00  0.00000000000E+00  0.45593999997E+02  0.45594000000E+02  0.51100000000E-03 0.  1.
         11   -1    0    0    0    0 -0.00000000000E+00 -0.00000000000E+00 -0.45593999997E+02  0.45594000000E+02  0.51100000000E-03 0. -1.
    9900012    2    1    2    0    0 -0.35328831348E+01  0.31301480402E+01 -0.18121606799E+02  0.72461769120E+02  0.70000259007E+02 0.  0.
        -12    1    1    2    0    0  0.35328831348E+01 -0.31301480402E+01  0.18121606799E+02  0.18726230880E+02  0.00000000000E+00 0.  1.
         11    1    3    3    0    0  0.92017377398E+00  0.55482468729E+00 -0.13576805949E+00  0.10830435979E+01  0.51100000000E-03 0. -1.
        -11    1    3    3    0    0  0.13829999762E+01 -0.12603599668E+02  0.23564634004E+02  0.26759211302E+02  0.51100000000E-03 0.  1.
         12    1    3    3    0    0 -0.58360568850E+01  0.15178923020E+02 -0.41550472743E+02  0.44619514220E+02  0.00000000000E+00 0. -1.
</event>
<event>
 7    1  0.2604986E-013  0.7246156E+02  0.7816164E-02  0.1226708E+00
        -11   -1    0    0    0    0  0.00000000000E+00  0.00000000000E+00  0.45593999997E+02  0.45594000000E+02  0.51100000000E-03 0. -1.
         11   -1    0    0    0    0 -0.00000000000E+00 -0.00000000000E+00 -0.45593999997E+02  0.45594000000E+02  0.51100000000E-03 0.  1.
    9900012    2    1    2    0    0  0.13601969212E+02  0.12102872332E+02 -0.43802485405E+01  0.72461557134E+02  0.69999982856E+02 0.  0.
        -12    1    1    2    0    0 -0.13601969212E+02 -0.12102872332E+02  0.43802485405E+01  0.18726442866E+02  0.00000000000E+00 0.  1.
         11    1    3    3    0    0  0.10459079771E+02 -0.15324751648E+02 -0.61593343391E+01  0.19549367317E+02  0.51100000000E-03 0. -1.
        -11    1    3    3    0    0 -0.47888992632E+00 -0.12519264253E+02 -0.17342353580E+01  0.12647880673E+02  0.51100000000E-03 0.  1.
         12    1    3    3    0    0  0.36217793678E+01  0.39946888233E+02  0.35133211566E+01  0.40264309144E+02  0.00000000000E+00 0. -1.
</event>
<event>
 7    1  0.2604986E-013  0.7246157E+02  0.7816164E-02  0.1226708E+00
        -11   -1    0    0    0    0  0.00000000000E+00  0.00000000000E+00  0.45593999997E+02  0.45594000000E+02  0.51100000000E-03 0.  1.
         11   -1    0    0    0    0 -0.00000000000E+00 -0.00000000000E+00 -0.45593999997E+02  0.45594000000E+02  0.51100000000E-03 0. -1.
    9900012    2    1    2    0    0 -0.26312409819E+01  0.92232056691E+00 -0.18517700850E+02  0.72461565500E+02  0.69999993754E+02 0.  0.
        -12    1    1    2    0    0  0.26312409819E+01 -0.92232056691E+00  0.18517700850E+02  0.18726434500E+02  0.00000000000E+00 0.  1.
         11    1    3    3    0    0 -0.44385916674E+01  0.60209541859E+01  0.15063499168E+02  0.16818501501E+02  0.51100000000E-03 0. -1.
        -11    1    3    3    0    0 -0.34391200560E+01  0.71742765643E+01  0.84127787511E+01  0.11578973942E+02  0.51100000000E-03 0.  1.
         12    1    3    3    0    0  0.52464707415E+01 -0.12272910183E+02 -0.41993978769E+02  0.44064090056E+02  0.00000000000E+00 0. -1.
</event>
<event>
 7    1  0.2604986E-013  0.7246155E+02  0.7816164E-02  0.1226708E+00
        -11   -1    0    0    0    0  0.00000000000E+00  0.00000000000E+00  0.45593999997E+02  0.45594000000E+02  0.51100000000E-03 0.  1.
         11   -1    0    0    0    0 -0.00000000000E+00 -0.00000000000E+00 -0.45593999997E+02  0.45594000000E+02  0.51100000000E-03 0. -1.
    9900012    2    1    2    0    0 -0.11093299618E+02  0.14850564951E+02  0.26606810245E+01  0.72461553479E+02  0.69999978095E+02 0.  0.
        -12    1    1    2    0    0  0.11093299618E+02 -0.14850564951E+02 -0.26606810245E+01  0.18726446521E+02  0.00000000000E+00 0.  1.
         11    1    3    3    0    0 -0.13861835999E+01  0.14626086447E+01  0.31522799107E+01  0.37413363811E+01  0.51100000000E-03 0. -1.
        -11    1    3    3    0    0 -0.24966193637E+01 -0.12515008676E+02  0.27247814911E+02  0.30088236374E+02  0.51100000000E-03 0.  1.
         12    1    3    3    0    0 -0.72104966544E+01  0.25902964982E+02 -0.27739413797E+02  0.38631980724E+02  0.00000000000E+00 0. -1.
</event>
<event>
 7    1  0.2604986E-013  0.7246142E+02  0.7816164E-02  0.1226708E+00
        -11   -1    0    0    0    0  0.00000000000E+00  0.00000000000E+00  0.45593999997E+02  0.45594000000E+02  0.51100000000E-03 0.  1.
         11   -1    0    0    0    0 -0.00000000000E+00 -0.00000000000E+00 -0.45593999997E+02  0.45594000000E+02  0.51100000000E-03 0. -1.
    9900012    2    1    2    0    0  0.31266724641E+01  0.16465007629E+01 -0.18390155180E+02  0.72461418544E+02  0.69999802317E+02 0.  0.
        -12    1    1    2    0    0 -0.31266724641E+01 -0.16465007629E+01  0.18390155180E+02  0.18726581456E+02  0.00000000000E+00 0.  1.
         11    1    3    3    0    0  0.24828905629E+02 -0.17236350788E+02 -0.15386194873E+01  0.30264396466E+02  0.51100000000E-03 0. -1.
        -11    1    3    3    0    0  0.27985951240E+01 -0.10339682798E+01 -0.92511230586E+01  0.97203139444E+01  0.51100000000E-03 0.  1.
        -12    1    3    3    0    0 -0.24500828289E+02  0.19916819831E+02 -0.76004126346E+01  0.32476708134E+02  0.00000000000E+00 0.  1.
</event>
<event>
 7    1  0.2604986E-013  0.7246157E+02  0.7816164E-02  0.1226708E+00
        -11   -1    0    0    0    0  0.00000000000E+00  0.00000000000E+00  0.45593999997E+02  0.45594000000E+02  0.51100000000E-03 0. -1.
         11   -1    0    0    0    0 -0.00000000000E+00 -0.00000000000E+00 -0.45593999997E+02  0.45594000000E+02  0.51100000000E-03 0.  1.
    9900012    2    1    2    0    0 -0.39838664471E+01 -0.23138707264E+01  0.18150862618E+02  0.72461574730E+02  0.70000005778E+02 0.  0.
        -12    1    1    2    0    0  0.39838664471E+01  0.23138707264E+01 -0.18150862618E+02  0.18726425270E+02  0.00000000000E+00 0.  1.
         11    1    3    3    0    0 -0.86332262347E+00 -0.10043217008E+02  0.10355470186E+01  0.10133306061E+02  0.51100000000E-03 0. -1.
        -11    1    3    3    0    0 -0.11996755535E+02 -0.79121740967E+01 -0.17905577945E+02  0.22959406877E+02  0.51100000000E-03 0.  1.
         12    1    3    3    0    0  0.88762117117E+01  0.15641520379E+02  0.35020893545E+02  0.39368861792E+02  0.00000000000E+00 0. -1.
</event>
<event>
 7    1  0.2604986E-013  0.7246160E+02  0.7816164E-02  0.1226708E+00
        -11   -1    0    0    0    0  0.00000000000E+00  0.00000000000E+00  0.45593999997E+02  0.45594000000E+02  0.51100000000E-03 0.  1.
         11   -1    0    0    0    0 -0.00000000000E+00 -0.00000000000E+00 -0.45593999997E+02  0.45594000000E+02  0.51100000000E-03 0. -1.
    9900012    2    1    2    0    0 -0.13614713110E+02  0.36187468211E+01 -0.12337843495E+02  0.72461598217E+02  0.70000036374E+02 0.  0.
        -12    1    1    2    0    0  0.13614713110E+02 -0.36187468211E+01  0.12337843495E+02  0.18726401783E+02  0.00000000000E+00 0.  1.
         11    1    3    3    0    0  0.19366311136E+00  0.14478741329E+02 -0.13041585893E+02  0.19487288645E+02  0.51100000000E-03 0. -1.
        -11    1    3    3    0    0 -0.11056836410E+02  0.17948095632E+02  0.89219819264E+01  0.22890817591E+02  0.51100000000E-03 0.  1.
         12    1    3    3    0    0 -0.27515398121E+01 -0.28808090140E+02 -0.82182395290E+01  0.30083491982E+02  0.00000000000E+00 0. -1.
</event>
<event>
 7    1  0.2604986E-013  0.7246165E+02  0.7816164E-02  0.1226708E+00
        -11   -1    0    0    0    0  0.00000000000E+00  0.00000000000E+00  0.45593999997E+02  0.45594000000E+02  0.51100000000E-03 0.  1.
         11   -1    0    0    0    0 -0.00000000000E+00 -0.00000000000E+00 -0.45593999997E+02  0.45594000000E+02  0.51100000000E-03 0. -1.
    9900012    2    1    2    0    0 -0.42811545847E+00  0.18093738379E+02  0.48072318623E+01  0.72461651462E+02  0.70000105736E+02 0.  0.
        -12    1    1    2    0    0  0.42811545847E+00 -0.18093738379E+02 -0.48072318623E+01  0.18726348538E+02  0.00000000000E+00 0.  1.
         11    1    3    3    0    0  0.18117461608E+02  0.14124159247E+02 -0.17243927438E+02  0.28724333296E+02  0.51100000000E-03 0. -1.
        -11    1    3    3    0    0 -0.28664152800E+01 -0.11727067036E+02 -0.52598284791E+00  0.12083753393E+02  0.51100000000E-03 0.  1.
         12    1    3    3    0    0 -0.15679161787E+02  0.15696646168E+02  0.22577142148E+02  0.31653564773E+02  0.00000000000E+00 0. -1.
</event>
<event>
 7    1  0.2604986E-013  0.7246147E+02  0.7816164E-02  0.1226708E+00
        -11   -1    0    0    0    0  0.00000000000E+00  0.00000000000E+00  0.45593999997E+02  0.45594000000E+02  0.51100000000E-03 0. -1.
         11   -1    0    0    0    0 -0.00000000000E+00 -0.00000000000E+00 -0.45593999997E+02  0.45594000000E+02  0.51100000000E-03 0.  1.
    9900012    2    1    2    0    0 -0.78874966335E+01 -0.12755776363E+02 -0.11214302153E+02  0.72461467846E+02  0.69999866541E+02 0.  0.
        -12    1    1    2    0    0  0.78874966335E+01  0.12755776363E+02  0.11214302153E+02  0.18726532154E+02  0.00000000000E+00 0.  1.
         11    1    3    3    0    0 -0.21975649582E+02  0.14060028348E+01  0.70325980063E+01  0.23116302764E+02  0.51100000000E-03 0. -1.
        -11    1    3    3    0    0  0.79519598519E+01  0.14437817247E+02 -0.49174656327E+01  0.17200747101E+02  0.51100000000E-03 0.  1.
        -12    1    3    3    0    0  0.61361930963E+01 -0.28599596444E+02 -0.13329434526E+02  0.32144417980E+02  0.00000000000E+00 0.  1.
</event>
<event>
 7    1  0.2604986E-013  0.7246159E+02  0.7816164E-02  0.1226708E+00
        -11   -1    0    0    0    0  0.00000000000E+00  0.00000000000E+00  0.45593999997E+02  0.45594000000E+02  0.51100000000E-03 0. -1.
         11   -1    0    0    0    0 -0.00000000000E+00 -0.00000000000E+00 -0.45593999997E+02  0.45594000000E+02  0.51100000000E-03 0.  1.
    9900012    2    1    2    0    0  0.13201791927E+02 -0.12733682979E+02  0.37742026609E+01  0.72461585554E+02  0.70000019878E+02 0.  0.
        -12    1    1    2    0    0 -0.13201791927E+02  0.12733682979E+02 -0.37742026609E+01  0.18726414446E+02  0.00000000000E+00 0.  1.
         11    1    3    3    0    0  0.61039758216E+01  0.59468241447E+01 -0.17330597414E+01  0.86963632955E+01  0.51100000000E-03 0. -1.
        -11    1    3    3    0    0 -0.26534115762E+02 -0.96811394828E+01  0.63078847364E+01  0.28940856433E+02  0.51100000000E-03 0.  1.
         12    1    3    3    0    0  0.33631931867E+02 -0.89993676409E+01 -0.80062233404E+00  0.34824365826E+02  0.00000000000E+00 0. -1.
</event>
<event>
 7    1  0.2604986E-013  0.7246154E+02  0.7816164E-02  0.1226708E+00
        -11   -1    0    0    0    0  0.00000000000E+00  0.00000000000E+00  0.45593999997E+02  0.45594000000E+02  0.51100000000E-03 0.  1.
         11   -1    0    0    0    0 -0.00000000000E+00 -0.00000000000E+00 -0.45593999997E+02  0.45594000000E+02  0.51100000000E-03 0. -1.
    9900012    2    1    2    0    0 -0.57020400461E+01 -0.70913294163E+01 -0.16367040586E+02  0.72461541949E+02  0.69999963075E+02 0.  0.
        -12    1    1    2    0    0  0.57020400461E+01  0.70913294163E+01  0.16367040586E+02  0.18726458051E+02  0.00000000000E+00 0.  1.
         11    1    3    3    0    0  0.19640629024E+02 -0.18049227094E+02 -0.21365186361E+01  0.26759925622E+02  0.51100000000E-03 0. -1.
        -11    1    3    3    0    0  0.17376812971E+01 -0.91897278108E+01 -0.84299810511E+00  0.93904887835E+01  0.51100000000E-03 0.  1.
        -12    1    3    3    0    0 -0.27080350367E+02  0.20147625488E+02 -0.13387523845E+02  0.36311127544E+02  0.00000000000E+00 0.  1.
</event>
<event>
 7    1  0.2604986E-013  0.7246158E+02  0.7816164E-02  0.1226708E+00
        -11   -1    0    0    0    0  0.00000000000E+00  0.00000000000E+00  0.45593999997E+02  0.45594000000E+02  0.51100000000E-03 0.  1.
         11   -1    0    0    0    0 -0.00000000000E+00 -0.00000000000E+00 -0.45593999997E+02  0.45594000000E+02  0.51100000000E-03 0. -1.
    9900012    2    1    2    0    0  0.41200359838E+01 -0.11661306397E+01 -0.18230308445E+02  0.72461582746E+02  0.70000016221E+02 0.  0.
        -12    1    1    2    0    0 -0.41200359838E+01  0.11661306397E+01  0.18230308445E+02  0.18726417254E+02  0.00000000000E+00 0.  1.
         11    1    3    3    0    0  0.98471809923E+01 -0.74268639262E+01 -0.11569006532E+02  0.16910564558E+02  0.51100000000E-03 0. -1.
        -11    1    3    3    0    0  0.25942682262E+01 -0.21480091463E+02 -0.13876546454E+02  0.25703756508E+02  0.51100000000E-03 0.  1.
         12    1    3    3    0    0 -0.83214132348E+01  0.27740824749E+02  0.72152445412E+01  0.29847261680E+02  0.00000000000E+00 0. -1.
</event>
<event>
 7    1  0.2604986E-013  0.7246157E+02  0.7816164E-02  0.1226708E+00
        -11   -1    0    0    0    0  0.00000000000E+00  0.00000000000E+00  0.45593999997E+02  0.45594000000E+02  0.51100000000E-03 0. -1.
         11   -1    0    0    0    0 -0.00000000000E+00 -0.00000000000E+00 -0.45593999997E+02  0.45594000000E+02  0.51100000000E-03 0.  1.
    9900012    2    1    2    0    0  0.13548971405E+02 -0.34267346885E+01 -0.12464427526E+02  0.72461572409E+02  0.70000002755E+02 0.  0.
        -12    1    1    2    0    0 -0.13548971405E+02  0.34267346885E+01  0.12464427526E+02  0.18726427591E+02  0.00000000000E+00 0.  1.
         11    1    3    3    0    0  0.11254403224E+02  0.44173163435E+01  0.70733504906E+01  0.14007375309E+02  0.51100000000E-03 0. -1.
        -11    1    3    3    0    0  0.27465413841E+02 -0.12254427185E+01 -0.16953535846E+02  0.32299737542E+02  0.51100000000E-03 0.  1.
        -12    1    3    3    0    0 -0.25170845660E+02 -0.66186083136E+01 -0.25842421699E+01  0.26154459559E+02  0.00000000000E+00 0.  1.
</event>
<event>
 7    1  0.2604986E-013  0.7246153E+02  0.7816164E-02  0.1226708E+00
        -11   -1    0    0    0    0  0.00000000000E+00  0.00000000000E+00  0.45593999997E+02  0.45594000000E+02  0.51100000000E-03 0.  1.
         11   -1    0    0    0    0 -0.00000000000E+00 -0.00000000000E+00 -0.45593999997E+02  0.45594000000E+02  0.51100000000E-03 0. -1.
    9900012    2    1    2    0    0  0.10550668818E+02 -0.11353465410E+02 -0.10510124182E+02  0.72461534780E+02  0.69999953736E+02 0.  0.
        -12    1    1    2    0    0 -0.10550668818E+02  0.11353465410E+02  0.10510124182E+02  0.18726465220E+02  0.00000000000E+00 0.  1.
         11    1    3    3    0    0  0.17445601030E+02  0.24868617640E+02 -0.94963784909E+01  0.31827320706E+02  0.51100000000E-03 0. -1.
        -11    1    3    3    0    0  0.34649003877E+01 -0.16552801365E+01  0.21656124810E+01  0.44085558526E+01  0.51100000000E-03 0.  1.
        -12    1    3    3    0    0 -0.10359832600E+02 -0.34566802914E+02 -0.31793581723E+01  0.36225658221E+02  0.00000000000E+00 0.  1.
</event>
<event>
 7    1  0.2604986E-013  0.7246156E+02  0.7816164E-02  0.1226708E+00
        -11   -1    0    0    0    0  0.00000000000E+00  0.00000000000E+00  0.45593999997E+02  0.45594000000E+02  0.51100000000E-03 0.  1.
         11   -1    0    0    0    0 -0.00000000000E+00 -0.00000000000E+00 -0.45593999997E+02  0.45594000000E+02  0.51100000000E-03 0. -1.
    9900012    2    1    2    0    0  0.16487298520E+02 -0.69857183267E+00 -0.88521437339E+01  0.72461562437E+02  0.69999989765E+02 0.  0.
        -12    1    1    2    0    0 -0.16487298520E+02  0.69857183267E+00  0.88521437339E+01  0.18726437563E+02  0.00000000000E+00 0.  1.
         11    1    3    3    0    0  0.31672523867E+02 -0.34676407610E+01 -0.87657415718E+01  0.33045597682E+02  0.51100000000E-03 0. -1.
        -11    1    3    3    0    0  0.11908647676E+02  0.31237551341E+01  0.34442437043E+00  0.12316345400E+02  0.51100000000E-03 0.  1.
        -12    1    3    3    0    0 -0.27093873023E+02 -0.35468620572E+00 -0.43082653259E+00  0.27099619355E+02  0.00000000000E+00 0.  1.
</event>
<event>
 7    1  0.2604986E-013  0.7246158E+02  0.7816164E-02  0.1226708E+00
        -11   -1    0    0    0    0  0.00000000000E+00  0.00000000000E+00  0.45593999997E+02  0.45594000000E+02  0.51100000000E-03 0. -1.
         11   -1    0    0    0    0 -0.00000000000E+00 -0.00000000000E+00 -0.45593999997E+02  0.45594000000E+02  0.51100000000E-03 0.  1.
    9900012    2    1    2    0    0  0.14016384312E+02 -0.65573036238E+01  0.10546169348E+02  0.72461576212E+02  0.70000007708E+02 0.  0.
        -12    1    1    2    0    0 -0.14016384312E+02  0.65573036238E+01 -0.10546169348E+02  0.18726423788E+02  0.00000000000E+00 0.  1.
         11    1    3    3    0    0  0.25637204455E+02  0.56846450856E+01  0.29850325532E+01  0.26428996606E+02  0.51100000000E-03 0. -1.
        -11    1    3    3    0    0  0.33940307001E+01 -0.23669732147E+02 -0.34905526316E+01  0.24165256511E+02  0.51100000000E-03 0.  1.
         12    1    3    3    0    0 -0.15014850843E+02  0.11427783438E+02  0.11051689426E+02  0.21867323094E+02  0.00000000000E+00 0. -1.
</event>
<event>
 7    1  0.2604986E-013  0.7246158E+02  0.7816164E-02  0.1226708E+00
        -11   -1    0    0    0    0  0.00000000000E+00  0.00000000000E+00  0.45593999997E+02  0.45594000000E+02  0.51100000000E-03 0.  1.
         11   -1    0    0    0    0 -0.00000000000E+00 -0.00000000000E+00 -0.45593999997E+02  0.45594000000E+02  0.51100000000E-03 0. -1.
    9900012    2    1    2    0    0 -0.69370461064E+01  0.15874123277E+02  0.71111511239E+01  0.72461578324E+02  0.70000010460E+02 0.  0.
        -12    1    1    2    0    0  0.69370461064E+01 -0.15874123277E+02 -0.71111511239E+01  0.18726421676E+02  0.00000000000E+00 0.  1.
         11    1    3    3    0    0  0.13613315052E+02  0.34950185326E+01  0.15027037209E+01  0.14134907852E+02  0.51100000000E-03 0. -1.
        -11    1    3    3    0    0 -0.18868132029E+01  0.12996710745E+02 -0.21628227179E+02  0.25303256025E+02  0.51100000000E-03 0.  1.
        -12    1    3    3    0    0 -0.18663547955E+02 -0.61760600121E+00  0.27236674582E+02  0.33023414447E+02  0.00000000000E+00 0.  1.
</event>
<event>
 7    1  0.2604986E-013  0.7246160E+02  0.7816164E-02  0.1226708E+00
        -11   -1    0    0    0    0  0.00000000000E+00  0.00000000000E+00  0.45593999997E+02  0.45594000000E+02  0.51100000000E-03 0.  1.
         11   -1    0    0    0    0 -0.00000000000E+00 -0.00000000000E+00 -0.45593999997E+02  0.45594000000E+02  0.51100000000E-03 0. -1.
    9900012    2    1    2    0    0 -0.11640258264E+02 -0.14663491206E+02 -0.40550783678E+00  0.72461600896E+02  0.70000039864E+02 0.  0.
        -12    1    1    2    0    0  0.11640258264E+02  0.14663491206E+02  0.40550783678E+00  0.18726399104E+02  0.00000000000E+00 0.  1.
         11    1    3    3    0    0 -0.28050237385E+02 -0.27996926940E+02  0.11298363025E+02  0.41210396052E+02  0.51100000000E-03 0. -1.
        -11    1    3    3    0    0  0.73137416284E+01 -0.34060274830E+01 -0.88699186650E+01  0.11990300130E+02  0.51100000000E-03 0.  1.
        -12    1    3    3    0    0  0.90962374927E+01  0.16739463217E+02 -0.28339521972E+01  0.19260904713E+02  0.00000000000E+00 0.  1.
</event>
<event>
 7    1  0.2604986E-013  0.7246117E+02  0.7816164E-02  0.1226709E+00
        -11   -1    0    0    0    0  0.00000000000E+00  0.00000000000E+00  0.45593999997E+02  0.45594000000E+02  0.51100000000E-03 0.  1.
         11   -1    0    0    0    0 -0.00000000000E+00 -0.00000000000E+00 -0.45593999997E+02  0.45594000000E+02  0.51100000000E-03 0. -1.
    9900012    2    1    2    0    0 -0.15957894196E+00 -0.18541994621E+01 -0.18634127426E+02  0.72461168287E+02  0.69999476309E+02 0.  0.
        -12    1    1    2    0    0  0.15957894196E+00  0.18541994621E+01  0.18634127426E+02  0.18726831713E+02  0.00000000000E+00 0.  1.
         11    1    3    3    0    0  0.15801849054E+02 -0.11516647782E+02  0.93495652901E+00  0.19575641844E+02  0.51100000000E-03 0. -1.
        -11    1    3    3    0    0  0.11754394124E+02 -0.23604339860E+01  0.59082154544E+01  0.13365793652E+02  0.51100000000E-03 0.  1.
         12    1    3    3    0    0 -0.27715822119E+02  0.12022882306E+02 -0.25477299409E+02  0.39519732791E+02  0.00000000000E+00 0. -1.
</event>
<event>
 7    1  0.2604986E-013  0.7246156E+02  0.7816164E-02  0.1226708E+00
        -11   -1    0    0    0    0  0.00000000000E+00  0.00000000000E+00  0.45593999997E+02  0.45594000000E+02  0.51100000000E-03 0.  1.
         11   -1    0    0    0    0 -0.00000000000E+00 -0.00000000000E+00 -0.45593999997E+02  0.45594000000E+02  0.51100000000E-03 0. -1.
    9900012    2    1    2    0    0  0.34464687398E+01 -0.79998635565E+00 -0.18389165023E+02  0.72461561065E+02  0.69999987976E+02 0.  0.
        -12    1    1    2    0    0 -0.34464687398E+01  0.79998635565E+00  0.18389165023E+02  0.18726438935E+02  0.00000000000E+00 0.  1.
         11    1    3    3    0    0  0.27660167483E+02 -0.57123607151E+01 -0.92613345944E+01  0.29723530222E+02  0.51100000000E-03 0. -1.
        -11    1    3    3    0    0 -0.31706122378E+01 -0.34947206167E+01  0.11289688827E+02  0.12236132078E+02  0.51100000000E-03 0.  1.
        -12    1    3    3    0    0 -0.21043086506E+02  0.84070949761E+01 -0.20417519256E+02  0.30501898764E+02  0.00000000000E+00 0.  1.
</event>
<event>
 7    1  0.2604986E-013  0.7246138E+02  0.7816164E-02  0.1226709E+00
        -11   -1    0    0    0    0  0.00000000000E+00  0.00000000000E+00  0.45593999997E+02  0.45594000000E+02  0.51100000000E-03 0.  1.
         11   -1    0    0    0    0 -0.00000000000E+00 -0.00000000000E+00 -0.45593999997E+02  0.45594000000E+02  0.51100000000E-03 0. -1.
    9900012    2    1    2    0    0 -0.62623811559E+01 -0.17083797502E+02  0.44286212276E+01  0.72461381490E+02  0.69999754047E+02 0.  0.
        -12    1    1    2    0    0  0.62623811559E+01  0.17083797502E+02 -0.44286212276E+01  0.18726618510E+02  0.00000000000E+00 0.  1.
         11    1    3    3    0    0 -0.64621433341E+01 -0.26742659354E+02  0.13064888909E+02  0.30456862088E+02  0.51100000000E-03 0. -1.
        -11    1    3    3    0    0 -0.82013526810E+01  0.37215933323E+01 -0.22791217084E+02  0.24506162881E+02  0.51100000000E-03 0.  1.
         12    1    3    3    0    0  0.84011148592E+01  0.59372685189E+01  0.14154949403E+02  0.17498356521E+02  0.00000000000E+00 0. -1.
</event>
<event>
 7    1  0.2604986E-013  0.7246167E+02  0.7816164E-02  0.1226708E+00
        -11   -1    0    0    0    0  0.00000000000E+00  0.00000000000E+00  0.45593999997E+02  0.45594000000E+02  0.51100000000E-03 0.  1.
         11   -1    0    0    0    0 -0.00000000000E+00 -0.00000000000E+00 -0.45593999997E+02  0.45594000000E+02  0.51100000000E-03 0. -1.
    9900012    2    1    2    0    0 -0.80874175823E+01  0.16072644415E+02 -0.51903042109E+01  0.72461668821E+02  0.70000128349E+02 0.  0.
        -12    1    1    2    0    0  0.80874175823E+01 -0.16072644415E+02  0.51903042109E+01  0.18726331179E+02  0.00000000000E+00 0.  1.
         11    1    3    3    0    0 -0.61007115880E+01  0.73831555778E+01 -0.21630534768E+02  0.23656071161E+02  0.51100000000E-03 0. -1.
        -11    1    3    3    0    0 -0.22279335267E+02  0.52913194131E+01  0.71669360581E+00  0.22910270428E+02  0.51100000000E-03 0.  1.
         12    1    3    3    0    0  0.20292629273E+02  0.33981694236E+01  0.15723536951E+02  0.25895327233E+02  0.00000000000E+00 0. -1.
</event>
<event>
 7    1  0.2604986E-013  0.7246154E+02  0.7816164E-02  0.1226708E+00
        -11   -1    0    0    0    0  0.00000000000E+00  0.00000000000E+00  0.45593999997E+02  0.45594000000E+02  0.51100000000E-03 0. -1.
         11   -1    0    0    0    0 -0.00000000000E+00 -0.00000000000E+00 -0.45593999997E+02  0.45594000000E+02  0.51100000000E-03 0.  1.
    9900012    2    1    2    0    0  0.74034459981E+01 -0.12688622154E+02  0.11613278656E+02  0.72461537816E+02  0.69999957690E+02 0.  0.
        -12    1    1    2    0    0 -0.74034459981E+01  0.12688622154E+02 -0.11613278656E+02  0.18726462184E+02  0.00000000000E+00 0.  1.
         11    1    3    3    0    0  0.97869633007E+01 -0.18055880387E+02 -0.66132706307E+01  0.21576255836E+02  0.51100000000E-03 0. -1.
        -11    1    3    3    0    0 -0.22016525063E+02 -0.69728496247E+00 -0.19164094520E+01  0.22110771303E+02  0.51100000000E-03 0.  1.
        -12    1    3    3    0    0  0.19633007761E+02  0.60645431958E+01  0.20142958739E+02  0.28774510676E+02  0.00000000000E+00 0.  1.
</event>
<event>
 7    1  0.2604986E-013  0.7246155E+02  0.7816164E-02  0.1226708E+00
        -11   -1    0    0    0    0  0.00000000000E+00  0.00000000000E+00  0.45593999997E+02  0.45594000000E+02  0.51100000000E-03 0. -1.
         11   -1    0    0    0    0 -0.00000000000E+00 -0.00000000000E+00 -0.45593999997E+02  0.45594000000E+02  0.51100000000E-03 0.  1.
    9900012    2    1    2    0    0  0.12797324591E+02 -0.48273807843E+01  0.12790806283E+02  0.72461552198E+02  0.69999976426E+02 0.  0.
        -12    1    1    2    0    0 -0.12797324591E+02  0.48273807843E+01 -0.12790806283E+02  0.18726447802E+02  0.00000000000E+00 0.  1.
         11    1    3    3    0    0  0.13573630846E+02 -0.57451637962E+01  0.26316751116E+02  0.30163251664E+02  0.51100000000E-03 0. -1.
        -11    1    3    3    0    0  0.88449774110E+01 -0.11936043638E+02  0.68478379046E+01  0.16358350998E+02  0.51100000000E-03 0.  1.
        -12    1    3    3    0    0 -0.96212836662E+01  0.12853826650E+02 -0.20373782737E+02  0.25939949536E+02  0.00000000000E+00 0.  1.
</event>
<event>
 7    1  0.2604986E-013  0.7246157E+02  0.7816164E-02  0.1226708E+00
        -11   -1    0    0    0    0  0.00000000000E+00  0.00000000000E+00  0.45593999997E+02  0.45594000000E+02  0.51100000000E-03 0.  1.
         11   -1    0    0    0    0 -0.00000000000E+00 -0.00000000000E+00 -0.45593999997E+02  0.45594000000E+02  0.51100000000E-03 0. -1.
    9900012    2    1    2    0    0  0.13531453188E+01  0.14094603027E+02 -0.12255224194E+02  0.72461565294E+02  0.69999993486E+02 0.  0.
        -12    1    1    2    0    0 -0.13531453188E+01 -0.14094603027E+02  0.12255224194E+02  0.18726434706E+02  0.00000000000E+00 0.  1.
         11    1    3    3    0    0 -0.73167177506E+01 -0.19420086478E+01 -0.12779249443E+01  0.76771641023E+01  0.51100000000E-03 0. -1.
        -11    1    3    3    0    0 -0.16291567546E+02 -0.11251898997E+02  0.10089623366E+02  0.22222081452E+02  0.51100000000E-03 0.  1.
         12    1    3    3    0    0  0.24961430615E+02  0.27288510672E+02 -0.21066922617E+02  0.42562319739E+02  0.00000000000E+00 0. -1.
</event>
<event>
 7    1  0.2604986E-013  0.7246158E+02  0.7816164E-02  0.1226708E+00
        -11   -1    0    0    0    0  0.00000000000E+00  0.00000000000E+00  0.45593999997E+02  0.45594000000E+02  0.51100000000E-03 0. -1.
         11   -1    0    0    0    0 -0.00000000000E+00 -0.00000000000E+00 -0.45593999997E+02  0.45594000000E+02  0.51100000000E-03 0.  1.
    9900012    2    1    2    0    0  0.55357293093E+01  0.17641552401E+02  0.29682117038E+01  0.72461576134E+02  0.70000007607E+02 0.  0.
        -12    1    1    2    0    0 -0.55357293093E+01 -0.17641552401E+02 -0.29682117038E+01  0.18726423866E+02  0.00000000000E+00 0.  1.
         11    1    3    3    0    0 -0.94388663124E+00 -0.23034582968E+01  0.14685033774E+01  0.28902153083E+01  0.51100000000E-03 0. -1.
        -11    1    3    3    0    0  0.18440909087E+02 -0.66859266522E+01 -0.23869127360E+02  0.30895047894E+02  0.51100000000E-03 0.  1.
         12    1    3    3    0    0 -0.11961293147E+02  0.26630937350E+02  0.25368835687E+02  0.38676312932E+02  0.00000000000E+00 0. -1.
</event>
<event>
 7    1  0.2604986E-013  0.7246160E+02  0.7816164E-02  0.1226708E+00
        -11   -1    0    0    0    0  0.00000000000E+00  0.00000000000E+00  0.45593999997E+02  0.45594000000E+02  0.51100000000E-03 0.  1.
         11   -1    0    0    0    0 -0.00000000000E+00 -0.00000000000E+00 -0.45593999997E+02  0.45594000000E+02  0.51100000000E-03 0. -1.
    9900012    2    1    2    0    0  0.68806880936E+01  0.35791677686E+01 -0.17044755546E+02  0.72461601462E+02  0.70000040602E+02 0.  0.
        -12    1    1    2    0    0 -0.68806880936E+01 -0.35791677686E+01  0.17044755546E+02  0.18726398538E+02  0.00000000000E+00 0.  1.
         11    1    3    3    0    0 -0.94981584250E+01  0.59751591186E+01 -0.17129724919E+02  0.20477915324E+02  0.51100000000E-03 0. -1.
        -11    1    3    3    0    0 -0.67404639837E+01  0.17137622599E+02  0.89086272542E+01  0.20457165074E+02  0.51100000000E-03 0.  1.
        -12    1    3    3    0    0  0.23119310502E+02 -0.19533613949E+02 -0.88236578819E+01  0.31526521064E+02  0.00000000000E+00 0.  1.
</event>
<event>
 7    1  0.2604986E-013  0.7246157E+02  0.7816164E-02  0.1226708E+00
        -11   -1    0    0    0    0  0.00000000000E+00  0.00000000000E+00  0.45593999997E+02  0.45594000000E+02  0.51100000000E-03 0. -1.
         11   -1    0    0    0    0 -0.00000000000E+00 -0.00000000000E+00 -0.45593999997E+02  0.45594000000E+02  0.51100000000E-03 0.  1.
    9900012    2    1    2    0    0  0.89377045874E+01 -0.14218788963E+02  0.82838699930E+01  0.72461574155E+02  0.70000005029E+02 0.  0.
        -12    1    1    2    0    0 -0.89377045874E+01  0.14218788963E+02 -0.82838699930E+01  0.18726425845E+02  0.00000000000E+00 0.  1.
         11    1    3    3    0    0 -0.44376776227E+01 -0.18609425371E+00  0.13095005396E+02  0.13827753987E+02  0.51100000000E-03 0. -1.
        -11    1    3    3    0    0 -0.11198554412E+02  0.15971088385E+02  0.34995215363E+00  0.19509119711E+02  0.51100000000E-03 0.  1.
        -12    1    3    3    0    0  0.24573936622E+02 -0.30003783094E+02 -0.51610875563E+01  0.39124700457E+02  0.00000000000E+00 0.  1.
</event>
<event>
 7    1  0.2604986E-013  0.7246157E+02  0.7816164E-02  0.1226708E+00
        -11   -1    0    0    0    0  0.00000000000E+00  0.00000000000E+00  0.45593999997E+02  0.45594000000E+02  0.51100000000E-03 0.  1.
         11   -1    0    0    0    0 -0.00000000000E+00 -0.00000000000E+00 -0.45593999997E+02  0.45594000000E+02  0.51100000000E-03 0. -1.
    9900012    2    1    2    0    0 -0.15875509094E+02  0.75718802151E+01 -0.64275974429E+01  0.72461570338E+02  0.70000000057E+02 0.  0.
        -12    1    1    2    0    0  0.15875509094E+02 -0.75718802151E+01  0.64275974429E+01  0.18726429662E+02  0.00000000000E+00 0.  1.
         11    1    3    3    0    0  0.12992048684E+02  0.12274632856E+02 -0.24241832101E+02  0.30118538554E+02  0.51100000000E-03 0. -1.
        -11    1    3    3    0    0 -0.58932642697E+01 -0.22507309478E-01 -0.63570419004E+01  0.86685092326E+01  0.51100000000E-03 0.  1.
        -12    1    3    3    0    0 -0.22974293508E+02 -0.46802453315E+01  0.24171276559E+02  0.33674522551E+02  0.00000000000E+00 0.  1.
</event>
<event>
 7    1  0.2604986E-013  0.7246148E+02  0.7816164E-02  0.1226708E+00
        -11   -1    0    0    0    0  0.00000000000E+00  0.00000000000E+00  0.45593999997E+02  0.45594000000E+02  0.51100000000E-03 0. -1.
         11   -1    0    0    0    0 -0.00000000000E+00 -0.00000000000E+00 -0.45593999997E+02  0.45594000000E+02  0.51100000000E-03 0.  1.
    9900012    2    1    2    0    0 -0.89282462831E+01 -0.14219640510E+02  0.82928087037E+01  0.72461483129E+02  0.69999886451E+02 0.  0.
        -12    1    1    2    0    0  0.89282462831E+01  0.14219640510E+02 -0.82928087037E+01  0.18726516871E+02  0.00000000000E+00 0.  1.
         11    1    3    3    0    0 -0.19558567412E+02 -0.18735170721E+02  0.13447338124E+02  0.30238635619E+02  0.51100000000E-03 0. -1.
        -11    1    3    3    0    0 -0.96574432164E+01 -0.10929109663E+02  0.40139031385E+01  0.15126898762E+02  0.51100000000E-03 0.  1.
        -12    1    3    3    0    0  0.20287764346E+02  0.15444639874E+02 -0.91684325587E+01  0.27095948748E+02  0.00000000000E+00 0.  1.
</event>
<event>
 7    1  0.2604986E-013  0.7246155E+02  0.7816164E-02  0.1226708E+00
        -11   -1    0    0    0    0  0.00000000000E+00  0.00000000000E+00  0.45593999997E+02  0.45594000000E+02  0.51100000000E-03 0.  1.
         11   -1    0    0    0    0 -0.00000000000E+00 -0.00000000000E+00 -0.45593999997E+02  0.45594000000E+02  0.51100000000E-03 0. -1.
    9900012    2    1    2    0    0 -0.10651575084E+02 -0.14439819084E+02 -0.53586681500E+01  0.72461554761E+02  0.69999979765E+02 0.  0.
        -12    1    1    2    0    0  0.10651575084E+02  0.14439819084E+02  0.53586681500E+01  0.18726445239E+02  0.00000000000E+00 0.  1.
         11    1    3    3    0    0 -0.10308738513E+02 -0.32999295576E+01 -0.21324109715E+02  0.23913955763E+02  0.51100000000E-03 0. -1.
        -11    1    3    3    0    0 -0.19751197592E+02  0.33250071354E+01  0.92667186910E+00  0.20050541134E+02  0.51100000000E-03 0.  1.
        -12    1    3    3    0    0  0.19408361021E+02 -0.14464896662E+02  0.15038769696E+02  0.28497057864E+02  0.00000000000E+00 0.  1.
</event>
<event>
 7    1  0.2604986E-013  0.7246129E+02  0.7816164E-02  0.1226709E+00
        -11   -1    0    0    0    0  0.00000000000E+00  0.00000000000E+00  0.45593999997E+02  0.45594000000E+02  0.51100000000E-03 0.  1.
         11   -1    0    0    0    0 -0.00000000000E+00 -0.00000000000E+00 -0.45593999997E+02  0.45594000000E+02  0.51100000000E-03 0. -1.
    9900012    2    1    2    0    0 -0.27940654045E+01  0.18387749530E+02 -0.21848490527E+01  0.72461289139E+02  0.69999633742E+02 0.  0.
        -12    1    1    2    0    0  0.27940654045E+01 -0.18387749530E+02  0.21848490527E+01  0.18726710861E+02  0.00000000000E+00 0.  1.
         11    1    3    3    0    0 -0.66480277901E+01 -0.33190570454E+01 -0.47653628233E+01  0.88272926919E+01  0.51100000000E-03 0. -1.
        -11    1    3    3    0    0 -0.17926280221E+02  0.17293132919E+02 -0.20006267871E+02  0.31947687289E+02  0.51100000000E-03 0.  1.
         12    1    3    3    0    0  0.21780242607E+02  0.44136736571E+01  0.22586781642E+02  0.31686309159E+02  0.00000000000E+00 0. -1.
</event>
<event>
 7    1  0.2604986E-013  0.7246155E+02  0.7816164E-02  0.1226708E+00
        -11   -1    0    0    0    0  0.00000000000E+00  0.00000000000E+00  0.45593999997E+02  0.45594000000E+02  0.51100000000E-03 0.  1.
         11   -1    0    0    0    0 -0.00000000000E+00 -0.00000000000E+00 -0.45593999997E+02  0.45594000000E+02  0.51100000000E-03 0. -1.
    9900012    2    1    2    0    0  0.39686925360E+01  0.15962303051E+02 -0.89517735580E+01  0.72461551085E+02  0.69999974976E+02 0.  0.
        -12    1    1    2    0    0 -0.39686925360E+01 -0.15962303051E+02  0.89517735580E+01  0.18726448915E+02  0.00000000000E+00 0.  1.
         11    1    3    3    0    0 -0.10877255964E+02  0.15273568387E+01 -0.20976583414E+02  0.23678356535E+02  0.51100000000E-03 0. -1.
        -11    1    3    3    0    0 -0.14603234328E+02  0.52387138911E+01  0.86090814768E+01  0.17743022860E+02  0.51100000000E-03 0.  1.
        -12    1    3    3    0    0  0.29449182829E+02  0.91962323212E+01  0.34157283789E+01  0.31040171690E+02  0.00000000000E+00 0.  1.
</event>
<event>
 7    1  0.2604986E-013  0.7246159E+02  0.7816164E-02  0.1226708E+00
        -11   -1    0    0    0    0  0.00000000000E+00  0.00000000000E+00  0.45593999997E+02  0.45594000000E+02  0.51100000000E-03 0.  1.
         11   -1    0    0    0    0 -0.00000000000E+00 -0.00000000000E+00 -0.45593999997E+02  0.45594000000E+02  0.51100000000E-03 0. -1.
    9900012    2    1    2    0    0  0.14642842478E+02 -0.10355617037E+02 -0.53876459015E+01  0.72461591684E+02  0.70000027864E+02 0.  0.
        -12    1    1    2    0    0 -0.14642842478E+02  0.10355617037E+02  0.53876459015E+01  0.18726408316E+02  0.00000000000E+00 0.  1.
         11    1    3    3    0    0 -0.11554007458E+02 -0.19237991587E+02 -0.29462497212E+01  0.22633510473E+02  0.51100000000E-03 0. -1.
        -11    1    3    3    0    0 -0.82452642905E+01 -0.58329573730E+01 -0.67189600913E+01  0.12130630647E+02  0.51100000000E-03 0.  1.
        -12    1    3    3    0    0  0.34442114227E+02  0.14715331923E+02  0.42775639109E+01  0.37697450564E+02  0.00000000000E+00 0.  1.
</event>
<event>
 7    1  0.2604986E-013  0.7246159E+02  0.7816164E-02  0.1226708E+00
        -11   -1    0    0    0    0  0.00000000000E+00  0.00000000000E+00  0.45593999997E+02  0.45594000000E+02  0.51100000000E-03 0.  1.
         11   -1    0    0    0    0 -0.00000000000E+00 -0.00000000000E+00 -0.45593999997E+02  0.45594000000E+02  0.51100000000E-03 0. -1.
    9900012    2    1    2    0    0  0.13299551268E+02  0.11058794845E+02 -0.71765974693E+01  0.72461586606E+02  0.70000021249E+02 0.  0.
        -12    1    1    2    0    0 -0.13299551268E+02 -0.11058794845E+02  0.71765974693E+01  0.18726413394E+02  0.00000000000E+00 0.  1.
         11    1    3    3    0    0  0.18044833732E+02  0.11086983386E+02 -0.19497587568E+02  0.28787030869E+02  0.51100000000E-03 0. -1.
        -11    1    3    3    0    0  0.82651411743E+01 -0.14871891631E+02 -0.46556108315E+01  0.17639740128E+02  0.51100000000E-03 0.  1.
        -12    1    3    3    0    0 -0.13010423638E+02  0.14843703090E+02  0.16976600930E+02  0.26034815609E+02  0.00000000000E+00 0.  1.
</event>
<event>
 7    1  0.2604986E-013  0.7246147E+02  0.7816164E-02  0.1226708E+00
        -11   -1    0    0    0    0  0.00000000000E+00  0.00000000000E+00  0.45593999997E+02  0.45594000000E+02  0.51100000000E-03 0.  1.
         11   -1    0    0    0    0 -0.00000000000E+00 -0.00000000000E+00 -0.45593999997E+02  0.45594000000E+02  0.51100000000E-03 0. -1.
    9900012    2    1    2    0    0  0.65944892452E+01 -0.15116928868E+02 -0.88698450560E+01  0.72461468604E+02  0.69999867530E+02 0.  0.
        -12    1    1    2    0    0 -0.65944892452E+01  0.15116928868E+02  0.88698450560E+01  0.18726531396E+02  0.00000000000E+00 0.  1.
         11    1    3    3    0    0  0.54885981964E+01  0.56874901741E+01 -0.29307135875E+02  0.30354249589E+02  0.51100000000E-03 0. -1.
        -11    1    3    3    0    0  0.16191231391E+01  0.36462289669E+01 -0.52802220472E+01  0.66179521415E+01  0.51100000000E-03 0.  1.
        -12    1    3    3    0    0 -0.51323209030E+00 -0.24450648009E+02  0.25717512866E+02  0.35489266874E+02  0.00000000000E+00 0.  1.
</event>
<event>
 7    1  0.2604986E-013  0.7246159E+02  0.7816164E-02  0.1226708E+00
        -11   -1    0    0    0    0  0.00000000000E+00  0.00000000000E+00  0.45593999997E+02  0.45594000000E+02  0.51100000000E-03 0.  1.
         11   -1    0    0    0    0 -0.00000000000E+00 -0.00000000000E+00 -0.45593999997E+02  0.45594000000E+02  0.51100000000E-03 0. -1.
    9900012    2    1    2    0    0  0.50497004414E+01 -0.47458294625E+01 -0.17397010936E+02  0.72461591873E+02  0.70000028110E+02 0.  0.
        -12    1    1    2    0    0 -0.50497004414E+01  0.47458294625E+01  0.17397010936E+02  0.18726408127E+02  0.00000000000E+00 0.  1.
         11    1    3    3    0    0 -0.32544603603E+01  0.28054973708E+02 -0.16822709072E+02  0.32873646022E+02  0.51100000000E-03 0. -1.
        -11    1    3    3    0    0  0.70360615302E+01 -0.34844257595E+00 -0.95134093581E+00  0.71086302424E+01  0.51100000000E-03 0.  1.
        -12    1    3    3    0    0  0.12680992714E+01 -0.32452360595E+02  0.37703907216E+00  0.32479315608E+02  0.00000000000E+00 0.  1.
</event>
<event>
 7    1  0.2604986E-013  0.7246162E+02  0.7816164E-02  0.1226708E+00
        -11   -1    0    0    0    0  0.00000000000E+00  0.00000000000E+00  0.45593999997E+02  0.45594000000E+02  0.51100000000E-03 0.  1.
         11   -1    0    0    0    0 -0.00000000000E+00 -0.00000000000E+00 -0.45593999997E+02  0.45594000000E+02  0.51100000000E-03 0. -1.
    9900012    2    1    2    0    0  0.22039648864E+01 -0.48436999183E+01 -0.17954340923E+02  0.72461621597E+02  0.70000066831E+02 0.  0.
        -12    1    1    2    0    0 -0.22039648864E+01  0.48436999183E+01  0.17954340923E+02  0.18726378403E+02  0.00000000000E+00 0.  1.
         11    1    3    3    0    0 -0.51476993972E+01  0.24439488715E+02 -0.22142364646E+01  0.25073696598E+02  0.51100000000E-03 0. -1.
        -11    1    3    3    0    0 -0.10077925019E+02 -0.73434983516E+01 -0.14798606495E+02  0.19351751734E+02  0.51100000000E-03 0.  1.
        -12    1    3    3    0    0  0.17429589302E+02 -0.21939690281E+02 -0.94149796297E+00  0.28036173264E+02  0.00000000000E+00 0.  1.
</event>
<event>
 7    1  0.2604986E-013  0.7246175E+02  0.7816164E-02  0.1226708E+00
        -11   -1    0    0    0    0  0.00000000000E+00  0.00000000000E+00  0.45593999997E+02  0.45594000000E+02  0.51100000000E-03 0.  1.
         11   -1    0    0    0    0 -0.00000000000E+00 -0.00000000000E+00 -0.45593999997E+02  0.45594000000E+02  0.51100000000E-03 0. -1.
    9900012    2    1    2    0    0 -0.23840222514E+00  0.18718269168E+02 -0.49200352731E+00  0.72461748273E+02  0.70000231850E+02 0.  0.
        -12    1    1    2    0    0  0.23840222514E+00 -0.18718269168E+02  0.49200352731E+00  0.18726251727E+02  0.00000000000E+00 0.  1.
         11    1    3    3    0    0  0.79370765213E+01  0.91352534520E+01  0.23565516176E+02  0.26491198392E+02  0.51100000000E-03 0. -1.
        -11    1    3    3    0    0  0.17039609551E+01  0.20615347391E+02 -0.40498981775E+01  0.21078370585E+02  0.51100000000E-03 0.  1.
         12    1    3    3    0    0 -0.98794397015E+01 -0.11032331675E+02 -0.20007621526E+02  0.24892179296E+02  0.00000000000E+00 0. -1.
</event>
<event>
 7    1  0.2604986E-013  0.7246161E+02  0.7816164E-02  0.1226708E+00
        -11   -1    0    0    0    0  0.00000000000E+00  0.00000000000E+00  0.45593999997E+02  0.45594000000E+02  0.51100000000E-03 0.  1.
         11   -1    0    0    0    0 -0.00000000000E+00 -0.00000000000E+00 -0.45593999997E+02  0.45594000000E+02  0.51100000000E-03 0. -1.
    9900012    2    1    2    0    0 -0.74546403675E+01 -0.14471363803E+02 -0.92566558451E+01  0.72461609243E+02  0.70000050738E+02 0.  0.
        -12    1    1    2    0    0  0.74546403675E+01  0.14471363803E+02  0.92566558451E+01  0.18726390757E+02  0.00000000000E+00 0.  1.
         11    1    3    3    0    0 -0.15767637796E+02  0.15529170444E+02 -0.69454102062E+01  0.23195091281E+02  0.51100000000E-03 0. -1.
        -11    1    3    3    0    0  0.19667388628E+01  0.26451760931E+01 -0.13717537689E+02  0.14108006905E+02  0.51100000000E-03 0.  1.
         12    1    3    3    0    0  0.63462585658E+01 -0.32645710341E+02  0.11406292050E+02  0.35158511057E+02  0.00000000000E+00 0. -1.
</event>
<event>
 7    1  0.2604986E-013  0.7246149E+02  0.7816164E-02  0.1226708E+00
        -11   -1    0    0    0    0  0.00000000000E+00  0.00000000000E+00  0.45593999997E+02  0.45594000000E+02  0.51100000000E-03 0.  1.
         11   -1    0    0    0    0 -0.00000000000E+00 -0.00000000000E+00 -0.45593999997E+02  0.45594000000E+02  0.51100000000E-03 0. -1.
    9900012    2    1    2    0    0 -0.36919963208E+01  0.16531394195E+02  0.79852471213E+01  0.72461494655E+02  0.69999901465E+02 0.  0.
        -12    1    1    2    0    0  0.36919963208E+01 -0.16531394195E+02 -0.79852471213E+01  0.18726505345E+02  0.00000000000E+00 0.  1.
         11    1    3    3    0    0 -0.57487940568E+01  0.25370673187E+01 -0.19789977054E+02  0.20763634936E+02  0.51100000000E-03 0. -1.
        -11    1    3    3    0    0 -0.18411512698E+02  0.21276579394E+01  0.58343111138E+01  0.19430643700E+02  0.51100000000E-03 0.  1.
         12    1    3    3    0    0  0.20468310434E+02  0.11866668937E+02  0.21940913061E+02  0.32267216020E+02  0.00000000000E+00 0. -1.
</event>
<event>
 7    1  0.2604986E-013  0.7246154E+02  0.7816164E-02  0.1226708E+00
        -11   -1    0    0    0    0  0.00000000000E+00  0.00000000000E+00  0.45593999997E+02  0.45594000000E+02  0.51100000000E-03 0. -1.
         11   -1    0    0    0    0 -0.00000000000E+00 -0.00000000000E+00 -0.45593999997E+02  0.45594000000E+02  0.51100000000E-03 0.  1.
    9900012    2    1    2    0    0 -0.63439239619E+01 -0.94241057485E+01  0.14886945276E+02  0.72461540643E+02  0.69999961374E+02 0.  0.
        -12    1    1    2    0    0  0.63439239619E+01  0.94241057485E+01 -0.14886945276E+02  0.18726459357E+02  0.00000000000E+00 0.  1.
         11    1    3    3    0    0  0.81981321334E+01  0.50851155288E+01  0.70274581940E+01  0.11935365070E+02  0.51100000000E-03 0. -1.
        -11    1    3    3    0    0 -0.98485825796E+01 -0.25428697042E+02 -0.17581581005E+02  0.32445727037E+02  0.51100000000E-03 0.  1.
         12    1    3    3    0    0 -0.46934735157E+01  0.10919475765E+02  0.25441068087E+02  0.28080448536E+02  0.00000000000E+00 0. -1.
</event>
<event>
 7    1  0.2604986E-013  0.7246212E+02  0.7816164E-02  0.1226707E+00
        -11   -1    0    0    0    0  0.00000000000E+00  0.00000000000E+00  0.45593999997E+02  0.45594000000E+02  0.51100000000E-03 0. -1.
         11   -1    0    0    0    0 -0.00000000000E+00 -0.00000000000E+00 -0.45593999997E+02  0.45594000000E+02  0.51100000000E-03 0.  1.
    9900012    2    1    2    0    0 -0.15062118705E+02  0.20438141531E+01  0.10936826092E+02  0.72462115211E+02  0.70000709852E+02 0.  0.
        -12    1    1    2    0    0  0.15062118705E+02 -0.20438141531E+01 -0.10936826092E+02  0.18725884789E+02  0.00000000000E+00 0.  1.
         11    1    3    3    0    0  0.16406249330E+02 -0.87735760793E+01  0.68769950377E+01  0.19835163607E+02  0.51100000000E-03 0. -1.
        -11    1    3    3    0    0 -0.73693950662E+01 -0.39303119484E+01 -0.15950726540E+02  0.18005027439E+02  0.51100000000E-03 0.  1.
         12    1    3    3    0    0 -0.24098972968E+02  0.14747702181E+02  0.20010557594E+02  0.34621924166E+02  0.00000000000E+00 0. -1.
</event>
<event>
 7    1  0.2604986E-013  0.7246162E+02  0.7816164E-02  0.1226708E+00
        -11   -1    0    0    0    0  0.00000000000E+00  0.00000000000E+00  0.45593999997E+02  0.45594000000E+02  0.51100000000E-03 0.  1.
         11   -1    0    0    0    0 -0.00000000000E+00 -0.00000000000E+00 -0.45593999997E+02  0.45594000000E+02  0.51100000000E-03 0. -1.
    9900012    2    1    2    0    0 -0.13929320852E+02 -0.54542124171E+00 -0.12504150629E+02  0.72461621635E+02  0.70000066881E+02 0.  0.
        -12    1    1    2    0    0  0.13929320852E+02  0.54542124171E+00  0.12504150629E+02  0.18726378365E+02  0.00000000000E+00 0.  1.
         11    1    3    3    0    0 -0.41131244299E+02  0.64462671191E+01 -0.90262977114E+01  0.42600559480E+02  0.51100000000E-03 0. -1.
        -11    1    3    3    0    0  0.34059231526E+01  0.16513896283E+01 -0.24782817682E+01  0.45242989523E+01  0.51100000000E-03 0.  1.
        -12    1    3    3    0    0  0.23796000294E+02 -0.86430779891E+01 -0.99957114909E+00  0.25336763203E+02  0.00000000000E+00 0.  1.
</event>
<event>
 7    1  0.2604986E-013  0.7246160E+02  0.7816164E-02  0.1226708E+00
        -11   -1    0    0    0    0  0.00000000000E+00  0.00000000000E+00  0.45593999997E+02  0.45594000000E+02  0.51100000000E-03 0.  1.
         11   -1    0    0    0    0 -0.00000000000E+00 -0.00000000000E+00 -0.45593999997E+02  0.45594000000E+02  0.51100000000E-03 0. -1.
    9900012    2    1    2    0    0 -0.36504251067E+01 -0.15390065453E+02 -0.10024880299E+02  0.72461603040E+02  0.70000042657E+02 0.  0.
        -12    1    1    2    0    0  0.36504251067E+01  0.15390065453E+02  0.10024880299E+02  0.18726396960E+02  0.00000000000E+00 0.  1.
         11    1    3    3    0    0 -0.13502784858E+02  0.20461830318E+02 -0.14152099637E+02  0.28307130255E+02  0.51100000000E-03 0. -1.
        -11    1    3    3    0    0  0.13210196356E+02 -0.10159194690E+02 -0.37318802410E+01  0.17077630249E+02  0.51100000000E-03 0.  1.
        -12    1    3    3    0    0 -0.33578366055E+01 -0.25692701081E+02  0.78590995797E+01  0.27076842536E+02  0.00000000000E+00 0.  1.
</event>
<event>
 7    1  0.2604986E-013  0.7246161E+02  0.7816164E-02  0.1226708E+00
        -11   -1    0    0    0    0  0.00000000000E+00  0.00000000000E+00  0.45593999997E+02  0.45594000000E+02  0.51100000000E-03 0.  1.
         11   -1    0    0    0    0 -0.00000000000E+00 -0.00000000000E+00 -0.45593999997E+02  0.45594000000E+02  0.51100000000E-03 0. -1.
    9900012    2    1    2    0    0 -0.80048231183E+00  0.16949277585E+02 -0.79220492772E+01  0.72461610937E+02  0.70000052944E+02 0.  0.
        -12    1    1    2    0    0  0.80048231183E+00 -0.16949277585E+02  0.79220492772E+01  0.18726389063E+02  0.00000000000E+00 0.  1.
         11    1    3    3    0    0 -0.15528884006E+02 -0.32698031083E+00 -0.17266597926E+02  0.23224740231E+02  0.51100000000E-03 0. -1.
        -11    1    3    3    0    0 -0.14133516447E+02 -0.99270760486E+00  0.21694109904E+01  0.14333460847E+02  0.51100000000E-03 0.  1.
        -12    1    3    3    0    0  0.28861918142E+02  0.18268965501E+02  0.71751376587E+01  0.34903409858E+02  0.00000000000E+00 0.  1.
</event>
<event>
 7    1  0.2604986E-013  0.7246163E+02  0.7816164E-02  0.1226708E+00
        -11   -1    0    0    0    0  0.00000000000E+00  0.00000000000E+00  0.45593999997E+02  0.45594000000E+02  0.51100000000E-03 0.  1.
         11   -1    0    0    0    0 -0.00000000000E+00 -0.00000000000E+00 -0.45593999997E+02  0.45594000000E+02  0.51100000000E-03 0. -1.
    9900012    2    1    2    0    0 -0.51595447408E+01  0.10017393665E+02 -0.14956867060E+02  0.72461629555E+02  0.70000077199E+02 0.  0.
        -12    1    1    2    0    0  0.51595447408E+01 -0.10017393665E+02  0.14956867060E+02  0.18726370445E+02  0.00000000000E+00 0.  1.
         11    1    3    3    0    0 -0.50899327838E+01 -0.13822899683E+02  0.11251163949E+02  0.18535605247E+02  0.51100000000E-03 0. -1.
        -11    1    3    3    0    0  0.99637157885E+01 -0.32404684644E+01  0.48240991733E+01  0.11534652196E+02  0.51100000000E-03 0.  1.
        -12    1    3    3    0    0 -0.10033327746E+02  0.27080761812E+02 -0.31032130183E+02  0.42391372113E+02  0.00000000000E+00 0.  1.
</event>
<event>
 7    1  0.2604986E-013  0.7246156E+02  0.7816164E-02  0.1226708E+00
        -11   -1    0    0    0    0  0.00000000000E+00  0.00000000000E+00  0.45593999997E+02  0.45594000000E+02  0.51100000000E-03 0.  1.
         11   -1    0    0    0    0 -0.00000000000E+00 -0.00000000000E+00 -0.45593999997E+02  0.45594000000E+02  0.51100000000E-03 0. -1.
    9900012    2    1    2    0    0  0.61356940842E+01 -0.17480922461E+02  0.27295162059E+01  0.72461557447E+02  0.69999983264E+02 0.  0.
        -12    1    1    2    0    0 -0.61356940842E+01  0.17480922461E+02 -0.27295162059E+01  0.18726442553E+02  0.00000000000E+00 0.  1.
         11    1    3    3    0    0  0.27997262218E+02 -0.21542362996E+02 -0.78343240553E+00  0.35334598650E+02  0.51100000000E-03 0. -1.
        -11    1    3    3    0    0 -0.56185418641E+01 -0.49111465152E+01  0.13961764633E+02  0.15830926843E+02  0.51100000000E-03 0.  1.
        -12    1    3    3    0    0 -0.16243026269E+02  0.89725870504E+01 -0.10448816022E+02  0.21296031955E+02  0.00000000000E+00 0.  1.
</event>
<event>
 7    1  0.2604986E-013  0.7246158E+02  0.7816164E-02  0.1226708E+00
        -11   -1    0    0    0    0  0.00000000000E+00  0.00000000000E+00  0.45593999997E+02  0.45594000000E+02  0.51100000000E-03 0.  1.
         11   -1    0    0    0    0 -0.00000000000E+00 -0.00000000000E+00 -0.45593999997E+02  0.45594000000E+02  0.51100000000E-03 0. -1.
    9900012    2    1    2    0    0 -0.14531441433E+02 -0.42883321624E+01 -0.11005743457E+02  0.72461575571E+02  0.70000006874E+02 0.  0.
        -12    1    1    2    0    0  0.14531441433E+02  0.42883321624E+01  0.11005743457E+02  0.18726424429E+02  0.00000000000E+00 0.  1.
         11    1    3    3    0    0  0.68164036799E+00  0.97615110960E+01 -0.83020485803E+00  0.98204364891E+01  0.51100000000E-03 0. -1.
        -11    1    3    3    0    0  0.11326128816E+02 -0.15142667737E+02  0.16426869787E+02  0.25048425727E+02  0.51100000000E-03 0.  1.
         12    1    3    3    0    0 -0.26539210616E+02  0.10928244784E+01 -0.26602408386E+02  0.37592713355E+02  0.00000000000E+00 0. -1.
</event>
<event>
 7    1  0.2604986E-013  0.7246154E+02  0.7816164E-02  0.1226708E+00
        -11   -1    0    0    0    0  0.00000000000E+00  0.00000000000E+00  0.45593999997E+02  0.45594000000E+02  0.51100000000E-03 0.  1.
         11   -1    0    0    0    0 -0.00000000000E+00 -0.00000000000E+00 -0.45593999997E+02  0.45594000000E+02  0.51100000000E-03 0. -1.
    9900012    2    1    2    0    0  0.45308179169E+01  0.17330582851E+02 -0.54592175786E+01  0.72461535584E+02  0.69999954784E+02 0.  0.
        -12    1    1    2    0    0 -0.45308179169E+01 -0.17330582851E+02  0.54592175786E+01  0.18726464416E+02  0.00000000000E+00 0.  1.
         11    1    3    3    0    0 -0.13484561412E+02 -0.20737614488E+02 -0.59441931971E+01  0.25440430110E+02  0.51100000000E-03 0. -1.
        -11    1    3    3    0    0  0.11398033718E+01  0.22416035092E+02 -0.57596165351E+01  0.23172202396E+02  0.51100000000E-03 0.  1.
        -12    1    3    3    0    0  0.16875575957E+02  0.15652162247E+02  0.62445921536E+01  0.23848903079E+02  0.00000000000E+00 0.  1.
</event>
<event>
 7    1  0.2604986E-013  0.7246169E+02  0.7816164E-02  0.1226708E+00
        -11   -1    0    0    0    0  0.00000000000E+00  0.00000000000E+00  0.45593999997E+02  0.45594000000E+02  0.51100000000E-03 0.  1.
         11   -1    0    0    0    0 -0.00000000000E+00 -0.00000000000E+00 -0.45593999997E+02  0.45594000000E+02  0.51100000000E-03 0. -1.
    9900012    2    1    2    0    0  0.11549627518E+02 -0.63633806990E+01 -0.13296171204E+02  0.72461690208E+02  0.70000156210E+02 0.  0.
        -12    1    1    2    0    0 -0.11549627518E+02  0.63633806990E+01  0.13296171204E+02  0.18726309792E+02  0.00000000000E+00 0.  1.
         11    1    3    3    0    0  0.29706306813E+01  0.61996458014E+01 -0.16367307141E+02  0.17752436397E+02  0.51100000000E-03 0. -1.
        -11    1    3    3    0    0  0.17946226231E+02  0.45451645893E+01 -0.18122366788E+02  0.25906480566E+02  0.51100000000E-03 0.  1.
        -12    1    3    3    0    0 -0.93672293944E+01 -0.17108191090E+02  0.21193502725E+02  0.28802773246E+02  0.00000000000E+00 0.  1.
</event>
<event>
 7    1  0.2604986E-013  0.7246157E+02  0.7816164E-02  0.1226708E+00
        -11   -1    0    0    0    0  0.00000000000E+00  0.00000000000E+00  0.45593999997E+02  0.45594000000E+02  0.51100000000E-03 0. -1.
         11   -1    0    0    0    0 -0.00000000000E+00 -0.00000000000E+00 -0.45593999997E+02  0.45594000000E+02  0.51100000000E-03 0.  1.
    9900012    2    1    2    0    0 -0.18162319413E+02 -0.24275924043E+01  0.38621276545E+01  0.72461572648E+02  0.70000003066E+02 0.  0.
        -12    1    1    2    0    0  0.18162319413E+02  0.24275924043E+01 -0.38621276545E+01  0.18726427352E+02  0.00000000000E+00 0.  1.
         11    1    3    3    0    0 -0.17622670641E+02  0.11137979572E+02 -0.11771185616E+02  0.23941050949E+02  0.51100000000E-03 0. -1.
        -11    1    3    3    0    0 -0.21834378417E+02 -0.49986974034E+01  0.38794602838E+01  0.22732735624E+02  0.51100000000E-03 0.  1.
        -12    1    3    3    0    0  0.21294729645E+02 -0.85668745729E+01  0.11753852987E+02  0.25787786075E+02  0.00000000000E+00 0.  1.
</event>
<event>
 7    1  0.2604986E-013  0.7246158E+02  0.7816164E-02  0.1226708E+00
        -11   -1    0    0    0    0  0.00000000000E+00  0.00000000000E+00  0.45593999997E+02  0.45594000000E+02  0.51100000000E-03 0. -1.
         11   -1    0    0    0    0 -0.00000000000E+00 -0.00000000000E+00 -0.45593999997E+02  0.45594000000E+02  0.51100000000E-03 0.  1.
    9900012    2    1    2    0    0 -0.16716934940E+02  0.71730897159E+01  0.44463271850E+01  0.72461576014E+02  0.70000007451E+02 0.  0.
        -12    1    1    2    0    0  0.16716934940E+02 -0.71730897159E+01 -0.44463271850E+01  0.18726423986E+02  0.00000000000E+00 0.  1.
         11    1    3    3    0    0 -0.10067916532E+02 -0.21822213911E+02  0.10337899656E+02  0.26161883205E+02  0.51100000000E-03 0. -1.
        -11    1    3    3    0    0  0.40989674329E+01  0.60405488634E+01  0.12848717136E+02  0.14777662092E+02  0.51100000000E-03 0.  1.
        -12    1    3    3    0    0 -0.10747985842E+02  0.22954754764E+02 -0.18740289608E+02  0.31522030717E+02  0.00000000000E+00 0.  1.
</event>
<event>
 7    1  0.2604986E-013  0.7246161E+02  0.7816164E-02  0.1226708E+00
        -11   -1    0    0    0    0  0.00000000000E+00  0.00000000000E+00  0.45593999997E+02  0.45594000000E+02  0.51100000000E-03 0. -1.
         11   -1    0    0    0    0 -0.00000000000E+00 -0.00000000000E+00 -0.45593999997E+02  0.45594000000E+02  0.51100000000E-03 0.  1.
    9900012    2    1    2    0    0  0.42405207117E+01  0.13486336248E+02 -0.12280657623E+02  0.72461605981E+02  0.70000046488E+02 0.  0.
        -12    1    1    2    0    0 -0.42405207117E+01 -0.13486336248E+02  0.12280657623E+02  0.18726394019E+02  0.00000000000E+00 0.  1.
         11    1    3    3    0    0  0.34860246714E+01 -0.11766821473E+02  0.62235752541E+01  0.13760208748E+02  0.51100000000E-03 0. -1.
        -11    1    3    3    0    0 -0.15618926859E+02  0.60762778967E+01  0.10879827245E+02  0.19981057791E+02  0.51100000000E-03 0.  1.
         12    1    3    3    0    0  0.16373422900E+02  0.19176879824E+02 -0.29384060122E+02  0.38720339442E+02  0.00000000000E+00 0. -1.
</event>
<event>
 7    1  0.2604986E-013  0.7246149E+02  0.7816164E-02  0.1226708E+00
        -11   -1    0    0    0    0  0.00000000000E+00  0.00000000000E+00  0.45593999997E+02  0.45594000000E+02  0.51100000000E-03 0.  1.
         11   -1    0    0    0    0 -0.00000000000E+00 -0.00000000000E+00 -0.45593999997E+02  0.45594000000E+02  0.51100000000E-03 0. -1.
    9900012    2    1    2    0    0 -0.41176202665E+01  0.17774543287E+02 -0.42181851218E+01  0.72461487473E+02  0.69999892110E+02 0.  0.
        -12    1    1    2    0    0  0.41176202665E+01 -0.17774543287E+02  0.42181851218E+01  0.18726512527E+02  0.00000000000E+00 0.  1.
         11    1    3    3    0    0 -0.12890145372E+02  0.21557340962E+01  0.55759678839E+01  0.14208956869E+02  0.51100000000E-03 0. -1.
        -11    1    3    3    0    0  0.36132131882E+01  0.34304040971E+02  0.36141934736E+01  0.34682631549E+02  0.51100000000E-03 0.  1.
         12    1    3    3    0    0  0.51593119169E+01 -0.18685231780E+02 -0.13408346479E+02  0.23569899055E+02  0.00000000000E+00 0. -1.
</event>
<event>
 7    1  0.2604986E-013  0.7246184E+02  0.7816164E-02  0.1226707E+00
        -11   -1    0    0    0    0  0.00000000000E+00  0.00000000000E+00  0.45593999997E+02  0.45594000000E+02  0.51100000000E-03 0. -1.
         11   -1    0    0    0    0 -0.00000000000E+00 -0.00000000000E+00 -0.45593999997E+02  0.45594000000E+02  0.51100000000E-03 0.  1.
    9900012    2    1    2    0    0  0.13820532535E+02  0.11403494571E+02 -0.54426310905E+01  0.72461840725E+02  0.70000352286E+02 0.  0.
        -12    1    1    2    0    0 -0.13820532535E+02 -0.11403494571E+02  0.54426310905E+01  0.18726159275E+02  0.00000000000E+00 0.  1.
         11    1    3    3    0    0 -0.43297444267E+01  0.26942681141E+02  0.34186026022E+01  0.27501665366E+02  0.51100000000E-03 0. -1.
        -11    1    3    3    0    0 -0.95252842611E+01 -0.13235647465E+02 -0.32162777078E+01  0.16621006186E+02  0.51100000000E-03 0.  1.
        -12    1    3    3    0    0  0.27675561223E+02 -0.23035391051E+01 -0.56449559849E+01  0.28339169174E+02  0.00000000000E+00 0.  1.
</event>
<event>
 7    1  0.2604986E-013  0.7246158E+02  0.7816164E-02  0.1226708E+00
        -11   -1    0    0    0    0  0.00000000000E+00  0.00000000000E+00  0.45593999997E+02  0.45594000000E+02  0.51100000000E-03 0. -1.
         11   -1    0    0    0    0 -0.00000000000E+00 -0.00000000000E+00 -0.45593999997E+02  0.45594000000E+02  0.51100000000E-03 0.  1.
    9900012    2    1    2    0    0  0.89039919289E+01  0.45568056240E+00  0.16467853527E+02  0.72461577041E+02  0.70000008789E+02 0.  0.
        -12    1    1    2    0    0 -0.89039919289E+01 -0.45568056240E+00 -0.16467853527E+02  0.18726422959E+02  0.00000000000E+00 0.  1.
         11    1    3    3    0    0  0.20297792003E+02  0.10772814077E+02 -0.15004734066E+01  0.23028358691E+02  0.51100000000E-03 0. -1.
        -11    1    3    3    0    0 -0.22196868278E+02 -0.32427950871E+01 -0.50922942996E+01  0.23003220271E+02  0.51100000000E-03 0.  1.
         12    1    3    3    0    0  0.10803068204E+02 -0.70743384271E+01  0.23060621233E+02  0.26429998079E+02  0.00000000000E+00 0. -1.
</event>
<event>
 7    1  0.2604986E-013  0.7246152E+02  0.7816164E-02  0.1226708E+00
        -11   -1    0    0    0    0  0.00000000000E+00  0.00000000000E+00  0.45593999997E+02  0.45594000000E+02  0.51100000000E-03 0.  1.
         11   -1    0    0    0    0 -0.00000000000E+00 -0.00000000000E+00 -0.45593999997E+02  0.45594000000E+02  0.51100000000E-03 0. -1.
    9900012    2    1    2    0    0  0.13792171871E+02 -0.22045427576E+01 -0.12473854534E+02  0.72461519801E+02  0.69999934223E+02 0.  0.
        -12    1    1    2    0    0 -0.13792171871E+02  0.22045427576E+01  0.12473854534E+02  0.18726480199E+02  0.00000000000E+00 0.  1.
         11    1    3    3    0    0 -0.99995887754E+01  0.30317944133E+01 -0.72957021847E+01  0.12744050521E+02  0.51100000000E-03 0. -1.
        -11    1    3    3    0    0  0.14212865791E+02  0.19116004046E+02  0.13673045436E+02  0.27465966876E+02  0.51100000000E-03 0.  1.
        -12    1    3    3    0    0  0.95788948562E+01 -0.24352341217E+02 -0.18851197785E+02  0.32251502405E+02  0.00000000000E+00 0.  1.
</event>
<event>
 7    1  0.2604986E-013  0.7246165E+02  0.7816164E-02  0.1226708E+00
        -11   -1    0    0    0    0  0.00000000000E+00  0.00000000000E+00  0.45593999997E+02  0.45594000000E+02  0.51100000000E-03 0. -1.
         11   -1    0    0    0    0 -0.00000000000E+00 -0.00000000000E+00 -0.45593999997E+02  0.45594000000E+02  0.51100000000E-03 0.  1.
    9900012    2    1    2    0    0 -0.23414556336E+00  0.83279850481E+01  0.16770988962E+02  0.72461648784E+02  0.70000102248E+02 0.  0.
        -12    1    1    2    0    0  0.23414556336E+00 -0.83279850481E+01 -0.16770988962E+02  0.18726351216E+02  0.00000000000E+00 0.  1.
         11    1    3    3    0    0 -0.82307473420E+01  0.77973986203E+01 -0.78690562290E+01  0.13800966388E+02  0.51100000000E-03 0. -1.
        -11    1    3    3    0    0 -0.80445572316E+01  0.10890690655E+02 -0.11514025563E+02  0.17773430421E+02  0.51100000000E-03 0.  1.
         12    1    3    3    0    0  0.16041159010E+02 -0.10360104228E+02  0.36154070754E+02  0.40887251975E+02  0.00000000000E+00 0. -1.
</event>
<event>
 7    1  0.2604986E-013  0.7246156E+02  0.7816164E-02  0.1226708E+00
        -11   -1    0    0    0    0  0.00000000000E+00  0.00000000000E+00  0.45593999997E+02  0.45594000000E+02  0.51100000000E-03 0. -1.
         11   -1    0    0    0    0 -0.00000000000E+00 -0.00000000000E+00 -0.45593999997E+02  0.45594000000E+02  0.51100000000E-03 0.  1.
    9900012    2    1    2    0    0  0.10176261064E+02 -0.97439553397E+01  0.12336069728E+02  0.72461559568E+02  0.69999986027E+02 0.  0.
        -12    1    1    2    0    0 -0.10176261064E+02  0.97439553397E+01 -0.12336069728E+02  0.18726440432E+02  0.00000000000E+00 0.  1.
         11    1    3    3    0    0  0.22519940220E+00  0.80658135058E+00  0.48599789447E+01  0.49316005364E+01  0.51100000000E-03 0. -1.
        -11    1    3    3    0    0 -0.20440546685E+01  0.63741355376E+01  0.33549656702E+02  0.34210922648E+02  0.51100000000E-03 0.  1.
        -12    1    3    3    0    0  0.11995116331E+02 -0.16924672228E+02 -0.26073565919E+02  0.33319036383E+02  0.00000000000E+00 0.  1.
</event>
<event>
 7    1  0.2604986E-013  0.7246145E+02  0.7816164E-02  0.1226708E+00
        -11   -1    0    0    0    0  0.00000000000E+00  0.00000000000E+00  0.45593999997E+02  0.45594000000E+02  0.51100000000E-03 0.  1.
         11   -1    0    0    0    0 -0.00000000000E+00 -0.00000000000E+00 -0.45593999997E+02  0.45594000000E+02  0.51100000000E-03 0. -1.
    9900012    2    1    2    0    0  0.58885892124E+01 -0.11154713657E+02 -0.13841259092E+02  0.72461452722E+02  0.69999846841E+02 0.  0.
        -12    1    1    2    0    0 -0.58885892124E+01  0.11154713657E+02  0.13841259092E+02  0.18726547278E+02  0.00000000000E+00 0.  1.
         11    1    3    3    0    0 -0.50888873849E+01 -0.14048230379E+01 -0.38915199420E+02  0.39271657066E+02  0.51100000000E-03 0. -1.
        -11    1    3    3    0    0  0.10295288636E+02  0.11215979800E+01  0.87105788919E+01  0.13532373592E+02  0.51100000000E-03 0.  1.
        -12    1    3    3    0    0  0.68218796098E+00 -0.10871488599E+02  0.16363361435E+02  0.19657422065E+02  0.00000000000E+00 0.  1.
</event>
<event>
 7    1  0.2604986E-013  0.7246157E+02  0.7816164E-02  0.1226708E+00
        -11   -1    0    0    0    0  0.00000000000E+00  0.00000000000E+00  0.45593999997E+02  0.45594000000E+02  0.51100000000E-03 0.  1.
         11   -1    0    0    0    0 -0.00000000000E+00 -0.00000000000E+00 -0.45593999997E+02  0.45594000000E+02  0.51100000000E-03 0. -1.
    9900012    2    1    2    0    0  0.12791091339E+02 -0.94289056768E+00  0.13644704780E+02  0.72461574052E+02  0.70000004895E+02 0.  0.
        -12    1    1    2    0    0 -0.12791091339E+02  0.94289056768E+00 -0.13644704780E+02  0.18726425948E+02  0.00000000000E+00 0.  1.
         11    1    3    3    0    0  0.25340400902E+02  0.39271811819E+01  0.26972074360E+02  0.37216279576E+02  0.51100000000E-03 0. -1.
        -11    1    3    3    0    0  0.60094971449E+01 -0.28432999153E+01 -0.15093501635E+02  0.16492792432E+02  0.51100000000E-03 0.  1.
        -12    1    3    3    0    0 -0.18558806708E+02 -0.20267718343E+01  0.17661320546E+01  0.18752502044E+02  0.00000000000E+00 0.  1.
</event>
<event>
 7    1  0.2604986E-013  0.7246159E+02  0.7816164E-02  0.1226708E+00
        -11   -1    0    0    0    0  0.00000000000E+00  0.00000000000E+00  0.45593999997E+02  0.45594000000E+02  0.51100000000E-03 0. -1.
         11   -1    0    0    0    0 -0.00000000000E+00 -0.00000000000E+00 -0.45593999997E+02  0.45594000000E+02  0.51100000000E-03 0.  1.
    9900012    2    1    2    0    0  0.70572351376E+01 -0.11169670121E+02  0.13270737733E+02  0.72461586078E+02  0.70000020561E+02 0.  0.
        -12    1    1    2    0    0 -0.70572351376E+01  0.11169670121E+02 -0.13270737733E+02  0.18726413922E+02  0.00000000000E+00 0.  1.
         11    1    3    3    0    0 -0.34521159379E+01  0.30569252115E+01  0.15850611891E+01  0.48758912449E+01  0.51100000000E-03 0.  1.
        -11    1    3    3    0    0  0.52192246298E+00 -0.14118732549E+02  0.37410747749E+02  0.39989686912E+02  0.51100000000E-03 0. -1.
        -12    1    3    3    0    0  0.99874286125E+01 -0.10786278380E+00 -0.25725071205E+02  0.27596007921E+02  0.00000000000E+00 0.  1.
</event>
<event>
 7    1  0.2604986E-013  0.7246154E+02  0.7816164E-02  0.1226708E+00
        -11   -1    0    0    0    0  0.00000000000E+00  0.00000000000E+00  0.45593999997E+02  0.45594000000E+02  0.51100000000E-03 0.  1.
         11   -1    0    0    0    0 -0.00000000000E+00 -0.00000000000E+00 -0.45593999997E+02  0.45594000000E+02  0.51100000000E-03 0. -1.
    9900012    2    1    2    0    0  0.14452217327E+01 -0.85446211344E+01 -0.16600636027E+02  0.72461539238E+02  0.69999959543E+02 0.  0.
        -12    1    1    2    0    0 -0.14452217327E+01  0.85446211344E+01  0.16600636027E+02  0.18726460762E+02  0.00000000000E+00 0.  1.
         11    1    3    3    0    0  0.19765943881E-03 -0.81567636290E+01  0.23380445662E+01  0.84852369203E+01  0.51100000000E-03 0. -1.
        -11    1    3    3    0    0  0.10045174428E+01 -0.30731009032E+02 -0.10242437289E+02  0.32408509581E+02  0.51100000000E-03 0.  1.
        -12    1    3    3    0    0  0.44050663052E+00  0.30343151526E+02 -0.86962433040E+01  0.31567792736E+02  0.00000000000E+00 0.  1.
</event>
<event>
 7    1  0.2604986E-013  0.7246157E+02  0.7816164E-02  0.1226708E+00
        -11   -1    0    0    0    0  0.00000000000E+00  0.00000000000E+00  0.45593999997E+02  0.45594000000E+02  0.51100000000E-03 0.  1.
         11   -1    0    0    0    0 -0.00000000000E+00 -0.00000000000E+00 -0.45593999997E+02  0.45594000000E+02  0.51100000000E-03 0. -1.
    9900012    2    1    2    0    0  0.62352773302E+01 -0.17603375281E+02 -0.13862625171E+01  0.72461568721E+02  0.69999997950E+02 0.  0.
        -12    1    1    2    0    0 -0.62352773302E+01  0.17603375281E+02  0.13862625171E+01  0.18726431279E+02  0.00000000000E+00 0.  1.
         11    1    3    3    0    0  0.17295531290E+02 -0.21192961356E+02  0.30880523306E+01  0.27528404987E+02  0.51100000000E-03 0. -1.
        -11    1    3    3    0    0  0.11085063400E+02 -0.54662727749E+01  0.10912084247E+02  0.16487339128E+02  0.51100000000E-03 0.  1.
         12    1    3    3    0    0 -0.22145317360E+02  0.90558588500E+01 -0.15386399094E+02  0.28445824607E+02  0.00000000000E+00 0. -1.
</event>
<event>
 7    1  0.2604986E-013  0.7246174E+02  0.7816164E-02  0.1226708E+00
        -11   -1    0    0    0    0  0.00000000000E+00  0.00000000000E+00  0.45593999997E+02  0.45594000000E+02  0.51100000000E-03 0. -1.
         11   -1    0    0    0    0 -0.00000000000E+00 -0.00000000000E+00 -0.45593999997E+02  0.45594000000E+02  0.51100000000E-03 0.  1.
    9900012    2    1    2    0    0 -0.16541293571E+01  0.15318186886E+02  0.10643764984E+02  0.72461742327E+02  0.70000224104E+02 0.  0.
        -12    1    1    2    0    0  0.16541293571E+01 -0.15318186886E+02 -0.10643764984E+02  0.18726257673E+02  0.00000000000E+00 0.  1.
         11    1    3    3    0    0 -0.83186743119E+01  0.30074070916E+02  0.26437712356E+01  0.31315165820E+02  0.51100000000E-03 0. -1.
        -11    1    3    3    0    0  0.13133080593E+02  0.38731942906E+01 -0.79062066071E+01  0.15810994372E+02  0.51100000000E-03 0.  1.
        -12    1    3    3    0    0 -0.64685356378E+01 -0.18629078320E+02  0.15906200355E+02  0.25335582134E+02  0.00000000000E+00 0.  1.
</event>
<event>
 7    1  0.2604986E-013  0.7246154E+02  0.7816164E-02  0.1226708E+00
        -11   -1    0    0    0    0  0.00000000000E+00  0.00000000000E+00  0.45593999997E+02  0.45594000000E+02  0.51100000000E-03 0. -1.
         11   -1    0    0    0    0 -0.00000000000E+00 -0.00000000000E+00 -0.45593999997E+02  0.45594000000E+02  0.51100000000E-03 0.  1.
    9900012    2    1    2    0    0  0.13229862298E+01 -0.28280315672E+01  0.18464353042E+02  0.72461537751E+02  0.69999957606E+02 0.  0.
        -12    1    1    2    0    0 -0.13229862298E+01  0.28280315672E+01 -0.18464353042E+02  0.18726462249E+02  0.00000000000E+00 0.  1.
         11    1    3    3    0    0 -0.10051870916E+02 -0.59903520222E+00  0.85907382911E+01  0.13236303742E+02  0.51100000000E-03 0. -1.
        -11    1    3    3    0    0 -0.78517026686E+01  0.43927864724E+01 -0.20663397025E+02  0.22537120151E+02  0.51100000000E-03 0.  1.
         12    1    3    3    0    0  0.19226559815E+02 -0.66217828374E+01  0.30537011777E+02  0.36688113859E+02  0.00000000000E+00 0. -1.
</event>
<event>
 7    1  0.2604986E-013  0.7246157E+02  0.7816164E-02  0.1226708E+00
        -11   -1    0    0    0    0  0.00000000000E+00  0.00000000000E+00  0.45593999997E+02  0.45594000000E+02  0.51100000000E-03 0.  1.
         11   -1    0    0    0    0 -0.00000000000E+00 -0.00000000000E+00 -0.45593999997E+02  0.45594000000E+02  0.51100000000E-03 0. -1.
    9900012    2    1    2    0    0  0.16644167709E+01  0.63604796620E+01 -0.17534346006E+02  0.72461567490E+02  0.69999996346E+02 0.  0.
        -12    1    1    2    0    0 -0.16644167709E+01 -0.63604796620E+01  0.17534346006E+02  0.18726432510E+02  0.00000000000E+00 0.  1.
         11    1    3    3    0    0  0.70734421795E+01  0.13398353307E+02 -0.49075063005E+01  0.15925861796E+02  0.51100000000E-03 0. -1.
        -11    1    3    3    0    0 -0.25220361346E+02  0.11673104675E+02 -0.49888665576E+01  0.28235027696E+02  0.51100000000E-03 0.  1.
         12    1    3    3    0    0  0.19811335938E+02 -0.18710978320E+02 -0.76379731476E+01  0.28300677998E+02  0.00000000000E+00 0. -1.
</event>
<event>
 7    1  0.2604986E-013  0.7246162E+02  0.7816164E-02  0.1226708E+00
        -11   -1    0    0    0    0  0.00000000000E+00  0.00000000000E+00  0.45593999997E+02  0.45594000000E+02  0.51100000000E-03 0. -1.
         11   -1    0    0    0    0 -0.00000000000E+00 -0.00000000000E+00 -0.45593999997E+02  0.45594000000E+02  0.51100000000E-03 0.  1.
    9900012    2    1    2    0    0  0.13978425587E+02  0.10377004458E+02  0.68991690285E+01  0.72461624571E+02  0.70000070705E+02 0.  0.
        -12    1    1    2    0    0 -0.13978425587E+02 -0.10377004458E+02 -0.68991690285E+01  0.18726375429E+02  0.00000000000E+00 0.  1.
         11    1    3    3    0    0  0.58885299237E+01  0.97144181789E-01 -0.72781609969E+01  0.93624702623E+01  0.51100000000E-03 0. -1.
        -11    1    3    3    0    0 -0.18494148581E+02  0.10095525830E+02 -0.13259734581E+02  0.24895255269E+02  0.51100000000E-03 0.  1.
         12    1    3    3    0    0  0.26584044244E+02  0.18433444706E+00  0.27437064607E+02  0.38203899039E+02  0.00000000000E+00 0. -1.
</event>
<event>
 7    1  0.2604986E-013  0.7246157E+02  0.7816164E-02  0.1226708E+00
        -11   -1    0    0    0    0  0.00000000000E+00  0.00000000000E+00  0.45593999997E+02  0.45594000000E+02  0.51100000000E-03 0.  1.
         11   -1    0    0    0    0 -0.00000000000E+00 -0.00000000000E+00 -0.45593999997E+02  0.45594000000E+02  0.51100000000E-03 0. -1.
    9900012    2    1    2    0    0 -0.15048856722E+02 -0.67439578746E+01 -0.88729931209E+01  0.72461573128E+02  0.70000003692E+02 0.  0.
        -12    1    1    2    0    0  0.15048856722E+02  0.67439578746E+01  0.88729931209E+01  0.18726426872E+02  0.00000000000E+00 0.  1.
         11    1    3    3    0    0 -0.14212093474E+02  0.80606820446E+01 -0.16413957050E+02  0.23159796680E+02  0.51100000000E-03 0. -1.
        -11    1    3    3    0    0  0.69726422828E+01 -0.31589348240E+01  0.25438719193E+02  0.26565485956E+02  0.51100000000E-03 0.  1.
         12    1    3    3    0    0 -0.78094055302E+01 -0.11645705095E+02 -0.17897755263E+02  0.22736290493E+02  0.00000000000E+00 0. -1.
</event>
<event>
 7    1  0.2604986E-013  0.7246155E+02  0.7816164E-02  0.1226708E+00
        -11   -1    0    0    0    0  0.00000000000E+00  0.00000000000E+00  0.45593999997E+02  0.45594000000E+02  0.51100000000E-03 0.  1.
         11   -1    0    0    0    0 -0.00000000000E+00 -0.00000000000E+00 -0.45593999997E+02  0.45594000000E+02  0.51100000000E-03 0. -1.
    9900012    2    1    2    0    0  0.12653956094E+02  0.53147620066E+01 -0.12740113899E+02  0.72461553402E+02  0.69999977995E+02 0.  0.
        -12    1    1    2    0    0 -0.12653956094E+02 -0.53147620066E+01  0.12740113899E+02  0.18726446598E+02  0.00000000000E+00 0.  1.
         11    1    3    3    0    0  0.88715003074E+01  0.33449864578E+02 -0.18853472554E+02  0.39408760265E+02  0.51100000000E-03 0. -1.
        -11    1    3    3    0    0  0.28860137982E+01  0.77694399414E+00 -0.11934859847E+01  0.32182490069E+01  0.51100000000E-03 0.  1.
        -12    1    3    3    0    0  0.89644198880E+00 -0.28912046566E+02  0.73068446399E+01  0.29834544130E+02  0.00000000000E+00 0.  1.
</event>
<event>
 7    1  0.2604986E-013  0.7246161E+02  0.7816164E-02  0.1226708E+00
        -11   -1    0    0    0    0  0.00000000000E+00  0.00000000000E+00  0.45593999997E+02  0.45594000000E+02  0.51100000000E-03 0.  1.
         11   -1    0    0    0    0 -0.00000000000E+00 -0.00000000000E+00 -0.45593999997E+02  0.45594000000E+02  0.51100000000E-03 0. -1.
    9900012    2    1    2    0    0 -0.20745750278E+01 -0.12076020695E+02 -0.14161344832E+02  0.72461606197E+02  0.70000046770E+02 0.  0.
        -12    1    1    2    0    0  0.20745750278E+01  0.12076020695E+02  0.14161344832E+02  0.18726393803E+02  0.00000000000E+00 0.  1.
         11    1    3    3    0    0 -0.16057908021E+02  0.31461225481E+01  0.88708960739E+01  0.18613094706E+02  0.51100000000E-03 0. -1.
        -11    1    3    3    0    0 -0.99839078083E+01 -0.54116916805E+01  0.76539874629E+01  0.13694829182E+02  0.51100000000E-03 0.  1.
        -12    1    3    3    0    0  0.23967240802E+02 -0.98104515630E+01 -0.30686228369E+02  0.40153682310E+02  0.00000000000E+00 0.  1.
</event>
<event>
 7    1  0.2604986E-013  0.7246152E+02  0.7816164E-02  0.1226708E+00
        -11   -1    0    0    0    0  0.00000000000E+00  0.00000000000E+00  0.45593999997E+02  0.45594000000E+02  0.51100000000E-03 0.  1.
         11   -1    0    0    0    0 -0.00000000000E+00 -0.00000000000E+00 -0.45593999997E+02  0.45594000000E+02  0.51100000000E-03 0. -1.
    9900012    2    1    2    0    0  0.13047807737E+02  0.10675582343E+02  0.81527812198E+01  0.72461516434E+02  0.69999929837E+02 0.  0.
        -12    1    1    2    0    0 -0.13047807737E+02 -0.10675582343E+02 -0.81527812198E+01  0.18726483566E+02  0.00000000000E+00 0.  1.
         11    1    3    3    0    0 -0.30808585221E+01  0.81458053951E+01  0.80149810178E+01  0.11835782853E+02  0.51100000000E-03 0. -1.
        -11    1    3    3    0    0 -0.12334803992E+02  0.19734251411E-01  0.21610498797E+02  0.24882954758E+02  0.51100000000E-03 0.  1.
         12    1    3    3    0    0  0.28463470251E+02  0.25100426965E+01 -0.21472698595E+02  0.35742778824E+02  0.00000000000E+00 0. -1.
</event>
<event>
 7    1  0.2604986E-013  0.7246183E+02  0.7816164E-02  0.1226707E+00
        -11   -1    0    0    0    0  0.00000000000E+00  0.00000000000E+00  0.45593999997E+02  0.45594000000E+02  0.51100000000E-03 0.  1.
         11   -1    0    0    0    0 -0.00000000000E+00 -0.00000000000E+00 -0.45593999997E+02  0.45594000000E+02  0.51100000000E-03 0. -1.
    9900012    2    1    2    0    0 -0.17175741507E+02 -0.59869456639E+01  0.44519348558E+01  0.72461832783E+02  0.70000341939E+02 0.  0.
        -12    1    1    2    0    0  0.17175741507E+02  0.59869456639E+01 -0.44519348558E+01  0.18726167217E+02  0.00000000000E+00 0.  1.
         11    1    3    3    0    0  0.10966718419E+02 -0.82926154954E+01 -0.13746262763E+02  0.19442122437E+02  0.51100000000E-03 0. -1.
        -11    1    3    3    0    0  0.67827439000E+01 -0.92750048958E+00 -0.70315191134E+01  0.98136707340E+01  0.51100000000E-03 0.  1.
        -12    1    3    3    0    0 -0.34925203825E+02  0.32331703211E+01  0.25229716732E+02  0.43206039612E+02  0.00000000000E+00 0.  1.
</event>
<event>
 7    1  0.2604986E-013  0.7246156E+02  0.7816164E-02  0.1226708E+00
        -11   -1    0    0    0    0  0.00000000000E+00  0.00000000000E+00  0.45593999997E+02  0.45594000000E+02  0.51100000000E-03 0.  1.
         11   -1    0    0    0    0 -0.00000000000E+00 -0.00000000000E+00 -0.45593999997E+02  0.45594000000E+02  0.51100000000E-03 0. -1.
    9900012    2    1    2    0    0  0.16905277016E+02  0.39071973340E+01  0.70444967465E+01  0.72461561032E+02  0.69999987935E+02 0.  0.
        -12    1    1    2    0    0 -0.16905277016E+02 -0.39071973340E+01 -0.70444967465E+01  0.18726438968E+02  0.00000000000E+00 0.  1.
         11    1    3    3    0    0 -0.15216286288E+02  0.34611706945E+01  0.28225964930E+00  0.15607521961E+02  0.51100000000E-03 0. -1.
        -11    1    3    3    0    0  0.29781012094E+02  0.10013461922E+02  0.22249816695E+02  0.38499772002E+02  0.51100000000E-03 0.  1.
         12    1    3    3    0    0  0.23405512102E+01 -0.95674352827E+01 -0.15487579598E+02  0.18354267070E+02  0.00000000000E+00 0. -1.
</event>
<event>
 7    1  0.2604986E-013  0.7246158E+02  0.7816164E-02  0.1226708E+00
        -11   -1    0    0    0    0  0.00000000000E+00  0.00000000000E+00  0.45593999997E+02  0.45594000000E+02  0.51100000000E-03 0.  1.
         11   -1    0    0    0    0 -0.00000000000E+00 -0.00000000000E+00 -0.45593999997E+02  0.45594000000E+02  0.51100000000E-03 0. -1.
    9900012    2    1    2    0    0  0.10542821511E+02 -0.29576147572E-01 -0.15476651878E+02  0.72461582470E+02  0.70000015860E+02 0.  0.
        -12    1    1    2    0    0 -0.10542821511E+02  0.29576147572E-01  0.15476651878E+02  0.18726417530E+02  0.00000000000E+00 0.  1.
         11    1    3    3    0    0  0.18622421385E+02  0.17157669351E+02 -0.92466437755E+01  0.26957014248E+02  0.51100000000E-03 0. -1.
        -11    1    3    3    0    0  0.95391244899E+01 -0.19253391195E+02 -0.14510529075E+02  0.25927657489E+02  0.51100000000E-03 0.  1.
        -12    1    3    3    0    0 -0.17618724364E+02  0.20661456968E+01  0.82805209727E+01  0.19576910733E+02  0.00000000000E+00 0.  1.
</event>
<event>
 7    1  0.2604986E-013  0.7246157E+02  0.7816164E-02  0.1226708E+00
        -11   -1    0    0    0    0  0.00000000000E+00  0.00000000000E+00  0.45593999997E+02  0.45594000000E+02  0.51100000000E-03 0. -1.
         11   -1    0    0    0    0 -0.00000000000E+00 -0.00000000000E+00 -0.45593999997E+02  0.45594000000E+02  0.51100000000E-03 0.  1.
    9900012    2    1    2    0    0  0.15054307104E+02  0.11077911580E+02  0.11518938849E+01  0.72461570899E+02  0.70000000788E+02 0.  0.
        -12    1    1    2    0    0 -0.15054307104E+02 -0.11077911580E+02 -0.11518938849E+01  0.18726429101E+02  0.00000000000E+00 0.  1.
         11    1    3    3    0    0  0.24960708179E+00 -0.15501547396E+02  0.12895940366E+02  0.20165950351E+02  0.51100000000E-03 0. -1.
        -11    1    3    3    0    0 -0.58743090244E+01 -0.82107291388E+01  0.20099761707E+00  0.10097721516E+02  0.51100000000E-03 0.  1.
        -12    1    3    3    0    0  0.20679009047E+02  0.34790188115E+02 -0.11945044098E+02  0.42197899032E+02  0.00000000000E+00 0.  1.
</event>
<event>
 7    1  0.2604986E-013  0.7246147E+02  0.7816164E-02  0.1226708E+00
        -11   -1    0    0    0    0  0.00000000000E+00  0.00000000000E+00  0.45593999997E+02  0.45594000000E+02  0.51100000000E-03 0. -1.
         11   -1    0    0    0    0 -0.00000000000E+00 -0.00000000000E+00 -0.45593999997E+02  0.45594000000E+02  0.51100000000E-03 0.  1.
    9900012    2    1    2    0    0 -0.10605963341E+00  0.46640606022E+01  0.18136106164E+02  0.72461466505E+02  0.69999864796E+02 0.  0.
        -12    1    1    2    0    0  0.10605963341E+00 -0.46640606022E+01 -0.18136106164E+02  0.18726533495E+02  0.00000000000E+00 0.  1.
         11    1    3    3    0    0 -0.39213745383E+01  0.10061028203E+02  0.21712096666E+02  0.24249053768E+02  0.51100000000E-03 0. -1.
        -11    1    3    3    0    0 -0.10098852805E+02  0.42080065816E+01  0.17839584613E+02  0.20927133746E+02  0.51100000000E-03 0.  1.
        -12    1    3    3    0    0  0.13914167710E+02 -0.96049741824E+01 -0.21415575116E+02  0.27285278991E+02  0.00000000000E+00 0.  1.
</event>
<event>
 7    1  0.2604986E-013  0.7246152E+02  0.7816164E-02  0.1226708E+00
        -11   -1    0    0    0    0  0.00000000000E+00  0.00000000000E+00  0.45593999997E+02  0.45594000000E+02  0.51100000000E-03 0. -1.
         11   -1    0    0    0    0 -0.00000000000E+00 -0.00000000000E+00 -0.45593999997E+02  0.45594000000E+02  0.51100000000E-03 0.  1.
    9900012    2    1    2    0    0 -0.11896695330E+02 -0.11497745792E+02  0.87722080667E+01  0.72461517350E+02  0.69999931030E+02 0.  0.
        -12    1    1    2    0    0  0.11896695330E+02  0.11497745792E+02 -0.87722080667E+01  0.18726482650E+02  0.00000000000E+00 0.  1.
         11    1    3    3    0    0 -0.11528693113E+01 -0.42028381335E+01  0.14110659609E+02  0.14768333382E+02  0.51100000000E-03 0.  1.
        -11    1    3    3    0    0  0.83510233593E+01 -0.63874915071E+01  0.21971496076E+02  0.24357468649E+02  0.51100000000E-03 0. -1.
        -12    1    3    3    0    0 -0.19094849378E+02 -0.90741615125E+00 -0.27309947619E+02  0.33335715318E+02  0.00000000000E+00 0.  1.
</event>
<event>
 7    1  0.2604986E-013  0.7246161E+02  0.7816164E-02  0.1226708E+00
        -11   -1    0    0    0    0  0.00000000000E+00  0.00000000000E+00  0.45593999997E+02  0.45594000000E+02  0.51100000000E-03 0.  1.
         11   -1    0    0    0    0 -0.00000000000E+00 -0.00000000000E+00 -0.45593999997E+02  0.45594000000E+02  0.51100000000E-03 0. -1.
    9900012    2    1    2    0    0  0.91562600934E+01  0.91767531150E+01 -0.13513988440E+02  0.72461607390E+02  0.70000048324E+02 0.  0.
        -12    1    1    2    0    0 -0.91562600934E+01 -0.91767531150E+01  0.13513988440E+02  0.18726392610E+02  0.00000000000E+00 0.  1.
         11    1    3    3    0    0  0.28384960566E+02  0.89988758593E+01  0.11248147199E+02  0.31830905874E+02  0.51100000000E-03 0. -1.
        -11    1    3    3    0    0 -0.39498341461E+01  0.10793299385E+02 -0.27656513099E+01  0.11821392846E+02  0.51100000000E-03 0.  1.
        -12    1    3    3    0    0 -0.15278866327E+02 -0.10615422129E+02 -0.21996484329E+02  0.28809308670E+02  0.00000000000E+00 0.  1.
</event>
<event>
 7    1  0.2604986E-013  0.7246169E+02  0.7816164E-02  0.1226708E+00
        -11   -1    0    0    0    0  0.00000000000E+00  0.00000000000E+00  0.45593999997E+02  0.45594000000E+02  0.51100000000E-03 0.  1.
         11   -1    0    0    0    0 -0.00000000000E+00 -0.00000000000E+00 -0.45593999997E+02  0.45594000000E+02  0.51100000000E-03 0. -1.
    9900012    2    1    2    0    0  0.68025029847E+01  0.80630912467E+01 -0.15472136909E+02  0.72461694762E+02  0.70000162143E+02 0.  0.
        -12    1    1    2    0    0 -0.68025029847E+01 -0.80630912467E+01  0.15472136909E+02  0.18726305238E+02  0.00000000000E+00 0.  1.
         11    1    3    3    0    0  0.41619210497E+01  0.18716635158E+02  0.55152390761E+01  0.19951237575E+02  0.51100000000E-03 0. -1.
        -11    1    3    3    0    0 -0.49090971871E+01  0.14208191578E+02  0.49215022948E+01  0.15817494372E+02  0.51100000000E-03 0.  1.
         12    1    3    3    0    0  0.75496791222E+01 -0.24861735489E+02 -0.25908878280E+02  0.36692962815E+02  0.00000000000E+00 0. -1.
</event>
<event>
 7    1  0.2604986E-013  0.7246155E+02  0.7816164E-02  0.1226708E+00
        -11   -1    0    0    0    0  0.00000000000E+00  0.00000000000E+00  0.45593999997E+02  0.45594000000E+02  0.51100000000E-03 0.  1.
         11   -1    0    0    0    0 -0.00000000000E+00 -0.00000000000E+00 -0.45593999997E+02  0.45594000000E+02  0.51100000000E-03 0. -1.
    9900012    2    1    2    0    0 -0.14245365957E+02 -0.18811771722E+00 -0.12153767600E+02  0.72461550620E+02  0.69999974371E+02 0.  0.
        -12    1    1    2    0    0  0.14245365957E+02  0.18811771722E+00  0.12153767600E+02  0.18726449380E+02  0.00000000000E+00 0.  1.
         11    1    3    3    0    0 -0.14330977442E+02 -0.24581335146E+02 -0.45730878754E+01  0.28818953572E+02  0.51100000000E-03 0. -1.
        -11    1    3    3    0    0 -0.16918442856E+02  0.18212331545E+02 -0.51719296533E+01  0.25390383723E+02  0.51100000000E-03 0.  1.
        -12    1    3    3    0    0  0.17004054342E+02  0.61808858837E+01 -0.24087500710E+01  0.18252213325E+02  0.00000000000E+00 0.  1.
</event>
<event>
 7    1  0.2604986E-013  0.7246141E+02  0.7816164E-02  0.1226708E+00
        -11   -1    0    0    0    0  0.00000000000E+00  0.00000000000E+00  0.45593999997E+02  0.45594000000E+02  0.51100000000E-03 0.  1.
         11   -1    0    0    0    0 -0.00000000000E+00 -0.00000000000E+00 -0.45593999997E+02  0.45594000000E+02  0.51100000000E-03 0. -1.
    9900012    2    1    2    0    0 -0.15359038968E+02 -0.95953147283E+01  0.47660231165E+01  0.72461411440E+02  0.69999793063E+02 0.  0.
        -12    1    1    2    0    0  0.15359038968E+02  0.95953147283E+01 -0.47660231165E+01  0.18726588560E+02  0.00000000000E+00 0.  1.
         11    1    3    3    0    0  0.16832020589E+01 -0.29671018667E+02  0.22067393025E+00  0.29719542647E+02  0.51100000000E-03 0. -1.
        -11    1    3    3    0    0 -0.13922537149E+02 -0.54483788191E+01 -0.42871559491E+01  0.15553185488E+02  0.51100000000E-03 0.  1.
        -12    1    3    3    0    0 -0.31197038774E+01  0.25524082758E+02  0.88325051354E+01  0.27188683305E+02  0.00000000000E+00 0.  1.
</event>
<event>
 7    1  0.2604986E-013  0.7246158E+02  0.7816164E-02  0.1226708E+00
        -11   -1    0    0    0    0  0.00000000000E+00  0.00000000000E+00  0.45593999997E+02  0.45594000000E+02  0.51100000000E-03 0. -1.
         11   -1    0    0    0    0 -0.00000000000E+00 -0.00000000000E+00 -0.45593999997E+02  0.45594000000E+02  0.51100000000E-03 0.  1.
    9900012    2    1    2    0    0  0.71935434108E+01 -0.88473268567E+01  0.14854513405E+02  0.72461579418E+02  0.70000011886E+02 0.  0.
        -12    1    1    2    0    0 -0.71935434108E+01  0.88473268567E+01 -0.14854513405E+02  0.18726420582E+02  0.00000000000E+00 0.  1.
         11    1    3    3    0    0  0.23524878474E+02 -0.17096328546E+01  0.14061152246E+02  0.27460130270E+02  0.51100000000E-03 0. -1.
        -11    1    3    3    0    0 -0.23351946488E+01  0.16697137716E+02  0.35322640707E+01  0.17225691037E+02  0.51100000000E-03 0.  1.
        -12    1    3    3    0    0 -0.13996140414E+02 -0.23834831718E+02 -0.27389029119E+01  0.27775758112E+02  0.00000000000E+00 0.  1.
</event>
<event>
 7    1  0.2604986E-013  0.7246160E+02  0.7816164E-02  0.1226708E+00
        -11   -1    0    0    0    0  0.00000000000E+00  0.00000000000E+00  0.45593999997E+02  0.45594000000E+02  0.51100000000E-03 0.  1.
         11   -1    0    0    0    0 -0.00000000000E+00 -0.00000000000E+00 -0.45593999997E+02  0.45594000000E+02  0.51100000000E-03 0. -1.
    9900012    2    1    2    0    0 -0.21235085482E+01  0.52556453911E+01 -0.17847886095E+02  0.72461597914E+02  0.70000035979E+02 0.  0.
        -12    1    1    2    0    0  0.21235085482E+01 -0.52556453911E+01  0.17847886095E+02  0.18726402086E+02  0.00000000000E+00 0.  1.
         11    1    3    3    0    0 -0.92337288083E+01  0.96777118608E+01  0.78469338209E+01  0.15507876232E+02  0.51100000000E-03 0. -1.
        -11    1    3    3    0    0 -0.47667265022E+01  0.14577817510E+02  0.73666758227E+01  0.17014768815E+02  0.51100000000E-03 0.  1.
         12    1    3    3    0    0  0.11876946762E+02 -0.18999883979E+02 -0.33061495739E+02  0.39938952867E+02  0.00000000000E+00 0. -1.
</event>
<event>
 7    1  0.2604986E-013  0.7246159E+02  0.7816164E-02  0.1226708E+00
        -11   -1    0    0    0    0  0.00000000000E+00  0.00000000000E+00  0.45593999997E+02  0.45594000000E+02  0.51100000000E-03 0.  1.
         11   -1    0    0    0    0 -0.00000000000E+00 -0.00000000000E+00 -0.45593999997E+02  0.45594000000E+02  0.51100000000E-03 0. -1.
    9900012    2    1    2    0    0 -0.55756063687E+01 -0.16723161012E+02 -0.63187822481E+01  0.72461587911E+02  0.70000022949E+02 0.  0.
        -12    1    1    2    0    0  0.55756063687E+01  0.16723161012E+02  0.63187822481E+01  0.18726412089E+02  0.00000000000E+00 0.  1.
         11    1    3    3    0    0 -0.58067770720E+01 -0.36496444374E+02 -0.14657339618E+01  0.36984557429E+02  0.51100000000E-03 0. -1.
        -11    1    3    3    0    0 -0.13217578320E+02  0.28398423401E+01 -0.18848201361E+01  0.13649968072E+02  0.51100000000E-03 0.  1.
        -12    1    3    3    0    0  0.13448749023E+02  0.16933441021E+02 -0.29682281502E+01  0.21827062410E+02  0.00000000000E+00 0.  1.
</event>
<event>
 7    1  0.2604986E-013  0.7246163E+02  0.7816164E-02  0.1226708E+00
        -11   -1    0    0    0    0  0.00000000000E+00  0.00000000000E+00  0.45593999997E+02  0.45594000000E+02  0.51100000000E-03 0.  1.
         11   -1    0    0    0    0 -0.00000000000E+00 -0.00000000000E+00 -0.45593999997E+02  0.45594000000E+02  0.51100000000E-03 0. -1.
    9900012    2    1    2    0    0  0.25006070906E+00  0.27493089966E+01 -0.18521759597E+02  0.72461633324E+02  0.70000082107E+02 0.  0.
        -12    1    1    2    0    0 -0.25006070906E+00 -0.27493089966E+01  0.18521759597E+02  0.18726366676E+02  0.00000000000E+00 0.  1.
         11    1    3    3    0    0 -0.28367005347E+02 -0.36351271059E+01 -0.26821148602E+01  0.28724464866E+02  0.51100000000E-03 0. -1.
        -11    1    3    3    0    0  0.58047928209E+01 -0.10266013536E+02 -0.85570746359E+01  0.14570867517E+02  0.51100000000E-03 0.  1.
        -12    1    3    3    0    0  0.22812273235E+02  0.16650449638E+02 -0.72825701013E+01  0.29166300941E+02  0.00000000000E+00 0.  1.
</event>
<event>
 7    1  0.2604986E-013  0.7246162E+02  0.7816164E-02  0.1226708E+00
        -11   -1    0    0    0    0  0.00000000000E+00  0.00000000000E+00  0.45593999997E+02  0.45594000000E+02  0.51100000000E-03 0. -1.
         11   -1    0    0    0    0 -0.00000000000E+00 -0.00000000000E+00 -0.45593999997E+02  0.45594000000E+02  0.51100000000E-03 0.  1.
    9900012    2    1    2    0    0  0.52563666105E+01 -0.11030699815E+01  0.17939658216E+02  0.72461615132E+02  0.70000058409E+02 0.  0.
        -12    1    1    2    0    0 -0.52563666105E+01  0.11030699815E+01 -0.17939658216E+02  0.18726384868E+02  0.00000000000E+00 0.  1.
         11    1    3    3    0    0  0.11056365520E+02 -0.42620679827E+01 -0.22573510999E+02  0.25494545320E+02  0.51100000000E-03 0.  1.
        -11    1    3    3    0    0  0.54021969069E+01  0.87397013226E+01  0.11808623036E+02  0.15652785340E+02  0.51100000000E-03 0. -1.
        -12    1    3    3    0    0 -0.11202195816E+02 -0.55807033213E+01  0.28704546178E+02  0.31314284472E+02  0.00000000000E+00 0.  1.
</event>
<event>
 7    1  0.3565095E-013  0.7246157E+02  0.7816164E-02  0.1226708E+00
        -11   -1    0    0    0    0  0.00000000000E+00  0.00000000000E+00  0.45593999997E+02  0.45594000000E+02  0.51100000000E-03 0. -1.
         11   -1    0    0    0    0 -0.00000000000E+00 -0.00000000000E+00 -0.45593999997E+02  0.45594000000E+02  0.51100000000E-03 0.  1.
    9900012    2    1    2    0    0  0.84012058049E+01 -0.83768607341E+01  0.14488859674E+02  0.72461571900E+02  0.70000002092E+02 0.  0.
        -12    1    1    2    0    0 -0.84012058049E+01  0.83768607341E+01 -0.14488859674E+02  0.18726428100E+02  0.00000000000E+00 0.  1.
         11    1    3    3    0    0 -0.47158219774E+01 -0.70160622631E+01  0.11103931233E+02  0.13955694024E+02  0.51100000000E-03 0. -1.
        -11    1    3    3    0    0 -0.11984171822E+02 -0.60142395861E+01 -0.19871369080E+02  0.23972124675E+02  0.51100000000E-03 0.  1.
         12    1    3    3    0    0  0.25101199605E+02  0.46534411150E+01  0.23256297521E+02  0.34533753202E+02  0.00000000000E+00 0. -1.
</event>
<event>
 7    1  0.2604986E-013  0.7246149E+02  0.7816164E-02  0.1226708E+00
        -11   -1    0    0    0    0  0.00000000000E+00  0.00000000000E+00  0.45593999997E+02  0.45594000000E+02  0.51100000000E-03 0. -1.
         11   -1    0    0    0    0 -0.00000000000E+00 -0.00000000000E+00 -0.45593999997E+02  0.45594000000E+02  0.51100000000E-03 0.  1.
    9900012    2    1    2    0    0  0.13075650851E+02 -0.13367177519E+02 -0.10140424823E+01  0.72461485051E+02  0.69999888955E+02 0.  0.
        -12    1    1    2    0    0 -0.13075650851E+02  0.13367177519E+02  0.10140424823E+01  0.18726514949E+02  0.00000000000E+00 0.  1.
         11    1    3    3    0    0 -0.68053789514E+01  0.16371379048E+02  0.14347376460E+02  0.22807508548E+02  0.51100000000E-03 0. -1.
        -11    1    3    3    0    0  0.79803521196E+00  0.62388979602E+01 -0.36774919348E+01  0.72859217089E+01  0.51100000000E-03 0.  1.
         12    1    3    3    0    0  0.19082994590E+02 -0.35977454527E+02 -0.11683927008E+02  0.42368054794E+02  0.00000000000E+00 0. -1.
</event>
<event>
 7    1  0.2604986E-013  0.7246150E+02  0.7816164E-02  0.1226708E+00
        -11   -1    0    0    0    0  0.00000000000E+00  0.00000000000E+00  0.45593999997E+02  0.45594000000E+02  0.51100000000E-03 0. -1.
         11   -1    0    0    0    0 -0.00000000000E+00 -0.00000000000E+00 -0.45593999997E+02  0.45594000000E+02  0.51100000000E-03 0.  1.
    9900012    2    1    2    0    0  0.92263918204E+01 -0.73918461120E+01  0.14522946824E+02  0.72461503280E+02  0.69999912701E+02 0.  0.
        -12    1    1    2    0    0 -0.92263918204E+01  0.73918461120E+01 -0.14522946824E+02  0.18726496720E+02  0.00000000000E+00 0.  1.
         11    1    3    3    0    0 -0.57556514117E+01  0.85395619416E+01  0.37011149945E+02  0.38417142812E+02  0.51100000000E-03 0. -1.
        -11    1    3    3    0    0  0.11719015409E+01 -0.32152073426E+01  0.13697781362E+01  0.36860824571E+01  0.51100000000E-03 0.  1.
        -12    1    3    3    0    0  0.13810141691E+02 -0.12716200711E+02 -0.23857981258E+02  0.30358278010E+02  0.00000000000E+00 0.  1.
</event>
<event>
 7    1  0.2604986E-013  0.7246154E+02  0.7816164E-02  0.1226708E+00
        -11   -1    0    0    0    0  0.00000000000E+00  0.00000000000E+00  0.45593999997E+02  0.45594000000E+02  0.51100000000E-03 0.  1.
         11   -1    0    0    0    0 -0.00000000000E+00 -0.00000000000E+00 -0.45593999997E+02  0.45594000000E+02  0.51100000000E-03 0. -1.
    9900012    2    1    2    0    0  0.98706321562E+01 -0.30017610264E+01 -0.15628185298E+02  0.72461544806E+02  0.69999966796E+02 0.  0.
        -12    1    1    2    0    0 -0.98706321562E+01  0.30017610264E+01  0.15628185298E+02  0.18726455194E+02  0.00000000000E+00 0.  1.
         11    1    3    3    0    0  0.32160155186E+01 -0.67263327862E+01  0.72030213432E+01  0.10366765421E+02  0.51100000000E-03 0. -1.
        -11    1    3    3    0    0 -0.12410268591E+02  0.11290276708E+02  0.12717704649E+02  0.21052912541E+02  0.51100000000E-03 0.  1.
         12    1    3    3    0    0  0.19064885229E+02 -0.75657049484E+01 -0.35548911290E+02  0.41041866844E+02  0.00000000000E+00 0. -1.
</event>
<event>
 7    1  0.2604986E-013  0.7246160E+02  0.7816164E-02  0.1226708E+00
        -11   -1    0    0    0    0  0.00000000000E+00  0.00000000000E+00  0.45593999997E+02  0.45594000000E+02  0.51100000000E-03 0.  1.
         11   -1    0    0    0    0 -0.00000000000E+00 -0.00000000000E+00 -0.45593999997E+02  0.45594000000E+02  0.51100000000E-03 0. -1.
    9900012    2    1    2    0    0 -0.12503525937E+02 -0.10957829711E+02 -0.86177725990E+01  0.72461596250E+02  0.70000033812E+02 0.  0.
        -12    1    1    2    0    0  0.12503525937E+02  0.10957829711E+02  0.86177725990E+01  0.18726403750E+02  0.00000000000E+00 0.  1.
         11    1    3    3    0    0  0.88508910745E+01 -0.19183228278E+02  0.11797954743E+02  0.24197649811E+02  0.51100000000E-03 0. -1.
        -11    1    3    3    0    0 -0.20020271689E+01 -0.88767348803E+01  0.63295297395E+01  0.11084560519E+02  0.51100000000E-03 0.  1.
        -12    1    3    3    0    0 -0.19352389843E+02  0.17102133447E+02 -0.26745257081E+02  0.37179385920E+02  0.00000000000E+00 0.  1.
</event>
<event>
 7    1  0.2604986E-013  0.7246158E+02  0.7816164E-02  0.1226708E+00
        -11   -1    0    0    0    0  0.00000000000E+00  0.00000000000E+00  0.45593999997E+02  0.45594000000E+02  0.51100000000E-03 0.  1.
         11   -1    0    0    0    0 -0.00000000000E+00 -0.00000000000E+00 -0.45593999997E+02  0.45594000000E+02  0.51100000000E-03 0. -1.
    9900012    2    1    2    0    0  0.17417807323E+02  0.11564607417E+01 -0.67794796655E+01  0.72461581284E+02  0.70000014316E+02 0.  0.
        -12    1    1    2    0    0 -0.17417807323E+02 -0.11564607417E+01  0.67794796655E+01  0.18726418716E+02  0.00000000000E+00 0.  1.
         11    1    3    3    0    0 -0.21137981706E+02 -0.61505452554E+01  0.26830400900E+01  0.22177515233E+02  0.51100000000E-03 0. -1.
        -11    1    3    3    0    0 -0.49895426362E+01 -0.79776321531E+00 -0.15864930227E+01  0.52961233216E+01  0.51100000000E-03 0.  1.
        -12    1    3    3    0    0  0.43545331666E+02  0.81047692123E+01 -0.78760267328E+01  0.44987942729E+02  0.00000000000E+00 0.  1.
</event>
<event>
 7    1  0.2604986E-013  0.7246145E+02  0.7816164E-02  0.1226708E+00
        -11   -1    0    0    0    0  0.00000000000E+00  0.00000000000E+00  0.45593999997E+02  0.45594000000E+02  0.51100000000E-03 0.  1.
         11   -1    0    0    0    0 -0.00000000000E+00 -0.00000000000E+00 -0.45593999997E+02  0.45594000000E+02  0.51100000000E-03 0. -1.
    9900012    2    1    2    0    0 -0.17925832550E+02 -0.28234528306E+01  0.46234427470E+01  0.72461452498E+02  0.69999846548E+02 0.  0.
        -12    1    1    2    0    0  0.17925832550E+02  0.28234528306E+01 -0.46234427470E+01  0.18726547502E+02  0.00000000000E+00 0.  1.
         11    1    3    3    0    0  0.16242670247E+01 -0.86616060164E+00  0.13830306018E+02  0.13952270151E+02  0.51100000000E-03 0. -1.
        -11    1    3    3    0    0 -0.30051872252E+02  0.17724099354E+02 -0.15495879169E+01  0.34923630205E+02  0.51100000000E-03 0.  1.
         12    1    3    3    0    0  0.10501772677E+02 -0.19681391583E+02 -0.76572753540E+01  0.23585552142E+02  0.00000000000E+00 0. -1.
</event>
<event>
 7    1  0.2604986E-013  0.7246158E+02  0.7816164E-02  0.1226708E+00
        -11   -1    0    0    0    0  0.00000000000E+00  0.00000000000E+00  0.45593999997E+02  0.45594000000E+02  0.51100000000E-03 0. -1.
         11   -1    0    0    0    0 -0.00000000000E+00 -0.00000000000E+00 -0.45593999997E+02  0.45594000000E+02  0.51100000000E-03 0.  1.
    9900012    2    1    2    0    0 -0.55878081643E+01 -0.17297037312E+02 -0.45019681483E+01  0.72461579705E+02  0.70000012259E+02 0.  0.
        -12    1    1    2    0    0  0.55878081643E+01  0.17297037312E+02  0.45019681483E+01  0.18726420295E+02  0.00000000000E+00 0.  1.
         11    1    3    3    0    0  0.10329926797E+02  0.13979288755E+02  0.77982496966E+01  0.19050999982E+02  0.51100000000E-03 0. -1.
        -11    1    3    3    0    0  0.10520136460E+02 -0.27183416978E+01 -0.94317012326E+01  0.14388177130E+02  0.51100000000E-03 0.  1.
        -12    1    3    3    0    0 -0.26437871422E+02 -0.28557984369E+02 -0.28685166123E+01  0.39022402593E+02  0.00000000000E+00 0.  1.
</event>
<event>
 7    1  0.2604986E-013  0.7246174E+02  0.7816164E-02  0.1226708E+00
        -11   -1    0    0    0    0  0.00000000000E+00  0.00000000000E+00  0.45593999997E+02  0.45594000000E+02  0.51100000000E-03 0.  1.
         11   -1    0    0    0    0 -0.00000000000E+00 -0.00000000000E+00 -0.45593999997E+02  0.45594000000E+02  0.51100000000E-03 0. -1.
    9900012    2    1    2    0    0 -0.13407912699E+02 -0.28653014338E+01 -0.12755021496E+02  0.72461744405E+02  0.70000226811E+02 0.  0.
        -12    1    1    2    0    0  0.13407912699E+02  0.28653014338E+01  0.12755021496E+02  0.18726255595E+02  0.00000000000E+00 0.  1.
         11    1    3    3    0    0  0.69665044324E+01  0.75544751801E+01 -0.12691836192E+02  0.16330492505E+02  0.51100000000E-03 0. -1.
        -11    1    3    3    0    0  0.88727747935E+01 -0.20430286653E+02  0.88367130110E+01  0.23962684373E+02  0.51100000000E-03 0.  1.
         12    1    3    3    0    0 -0.29247191925E+02  0.10010510039E+02 -0.88998983145E+01  0.32168567527E+02  0.00000000000E+00 0. -1.
</event>
<event>
 7    1  0.2604986E-013  0.7246159E+02  0.7816164E-02  0.1226708E+00
        -11   -1    0    0    0    0  0.00000000000E+00  0.00000000000E+00  0.45593999997E+02  0.45594000000E+02  0.51100000000E-03 0. -1.
         11   -1    0    0    0    0 -0.00000000000E+00 -0.00000000000E+00 -0.45593999997E+02  0.45594000000E+02  0.51100000000E-03 0.  1.
    9900012    2    1    2    0    0  0.15881796076E+02 -0.97461930460E+01  0.18597452120E+01  0.72461591435E+02  0.70000027540E+02 0.  0.
        -12    1    1    2    0    0 -0.15881796076E+02  0.97461930460E+01 -0.18597452120E+01  0.18726408565E+02  0.00000000000E+00 0.  1.
         11    1    3    3    0    0 -0.18002448398E+02 -0.17334613172E+02  0.16221163186E+02  0.29794346738E+02  0.51100000000E-03 0. -1.
        -11    1    3    3    0    0  0.60144920861E+01 -0.29658427538E+01  0.38592533099E+01  0.77371942372E+01  0.51100000000E-03 0.  1.
        -12    1    3    3    0    0  0.27869752388E+02  0.10554262880E+02 -0.18220671284E+02  0.34930050460E+02  0.00000000000E+00 0.  1.
</event>
<event>
 7    1  0.2604986E-013  0.7246156E+02  0.7816164E-02  0.1226708E+00
        -11   -1    0    0    0    0  0.00000000000E+00  0.00000000000E+00  0.45593999997E+02  0.45594000000E+02  0.51100000000E-03 0.  1.
         11   -1    0    0    0    0 -0.00000000000E+00 -0.00000000000E+00 -0.45593999997E+02  0.45594000000E+02  0.51100000000E-03 0. -1.
    9900012    2    1    2    0    0 -0.67883973229E+01  0.12091583097E+02 -0.12585349122E+02  0.72461555262E+02  0.69999980418E+02 0.  0.
        -12    1    1    2    0    0  0.67883973229E+01 -0.12091583097E+02  0.12585349122E+02  0.18726444738E+02  0.00000000000E+00 0.  1.
         11    1    3    3    0    0  0.63859105178E+01 -0.13156839091E+02 -0.16824163331E+02  0.22292033108E+02  0.51100000000E-03 0. -1.
        -11    1    3    3    0    0 -0.16109321908E+02  0.12438246056E+02  0.20750958135E+02  0.29065830129E+02  0.51100000000E-03 0.  1.
         12    1    3    3    0    0  0.29350140674E+01  0.12810176132E+02 -0.16512143925E+02  0.21103692026E+02  0.00000000000E+00 0. -1.
</event>
<event>
 7    1  0.2604986E-013  0.7246158E+02  0.7816164E-02  0.1226708E+00
        -11   -1    0    0    0    0  0.00000000000E+00  0.00000000000E+00  0.45593999997E+02  0.45594000000E+02  0.51100000000E-03 0.  1.
         11   -1    0    0    0    0 -0.00000000000E+00 -0.00000000000E+00 -0.45593999997E+02  0.45594000000E+02  0.51100000000E-03 0. -1.
    9900012    2    1    2    0    0  0.99945583472E+01  0.15780959814E+02  0.13224056622E+01  0.72461584274E+02  0.70000018211E+02 0.  0.
        -12    1    1    2    0    0 -0.99945583472E+01 -0.15780959814E+02 -0.13224056622E+01  0.18726415726E+02  0.00000000000E+00 0.  1.
         11    1    3    3    0    0  0.20741403651E+02  0.78535192033E+01 -0.11551226520E+02  0.25006287683E+02  0.51100000000E-03 0. -1.
        -11    1    3    3    0    0  0.13975674364E+02  0.72108155080E+01  0.16107959604E+02  0.22511812390E+02  0.51100000000E-03 0.  1.
         12    1    3    3    0    0 -0.24722519667E+02  0.71662510295E+00 -0.32343274218E+01  0.24943484201E+02  0.00000000000E+00 0. -1.
</event>
<event>
 7    1  0.2604986E-013  0.7246159E+02  0.7816164E-02  0.1226708E+00
        -11   -1    0    0    0    0  0.00000000000E+00  0.00000000000E+00  0.45593999997E+02  0.45594000000E+02  0.51100000000E-03 0.  1.
         11   -1    0    0    0    0 -0.00000000000E+00 -0.00000000000E+00 -0.45593999997E+02  0.45594000000E+02  0.51100000000E-03 0. -1.
    9900012    2    1    2    0    0 -0.13725060079E+02 -0.88791154143E+01 -0.91357858003E+01  0.72461586918E+02  0.70000021656E+02 0.  0.
        -12    1    1    2    0    0  0.13725060079E+02  0.88791154143E+01  0.91357858003E+01  0.18726413082E+02  0.00000000000E+00 0.  1.
         11    1    3    3    0    0  0.32499291447E+01 -0.52108117103E+01 -0.12093999274E+02  0.13563901239E+02  0.51100000000E-03 0. -1.
        -11    1    3    3    0    0  0.87674943479E+01 -0.23913859076E+02 -0.28755933058E+01  0.25632218986E+02  0.51100000000E-03 0.  1.
        -12    1    3    3    0    0 -0.25742483572E+02  0.20245555372E+02  0.58338067797E+01  0.33265466693E+02  0.00000000000E+00 0.  1.
</event>
<event>
 7    1  0.2604986E-013  0.7246154E+02  0.7816164E-02  0.1226708E+00
        -11   -1    0    0    0    0  0.00000000000E+00  0.00000000000E+00  0.45593999997E+02  0.45594000000E+02  0.51100000000E-03 0.  1.
         11   -1    0    0    0    0 -0.00000000000E+00 -0.00000000000E+00 -0.45593999997E+02  0.45594000000E+02  0.51100000000E-03 0. -1.
    9900012    2    1    2    0    0 -0.40573113454E+01  0.10379231315E+02 -0.15049593263E+02  0.72461535426E+02  0.69999954577E+02 0.  0.
        -12    1    1    2    0    0  0.40573113454E+01 -0.10379231315E+02  0.15049593263E+02  0.18726464574E+02  0.00000000000E+00 0.  1.
         11    1    3    3    0    0  0.81598045330E+01  0.24056853097E+02 -0.21177094790E+02  0.33072404433E+02  0.51100000000E-03 0. -1.
        -11    1    3    3    0    0 -0.95459759398E+01 -0.71853146684E+01 -0.13804452237E+02  0.18256979634E+02  0.51100000000E-03 0.  1.
         12    1    3    3    0    0 -0.26711399385E+01 -0.64923071136E+01  0.19931953764E+02  0.21132151359E+02  0.00000000000E+00 0. -1.
</event>
<event>
 7    1  0.2604986E-013  0.7246149E+02  0.7816164E-02  0.1226708E+00
        -11   -1    0    0    0    0  0.00000000000E+00  0.00000000000E+00  0.45593999997E+02  0.45594000000E+02  0.51100000000E-03 0.  1.
         11   -1    0    0    0    0 -0.00000000000E+00 -0.00000000000E+00 -0.45593999997E+02  0.45594000000E+02  0.51100000000E-03 0. -1.
    9900012    2    1    2    0    0 -0.10177777572E+02  0.25371305636E+01 -0.15513151583E+02  0.72461493122E+02  0.69999899469E+02 0.  0.
        -12    1    1    2    0    0  0.10177777572E+02 -0.25371305636E+01  0.15513151583E+02  0.18726506878E+02  0.00000000000E+00 0.  1.
         11    1    3    3    0    0 -0.14574896262E+02 -0.14935066197E+02 -0.24232301036E+02  0.31979496824E+02  0.51100000000E-03 0. -1.
        -11    1    3    3    0    0  0.11159179464E+02 -0.30609136168E+01 -0.72059101690E+01  0.13631640404E+02  0.51100000000E-03 0.  1.
        -12    1    3    3    0    0 -0.67620607750E+01  0.20533110378E+02  0.15925059622E+02  0.26850355895E+02  0.00000000000E+00 0.  1.
</event>
<event>
 7    1  0.2604986E-013  0.7246155E+02  0.7816164E-02  0.1226708E+00
        -11   -1    0    0    0    0  0.00000000000E+00  0.00000000000E+00  0.45593999997E+02  0.45594000000E+02  0.51100000000E-03 0.  1.
         11   -1    0    0    0    0 -0.00000000000E+00 -0.00000000000E+00 -0.45593999997E+02  0.45594000000E+02  0.51100000000E-03 0. -1.
    9900012    2    1    2    0    0  0.11474801513E+02 -0.12262694533E+02 -0.82846439908E+01  0.72461546170E+02  0.69999968574E+02 0.  0.
        -12    1    1    2    0    0 -0.11474801513E+02  0.12262694533E+02  0.82846439908E+01  0.18726453830E+02  0.00000000000E+00 0.  1.
         11    1    3    3    0    0 -0.13493414612E+02 -0.24372784700E+01 -0.15142630430E+02  0.20428211396E+02  0.51100000000E-03 0. -1.
        -11    1    3    3    0    0  0.94354213531E+00  0.16133330170E+02  0.11068619632E+01  0.16198757909E+02  0.51100000000E-03 0.  1.
        -12    1    3    3    0    0  0.24024673990E+02 -0.25958746233E+02  0.57511244763E+01  0.35834576865E+02  0.00000000000E+00 0.  1.
</event>
<event>
 7    1  0.2604986E-013  0.7246153E+02  0.7816164E-02  0.1226708E+00
        -11   -1    0    0    0    0  0.00000000000E+00  0.00000000000E+00  0.45593999997E+02  0.45594000000E+02  0.51100000000E-03 0.  1.
         11   -1    0    0    0    0 -0.00000000000E+00 -0.00000000000E+00 -0.45593999997E+02  0.45594000000E+02  0.51100000000E-03 0. -1.
    9900012    2    1    2    0    0  0.63104770606E+01 -0.66275997031E+01 -0.16338098199E+02  0.72461530730E+02  0.69999948460E+02 0.  0.
        -12    1    1    2    0    0 -0.63104770606E+01  0.66275997031E+01  0.16338098199E+02  0.18726469270E+02  0.00000000000E+00 0.  1.
         11    1    3    3    0    0  0.14315335366E+00 -0.41399686355E+01  0.15354306264E+02  0.15903287531E+02  0.51100000000E-03 0. -1.
        -11    1    3    3    0    0  0.21891794277E+02  0.11573957436E+02 -0.11304337205E+02  0.27221226778E+02  0.51100000000E-03 0.  1.
         12    1    3    3    0    0 -0.15724470570E+02 -0.14061588503E+02 -0.20388067258E+02  0.29337016421E+02  0.00000000000E+00 0. -1.
</event>
<event>
 7    1  0.2604986E-013  0.7246157E+02  0.7816164E-02  0.1226708E+00
        -11   -1    0    0    0    0  0.00000000000E+00  0.00000000000E+00  0.45593999997E+02  0.45594000000E+02  0.51100000000E-03 0. -1.
         11   -1    0    0    0    0 -0.00000000000E+00 -0.00000000000E+00 -0.45593999997E+02  0.45594000000E+02  0.51100000000E-03 0.  1.
    9900012    2    1    2    0    0  0.11652048188E+02  0.26151462433E+01  0.14424633088E+02  0.72461567970E+02  0.69999996972E+02 0.  0.
        -12    1    1    2    0    0 -0.11652048188E+02 -0.26151462433E+01 -0.14424633088E+02  0.18726432030E+02  0.00000000000E+00 0.  1.
         11    1    3    3    0    0  0.84199031542E+01 -0.13463896686E+02  0.74673879001E+01  0.17548024545E+02  0.51100000000E-03 0. -1.
        -11    1    3    3    0    0  0.96763318605E+01 -0.16313569483E+02  0.10528510108E+02  0.21693627472E+02  0.51100000000E-03 0.  1.
        -12    1    3    3    0    0 -0.64441868263E+01  0.32392612413E+02 -0.35712649201E+01  0.33219915953E+02  0.00000000000E+00 0.  1.
</event>
<event>
 7    1  0.2604986E-013  0.7246154E+02  0.7816164E-02  0.1226708E+00
        -11   -1    0    0    0    0  0.00000000000E+00  0.00000000000E+00  0.45593999997E+02  0.45594000000E+02  0.51100000000E-03 0.  1.
         11   -1    0    0    0    0 -0.00000000000E+00 -0.00000000000E+00 -0.45593999997E+02  0.45594000000E+02  0.51100000000E-03 0. -1.
    9900012    2    1    2    0    0 -0.38764561681E+01 -0.17151779678E+02 -0.64397106454E+01  0.72461539263E+02  0.69999959576E+02 0.  0.
        -12    1    1    2    0    0  0.38764561681E+01  0.17151779678E+02  0.64397106454E+01  0.18726460737E+02  0.00000000000E+00 0.  1.
         11    1    3    3    0    0  0.70933261080E+01 -0.32954673295E+02 -0.57495148369E+01  0.34196237927E+02  0.51100000000E-03 0. -1.
        -11    1    3    3    0    0  0.89145000172E+01  0.14899307718E+02  0.39956851842E+01  0.17816373969E+02  0.51100000000E-03 0.  1.
        -12    1    3    3    0    0 -0.19884282293E+02  0.90358589888E+00 -0.46858809926E+01  0.20448927367E+02  0.00000000000E+00 0.  1.
</event>
<event>
 7    1  0.2604986E-013  0.7246157E+02  0.7816164E-02  0.1226708E+00
        -11   -1    0    0    0    0  0.00000000000E+00  0.00000000000E+00  0.45593999997E+02  0.45594000000E+02  0.51100000000E-03 0. -1.
         11   -1    0    0    0    0 -0.00000000000E+00 -0.00000000000E+00 -0.45593999997E+02  0.45594000000E+02  0.51100000000E-03 0.  1.
    9900012    2    1    2    0    0  0.15483389128E+02 -0.10295400957E+02  0.22245539741E+01  0.72461567875E+02  0.69999996848E+02 0.  0.
        -12    1    1    2    0    0 -0.15483389128E+02  0.10295400957E+02 -0.22245539741E+01  0.18726432125E+02  0.00000000000E+00 0.  1.
         11    1    3    3    0    0  0.13833248455E+02 -0.12974575528E+01  0.15889331313E+02  0.21107179081E+02  0.51100000000E-03 0. -1.
        -11    1    3    3    0    0  0.40989384644E+01 -0.11230117980E+02  0.16850081794E+02  0.20660157383E+02  0.51100000000E-03 0.  1.
        -12    1    3    3    0    0 -0.24487977917E+01  0.22321745756E+01 -0.30514859133E+02  0.30694231410E+02  0.00000000000E+00 0.  1.
</event>
<event>
 7    1  0.2604986E-013  0.7246165E+02  0.7816164E-02  0.1226708E+00
        -11   -1    0    0    0    0  0.00000000000E+00  0.00000000000E+00  0.45593999997E+02  0.45594000000E+02  0.51100000000E-03 0.  1.
         11   -1    0    0    0    0 -0.00000000000E+00 -0.00000000000E+00 -0.45593999997E+02  0.45594000000E+02  0.51100000000E-03 0. -1.
    9900012    2    1    2    0    0  0.18279385398E+02  0.37597823707E+01 -0.15505455108E+01  0.72461652642E+02  0.70000107273E+02 0.  0.
        -12    1    1    2    0    0 -0.18279385398E+02 -0.37597823707E+01  0.15505455108E+01  0.18726347358E+02  0.00000000000E+00 0.  1.
         11    1    3    3    0    0  0.25172975060E+02  0.11688084626E+02 -0.18487665250E+02  0.33347919909E+02  0.51100000000E-03 0. -1.
        -11    1    3    3    0    0  0.11186158950E+02  0.54801424127E+01  0.36709622231E+01  0.12986072417E+02  0.51100000000E-03 0.  1.
        -12    1    3    3    0    0 -0.18079748613E+02 -0.13408444668E+02  0.13266157516E+02  0.26127660316E+02  0.00000000000E+00 0.  1.
</event>
<event>
 7    1  0.2604986E-013  0.7246150E+02  0.7816164E-02  0.1226708E+00
        -11   -1    0    0    0    0  0.00000000000E+00  0.00000000000E+00  0.45593999997E+02  0.45594000000E+02  0.51100000000E-03 0.  1.
         11   -1    0    0    0    0 -0.00000000000E+00 -0.00000000000E+00 -0.45593999997E+02  0.45594000000E+02  0.51100000000E-03 0. -1.
    9900012    2    1    2    0    0  0.81912009216E+01 -0.16825747689E+02  0.69299669649E+00  0.72461500000E+02  0.69999908428E+02 0.  0.
        -12    1    1    2    0    0 -0.81912009216E+01  0.16825747689E+02 -0.69299669649E+00  0.18726500000E+02  0.00000000000E+00 0.  1.
         11    1    3    3    0    0  0.10082225445E+02 -0.19489191682E+01  0.19605041549E+01  0.10454335591E+02  0.51100000000E-03 0. -1.
        -11    1    3    3    0    0  0.22419604482E+02 -0.14027909489E+02  0.17128613116E+02  0.31508892353E+02  0.51100000000E-03 0.  1.
         12    1    3    3    0    0 -0.24310629006E+02 -0.84891903192E+00 -0.18396120574E+02  0.30498272055E+02  0.00000000000E+00 0. -1.
</event>
<event>
 7    1  0.2604986E-013  0.7246141E+02  0.7816164E-02  0.1226708E+00
        -11   -1    0    0    0    0  0.00000000000E+00  0.00000000000E+00  0.45593999997E+02  0.45594000000E+02  0.51100000000E-03 0. -1.
         11   -1    0    0    0    0 -0.00000000000E+00 -0.00000000000E+00 -0.45593999997E+02  0.45594000000E+02  0.51100000000E-03 0.  1.
    9900012    2    1    2    0    0 -0.18766346597E+01  0.59549620222E+01  0.17655084357E+02  0.72461405703E+02  0.69999785589E+02 0.  0.
        -12    1    1    2    0    0  0.18766346597E+01 -0.59549620222E+01 -0.17655084357E+02  0.18726594297E+02  0.00000000000E+00 0.  1.
         11    1    3    3    0    0  0.16915257999E+02 -0.80737407859E+01  0.73439276822E+01  0.20130685967E+02  0.51100000000E-03 0. -1.
        -11    1    3    3    0    0 -0.25874309292E+01 -0.12495542080E+01 -0.16914153309E+02  0.17156478862E+02  0.51100000000E-03 0.  1.
        -12    1    3    3    0    0 -0.16204461729E+02  0.15278257016E+02  0.27225309983E+02  0.35174240874E+02  0.00000000000E+00 0.  1.
</event>
<event>
 7    1  0.2604986E-013  0.7246157E+02  0.7816164E-02  0.1226708E+00
        -11   -1    0    0    0    0  0.00000000000E+00  0.00000000000E+00  0.45593999997E+02  0.45594000000E+02  0.51100000000E-03 0.  1.
         11   -1    0    0    0    0 -0.00000000000E+00 -0.00000000000E+00 -0.45593999997E+02  0.45594000000E+02  0.51100000000E-03 0. -1.
    9900012    2    1    2    0    0 -0.17570847400E+02  0.46020539044E+01  0.45569152735E+01  0.72461573344E+02  0.70000003973E+02 0.  0.
        -12    1    1    2    0    0  0.17570847400E+02 -0.46020539044E+01 -0.45569152735E+01  0.18726426656E+02  0.00000000000E+00 0.  1.
         11    1    3    3    0    0 -0.35039130782E+02 -0.34286838522E+01  0.73671040256E+01  0.35969025298E+02  0.51100000000E-03 0. -1.
        -11    1    3    3    0    0 -0.72372681922E+01 -0.38859281185E+01  0.24314575721E+01  0.85668240565E+01  0.51100000000E-03 0.  1.
        -12    1    3    3    0    0  0.24705551574E+02  0.11916665875E+02 -0.52416463243E+01  0.27925723990E+02  0.00000000000E+00 0.  1.
</event>
<event>
 7    1  0.2604986E-013  0.7246160E+02  0.7816164E-02  0.1226708E+00
        -11   -1    0    0    0    0  0.00000000000E+00  0.00000000000E+00  0.45593999997E+02  0.45594000000E+02  0.51100000000E-03 0.  1.
         11   -1    0    0    0    0 -0.00000000000E+00 -0.00000000000E+00 -0.45593999997E+02  0.45594000000E+02  0.51100000000E-03 0. -1.
    9900012    2    1    2    0    0 -0.17615483959E+02 -0.41654790012E+01  0.47980904961E+01  0.72461597174E+02  0.70000035015E+02 0.  0.
        -12    1    1    2    0    0  0.17615483959E+02  0.41654790012E+01 -0.47980904961E+01  0.18726402826E+02  0.00000000000E+00 0.  1.
         11    1    3    3    0    0 -0.18614731909E+02 -0.11173209258E+02  0.10032624337E+02  0.23916571671E+02  0.51100000000E-03 0. -1.
        -11    1    3    3    0    0 -0.18368936818E+02  0.17017188794E+02  0.30441502717E+01  0.25224381170E+02  0.51100000000E-03 0.  1.
        -12    1    3    3    0    0  0.19368184769E+02 -0.10009458538E+02 -0.82786841125E+01  0.23320644332E+02  0.00000000000E+00 0.  1.
</event>
<event>
 7    1  0.2604986E-013  0.7246157E+02  0.7816164E-02  0.1226708E+00
        -11   -1    0    0    0    0  0.00000000000E+00  0.00000000000E+00  0.45593999997E+02  0.45594000000E+02  0.51100000000E-03 0.  1.
         11   -1    0    0    0    0 -0.00000000000E+00 -0.00000000000E+00 -0.45593999997E+02  0.45594000000E+02  0.51100000000E-03 0. -1.
    9900012    2    1    2    0    0  0.10663735621E+02  0.15011830168E+02 -0.34071873376E+01  0.72461568735E+02  0.69999997968E+02 0.  0.
        -12    1    1    2    0    0 -0.10663735621E+02 -0.15011830168E+02  0.34071873376E+01  0.18726431265E+02  0.00000000000E+00 0.  1.
         11    1    3    3    0    0  0.22238945992E+02  0.31479210952E+02 -0.86126064183E+01  0.39492890887E+02  0.51100000000E-03 0. -1.
        -11    1    3    3    0    0  0.43099707691E+01  0.35940887632E+01 -0.26428843518E+01  0.62030766581E+01  0.51100000000E-03 0.  1.
        -12    1    3    3    0    0 -0.15885181141E+02 -0.20061469547E+02  0.78483034325E+01  0.26765601190E+02  0.00000000000E+00 0.  1.
</event>
<event>
 7    1  0.2604986E-013  0.7246153E+02  0.7816164E-02  0.1226708E+00
        -11   -1    0    0    0    0  0.00000000000E+00  0.00000000000E+00  0.45593999997E+02  0.45594000000E+02  0.51100000000E-03 0. -1.
         11   -1    0    0    0    0 -0.00000000000E+00 -0.00000000000E+00 -0.45593999997E+02  0.45594000000E+02  0.51100000000E-03 0.  1.
    9900012    2    1    2    0    0 -0.54356227157E+00 -0.54316698212E+00  0.18710692379E+02  0.72461534781E+02  0.69999953737E+02 0.  0.
        -12    1    1    2    0    0  0.54356227157E+00  0.54316698212E+00 -0.18710692379E+02  0.18726465219E+02  0.00000000000E+00 0.  1.
         11    1    3    3    0    0 -0.16187153837E+02  0.14157464834E+02  0.84645589188E+01  0.23110744640E+02  0.51100000000E-03 0. -1.
        -11    1    3    3    0    0 -0.83783030580E+01  0.10317920163E+02  0.53302328187E+01  0.14320154356E+02  0.51100000000E-03 0.  1.
         12    1    3    3    0    0  0.24021894623E+02 -0.25018551979E+02  0.49159006412E+01  0.35030635785E+02  0.00000000000E+00 0. -1.
</event>
<event>
 7    1  0.2604986E-013  0.7246159E+02  0.7816164E-02  0.1226708E+00
        -11   -1    0    0    0    0  0.00000000000E+00  0.00000000000E+00  0.45593999997E+02  0.45594000000E+02  0.51100000000E-03 0. -1.
         11   -1    0    0    0    0 -0.00000000000E+00 -0.00000000000E+00 -0.45593999997E+02  0.45594000000E+02  0.51100000000E-03 0.  1.
    9900012    2    1    2    0    0  0.12193457534E+02 -0.38139754846E+00  0.14207482049E+02  0.72461590389E+02  0.70000026177E+02 0.  0.
        -12    1    1    2    0    0 -0.12193457534E+02  0.38139754846E+00 -0.14207482049E+02  0.18726409611E+02  0.00000000000E+00 0.  1.
         11    1    3    3    0    0 -0.18131372476E+01 -0.60377824982E-01 -0.13971528079E+01  0.22897922155E+01  0.51100000000E-03 0. -1.
        -11    1    3    3    0    0 -0.27152825642E+02  0.13222772258E+01  0.73430584816E+01  0.28159276722E+02  0.51100000000E-03 0.  1.
         12    1    3    3    0    0  0.41159420424E+02 -0.16432969492E+01  0.82615763757E+01  0.42012521451E+02  0.00000000000E+00 0. -1.
</event>
<event>
 7    1  0.2604986E-013  0.7246162E+02  0.7816164E-02  0.1226708E+00
        -11   -1    0    0    0    0  0.00000000000E+00  0.00000000000E+00  0.45593999997E+02  0.45594000000E+02  0.51100000000E-03 0.  1.
         11   -1    0    0    0    0 -0.00000000000E+00 -0.00000000000E+00 -0.45593999997E+02  0.45594000000E+02  0.51100000000E-03 0. -1.
    9900012    2    1    2    0    0  0.15792472642E+02  0.81604686127E+01 -0.58891191530E+01  0.72461623828E+02  0.70000069738E+02 0.  0.
        -12    1    1    2    0    0 -0.15792472642E+02 -0.81604686127E+01  0.58891191530E+01  0.18726376172E+02  0.00000000000E+00 0.  1.
         11    1    3    3    0    0  0.26649212848E+01 -0.26513038387E+01 -0.87538312945E+01  0.95268452330E+01  0.51100000000E-03 0. -1.
        -11    1    3    3    0    0 -0.81233555681E+01 -0.16812956150E+02  0.17068992697E+02  0.25298516007E+02  0.51100000000E-03 0.  1.
        -12    1    3    3    0    0  0.21250906926E+02  0.27624728602E+02 -0.14204280556E+02  0.37636262588E+02  0.00000000000E+00 0.  1.
</event>
<event>
 7    1  0.2604986E-013  0.7246158E+02  0.7816164E-02  0.1226708E+00
        -11   -1    0    0    0    0  0.00000000000E+00  0.00000000000E+00  0.45593999997E+02  0.45594000000E+02  0.51100000000E-03 0.  1.
         11   -1    0    0    0    0 -0.00000000000E+00 -0.00000000000E+00 -0.45593999997E+02  0.45594000000E+02  0.51100000000E-03 0. -1.
    9900012    2    1    2    0    0 -0.11577769600E+02  0.31361188097E+01  0.14380495099E+02  0.72461584716E+02  0.70000018786E+02 0.  0.
        -12    1    1    2    0    0  0.11577769600E+02 -0.31361188097E+01 -0.14380495099E+02  0.18726415284E+02  0.00000000000E+00 0.  1.
         11    1    3    3    0    0 -0.13510186496E+02  0.84570012625E+01  0.27027820826E+01  0.16166355210E+02  0.51100000000E-03 0. -1.
        -11    1    3    3    0    0 -0.24695397178E+02  0.36069984283E+01  0.13076705182E+02  0.28175757277E+02  0.51100000000E-03 0.  1.
        -12    1    3    3    0    0  0.26627814074E+02 -0.89278808811E+01 -0.13989921659E+01  0.28119472229E+02  0.00000000000E+00 0.  1.
</event>
<event>
 7    1  0.2604986E-013  0.7246159E+02  0.7816164E-02  0.1226708E+00
        -11   -1    0    0    0    0  0.00000000000E+00  0.00000000000E+00  0.45593999997E+02  0.45594000000E+02  0.51100000000E-03 0.  1.
         11   -1    0    0    0    0 -0.00000000000E+00 -0.00000000000E+00 -0.45593999997E+02  0.45594000000E+02  0.51100000000E-03 0. -1.
    9900012    2    1    2    0    0  0.13732866385E+02  0.10476995658E+02 -0.72332196576E+01  0.72461587536E+02  0.70000022460E+02 0.  0.
        -12    1    1    2    0    0 -0.13732866385E+02 -0.10476995658E+02  0.72332196576E+01  0.18726412464E+02  0.00000000000E+00 0.  1.
         11    1    3    3    0    0  0.79888882915E+01  0.21553687299E+02 -0.53444787497E+01  0.23599729356E+02  0.51100000000E-03 0. -1.
        -11    1    3    3    0    0  0.18080416403E+02 -0.16507593664E+02 -0.16078803985E+02  0.29290442874E+02  0.51100000000E-03 0.  1.
         12    1    3    3    0    0 -0.12336438309E+02  0.54309020227E+01  0.14190063077E+02  0.19571415306E+02  0.00000000000E+00 0. -1.
</event>
<event>
 7    1  0.2604986E-013  0.7246158E+02  0.7816164E-02  0.1226708E+00
        -11   -1    0    0    0    0  0.00000000000E+00  0.00000000000E+00  0.45593999997E+02  0.45594000000E+02  0.51100000000E-03 0.  1.
         11   -1    0    0    0    0 -0.00000000000E+00 -0.00000000000E+00 -0.45593999997E+02  0.45594000000E+02  0.51100000000E-03 0. -1.
    9900012    2    1    2    0    0 -0.17844540381E+02  0.64571212451E+00 -0.56421955234E+01  0.72461576532E+02  0.70000008126E+02 0.  0.
        -12    1    1    2    0    0  0.17844540381E+02 -0.64571212451E+00  0.56421955234E+01  0.18726423468E+02  0.00000000000E+00 0.  1.
         11    1    3    3    0    0 -0.13069055920E+02  0.19549770467E+02 -0.17140626957E+02  0.29099739530E+02  0.51100000000E-03 0. -1.
        -11    1    3    3    0    0 -0.14479586511E+01 -0.58765529039E+01 -0.13601551023E+02  0.14887331822E+02  0.51100000000E-03 0.  1.
        -12    1    3    3    0    0 -0.33275258107E+01 -0.13027505439E+02  0.25099982456E+02  0.28474505181E+02  0.00000000000E+00 0.  1.
</event>
<event>
 7    1  0.2604986E-013  0.7246154E+02  0.7816164E-02  0.1226708E+00
        -11   -1    0    0    0    0  0.00000000000E+00  0.00000000000E+00  0.45593999997E+02  0.45594000000E+02  0.51100000000E-03 0.  1.
         11   -1    0    0    0    0 -0.00000000000E+00 -0.00000000000E+00 -0.45593999997E+02  0.45594000000E+02  0.51100000000E-03 0. -1.
    9900012    2    1    2    0    0 -0.55187243518E+01 -0.11738901836E+02 -0.13506373820E+02  0.72461540950E+02  0.69999961774E+02 0.  0.
        -12    1    1    2    0    0  0.55187243518E+01  0.11738901836E+02  0.13506373820E+02  0.18726459050E+02  0.00000000000E+00 0.  1.
         11    1    3    3    0    0 -0.34777101538E+01  0.33385339617E+01  0.71598031419E+01  0.86315154069E+01  0.51100000000E-03 0. -1.
        -11    1    3    3    0    0 -0.12042532730E+01 -0.33150844900E+02  0.38120669523E+01  0.33391025714E+02  0.51100000000E-03 0.  1.
         12    1    3    3    0    0 -0.83676092498E+00  0.18073409103E+02 -0.24478243914E+02  0.30438999829E+02  0.00000000000E+00 0. -1.
</event>
<event>
 7    1  0.2604986E-013  0.7246165E+02  0.7816164E-02  0.1226708E+00
        -11   -1    0    0    0    0  0.00000000000E+00  0.00000000000E+00  0.45593999997E+02  0.45594000000E+02  0.51100000000E-03 0.  1.
         11   -1    0    0    0    0 -0.00000000000E+00 -0.00000000000E+00 -0.45593999997E+02  0.45594000000E+02  0.51100000000E-03 0. -1.
    9900012    2    1    2    0    0 -0.15327387946E+02 -0.10114641180E+02 -0.36662457257E+01  0.72461651046E+02  0.70000105194E+02 0.  0.
        -12    1    1    2    0    0  0.15327387946E+02  0.10114641180E+02  0.36662457257E+01  0.18726348954E+02  0.00000000000E+00 0.  1.
         11    1    3    3    0    0  0.78901106984E+01 -0.93112491758E+01 -0.12062656801E+02  0.17159862978E+02  0.51100000000E-03 0. -1.
        -11    1    3    3    0    0  0.12981001692E+02 -0.77300881467E+01  0.10480670738E+02  0.18387635168E+02  0.51100000000E-03 0.  1.
        -12    1    3    3    0    0 -0.36198500336E+02  0.69266961428E+01 -0.20842596626E+01  0.36914152900E+02  0.00000000000E+00 0.  1.
</event>
<event>
 7    1  0.2604986E-013  0.7246159E+02  0.7816164E-02  0.1226708E+00
        -11   -1    0    0    0    0  0.00000000000E+00  0.00000000000E+00  0.45593999997E+02  0.45594000000E+02  0.51100000000E-03 0.  1.
         11   -1    0    0    0    0 -0.00000000000E+00 -0.00000000000E+00 -0.45593999997E+02  0.45594000000E+02  0.51100000000E-03 0. -1.
    9900012    2    1    2    0    0 -0.65022066151E+01 -0.80179175733E+01 -0.15624112595E+02  0.72461585836E+02  0.70000020245E+02 0.  0.
        -12    1    1    2    0    0  0.65022066151E+01  0.80179175733E+01  0.15624112595E+02  0.18726414164E+02  0.00000000000E+00 0.  1.
         11    1    3    3    0    0  0.23064633778E+01  0.34182965982E+01  0.56972507858E+01  0.70330073030E+01  0.51100000000E-03 0. -1.
        -11    1    3    3    0    0  0.99126060710E+00  0.13754314509E+02  0.14855371556E+02  0.20269332241E+02  0.51100000000E-03 0.  1.
         12    1    3    3    0    0 -0.97999306000E+01 -0.25190528680E+02 -0.36176734936E+02  0.45159246291E+02  0.00000000000E+00 0. -1.
</event>
<event>
 7    1  0.2604986E-013  0.7246145E+02  0.7816164E-02  0.1226708E+00
        -11   -1    0    0    0    0  0.00000000000E+00  0.00000000000E+00  0.45593999997E+02  0.45594000000E+02  0.51100000000E-03 0.  1.
         11   -1    0    0    0    0 -0.00000000000E+00 -0.00000000000E+00 -0.45593999997E+02  0.45594000000E+02  0.51100000000E-03 0. -1.
    9900012    2    1    2    0    0 -0.96908575167E+01  0.25391214082E+01 -0.15821621181E+02  0.72461453235E+02  0.69999847509E+02 0.  0.
        -12    1    1    2    0    0  0.96908575167E+01 -0.25391214082E+01  0.15821621181E+02  0.18726546765E+02  0.00000000000E+00 0.  1.
         11    1    3    3    0    0 -0.80656963503E+01 -0.10228136513E+02  0.97140252578E+01  0.16249077546E+02  0.51100000000E-03 0. -1.
        -11    1    3    3    0    0 -0.26895260633E+01  0.62833293487E+01  0.14294204119E+02  0.15844180314E+02  0.51100000000E-03 0.  1.
         12    1    3    3    0    0  0.10643648969E+01  0.64839285720E+01 -0.39829850558E+02  0.40368195375E+02  0.00000000000E+00 0. -1.
</event>
<event>
 7    1  0.2604986E-013  0.7246157E+02  0.7816164E-02  0.1226708E+00
        -11   -1    0    0    0    0  0.00000000000E+00  0.00000000000E+00  0.45593999997E+02  0.45594000000E+02  0.51100000000E-03 0. -1.
         11   -1    0    0    0    0 -0.00000000000E+00 -0.00000000000E+00 -0.45593999997E+02  0.45594000000E+02  0.51100000000E-03 0.  1.
    9900012    2    1    2    0    0 -0.16588577799E+01 -0.36109236355E+01  0.18299964825E+02  0.72461567045E+02  0.69999995767E+02 0.  0.
        -12    1    1    2    0    0  0.16588577799E+01  0.36109236355E+01 -0.18299964825E+02  0.18726432955E+02  0.00000000000E+00 0.  1.
         11    1    3    3    0    0 -0.51991935609E+01  0.51186224380E+01 -0.94544450798E+01  0.11942296319E+02  0.51100000000E-03 0.  1.
        -11    1    3    3    0    0 -0.12010847234E+02 -0.10760775343E+02 -0.10453399584E+02  0.19217916130E+02  0.51100000000E-03 0. -1.
         12    1    3    3    0    0  0.15551183015E+02  0.20312292691E+01  0.38207809489E+02  0.41301354596E+02  0.00000000000E+00 0. -1.
</event>
<event>
 7    1  0.2604986E-013  0.7246171E+02  0.7816164E-02  0.1226708E+00
        -11   -1    0    0    0    0  0.00000000000E+00  0.00000000000E+00  0.45593999997E+02  0.45594000000E+02  0.51100000000E-03 0.  1.
         11   -1    0    0    0    0 -0.00000000000E+00 -0.00000000000E+00 -0.45593999997E+02  0.45594000000E+02  0.51100000000E-03 0. -1.
    9900012    2    1    2    0    0 -0.60337466055E+01 -0.20203847436E+01 -0.17612093775E+02  0.72461710999E+02  0.70000183294E+02 0.  0.
        -12    1    1    2    0    0  0.60337466055E+01  0.20203847436E+01  0.17612093775E+02  0.18726289001E+02  0.00000000000E+00 0.  1.
         11    1    3    3    0    0 -0.19644866474E+02  0.47918613484E+01  0.13799987711E+00  0.20221319397E+02  0.51100000000E-03 0. -1.
        -11    1    3    3    0    0 -0.20465053816E+01 -0.24968436588E+02 -0.73622676164E+01  0.26111568215E+02  0.51100000000E-03 0.  1.
         12    1    3    3    0    0  0.15657625250E+02  0.18156190496E+02 -0.10387826036E+02  0.26128823386E+02  0.00000000000E+00 0. -1.
</event>
<event>
 7    1  0.2604986E-013  0.7246159E+02  0.7816164E-02  0.1226708E+00
        -11   -1    0    0    0    0  0.00000000000E+00  0.00000000000E+00  0.45593999997E+02  0.45594000000E+02  0.51100000000E-03 0.  1.
         11   -1    0    0    0    0 -0.00000000000E+00 -0.00000000000E+00 -0.45593999997E+02  0.45594000000E+02  0.51100000000E-03 0. -1.
    9900012    2    1    2    0    0  0.13802655341E+02 -0.73894218699E+01 -0.10274324885E+02  0.72461585451E+02  0.70000019744E+02 0.  0.
        -12    1    1    2    0    0 -0.13802655341E+02  0.73894218699E+01  0.10274324885E+02  0.18726414549E+02  0.00000000000E+00 0.  1.
         11    1    3    3    0    0  0.12433412258E+02 -0.90530594267E+01  0.41164404859E+01  0.15921454327E+02  0.51100000000E-03 0. -1.
        -11    1    3    3    0    0 -0.19940326035E+02 -0.93233674078E+01  0.83044752771E+01  0.23526710184E+02  0.51100000000E-03 0.  1.
         12    1    3    3    0    0  0.21309569118E+02  0.10987004965E+02 -0.22695240648E+02  0.33013420940E+02  0.00000000000E+00 0. -1.
</event>
<event>
 7    1  0.3064107E-013  0.7246165E+02  0.7816164E-02  0.1226708E+00
        -11   -1    0    0    0    0  0.00000000000E+00  0.00000000000E+00  0.45593999997E+02  0.45594000000E+02  0.51100000000E-03 0. -1.
         11   -1    0    0    0    0 -0.00000000000E+00 -0.00000000000E+00 -0.45593999997E+02  0.45594000000E+02  0.51100000000E-03 0.  1.
    9900012    2    1    2    0    0 -0.75504885505E+01  0.17678737082E+01  0.17045263859E+02  0.72461647583E+02  0.70000100683E+02 0.  0.
        -12    1    1    2    0    0  0.75504885505E+01 -0.17678737082E+01 -0.17045263859E+02  0.18726352417E+02  0.00000000000E+00 0.  1.
         11    1    3    3    0    0 -0.76205067683E+01  0.24527186609E+01 -0.77361208757E+01  0.11132633053E+02  0.51100000000E-03 0. -1.
        -11    1    3    3    0    0 -0.26565751702E+01 -0.17048324540E+01 -0.18087767532E+02  0.18361132314E+02  0.51100000000E-03 0.  1.
         12    1    3    3    0    0  0.27265933879E+01  0.10199875013E+01  0.42869152267E+02  0.42967882215E+02  0.00000000000E+00 0. -1.
</event>
<event>
 7    1  0.2604986E-013  0.7246156E+02  0.7816164E-02  0.1226708E+00
        -11   -1    0    0    0    0  0.00000000000E+00  0.00000000000E+00  0.45593999997E+02  0.45594000000E+02  0.51100000000E-03 0.  1.
         11   -1    0    0    0    0 -0.00000000000E+00 -0.00000000000E+00 -0.45593999997E+02  0.45594000000E+02  0.51100000000E-03 0. -1.
    9900012    2    1    2    0    0 -0.11379649709E+02 -0.18232580632E+01 -0.14760038276E+02  0.72461563409E+02  0.69999991031E+02 0.  0.
        -12    1    1    2    0    0  0.11379649709E+02  0.18232580632E+01  0.14760038276E+02  0.18726436591E+02  0.00000000000E+00 0.  1.
         11    1    3    3    0    0 -0.36548455105E+02  0.34241586646E+01 -0.54463030841E+01  0.37110330781E+02  0.51100000000E-03 0. -1.
        -11    1    3    3    0    0 -0.39983532184E+01 -0.17009721914E+01 -0.30507754410E+01  0.53091775171E+01  0.51100000000E-03 0.  1.
        -12    1    3    3    0    0  0.29167158614E+02 -0.35464445363E+01 -0.62629597511E+01  0.30042055111E+02  0.00000000000E+00 0.  1.
</event>
<event>
 7    1  0.2604986E-013  0.7246156E+02  0.7816164E-02  0.1226708E+00
        -11   -1    0    0    0    0  0.00000000000E+00  0.00000000000E+00  0.45593999997E+02  0.45594000000E+02  0.51100000000E-03 0.  1.
         11   -1    0    0    0    0 -0.00000000000E+00 -0.00000000000E+00 -0.45593999997E+02  0.45594000000E+02  0.51100000000E-03 0. -1.
    9900012    2    1    2    0    0  0.56313891948E+01 -0.42760698799E+01 -0.17340187109E+02  0.72461563957E+02  0.69999991745E+02 0.  0.
        -12    1    1    2    0    0 -0.56313891948E+01  0.42760698799E+01  0.17340187109E+02  0.18726436043E+02  0.00000000000E+00 0.  1.
         11    1    3    3    0    0  0.11044614740E+02 -0.68198774549E+00  0.86605918871E+01  0.14051849492E+02  0.51100000000E-03 0. -1.
        -11    1    3    3    0    0 -0.17114160135E+02 -0.13462079230E+02  0.62986012804E+01  0.22667034051E+02  0.51100000000E-03 0.  1.
         12    1    3    3    0    0  0.11700934590E+02  0.98679970952E+01 -0.32299380277E+02  0.35742680414E+02  0.00000000000E+00 0. -1.
</event>
<event>
 7    1  0.2604986E-013  0.7246160E+02  0.7816164E-02  0.1226708E+00
        -11   -1    0    0    0    0  0.00000000000E+00  0.00000000000E+00  0.45593999997E+02  0.45594000000E+02  0.51100000000E-03 0.  1.
         11   -1    0    0    0    0 -0.00000000000E+00 -0.00000000000E+00 -0.45593999997E+02  0.45594000000E+02  0.51100000000E-03 0. -1.
    9900012    2    1    2    0    0  0.16087998217E+00 -0.15094802753E+02 -0.11081472390E+02  0.72461601979E+02  0.70000041275E+02 0.  0.
        -12    1    1    2    0    0 -0.16087998217E+00  0.15094802753E+02  0.11081472390E+02  0.18726398021E+02  0.00000000000E+00 0.  1.
         11    1    3    3    0    0 -0.10142608905E+02  0.94106192682E+01  0.79313148464E+01  0.15947978739E+02  0.51100000000E-03 0.  1.
        -11    1    3    3    0    0 -0.11404420163E+02 -0.79535233451E+01 -0.24963355115E+02  0.28574261701E+02  0.51100000000E-03 0. -1.
         12    1    3    3    0    0  0.21707909050E+02 -0.16551898677E+02  0.59505678794E+01  0.27939361539E+02  0.00000000000E+00 0. -1.
</event>
<event>
 7    1  0.2604986E-013  0.7246159E+02  0.7816164E-02  0.1226708E+00
        -11   -1    0    0    0    0  0.00000000000E+00  0.00000000000E+00  0.45593999997E+02  0.45594000000E+02  0.51100000000E-03 0. -1.
         11   -1    0    0    0    0 -0.00000000000E+00 -0.00000000000E+00 -0.45593999997E+02  0.45594000000E+02  0.51100000000E-03 0.  1.
    9900012    2    1    2    0    0 -0.17939081511E+02 -0.13205118741E+01 -0.52080638803E+01  0.72461592805E+02  0.70000029324E+02 0.  0.
        -12    1    1    2    0    0  0.17939081511E+02  0.13205118741E+01  0.52080638803E+01  0.18726407195E+02  0.00000000000E+00 0.  1.
         11    1    3    3    0    0 -0.12146386829E+02 -0.74693737513E+01 -0.76338806138E+01  0.16174127201E+02  0.51100000000E-03 0. -1.
        -11    1    3    3    0    0  0.17206740565E+02 -0.16568230630E+02  0.26504670236E+00  0.23888248934E+02  0.51100000000E-03 0.  1.
         12    1    3    3    0    0 -0.22999435247E+02  0.22717092508E+02  0.21607700311E+01  0.32399216670E+02  0.00000000000E+00 0. -1.
</event>
<event>
 7    1  0.2604986E-013  0.7246155E+02  0.7816164E-02  0.1226708E+00
        -11   -1    0    0    0    0  0.00000000000E+00  0.00000000000E+00  0.45593999997E+02  0.45594000000E+02  0.51100000000E-03 0.  1.
         11   -1    0    0    0    0 -0.00000000000E+00 -0.00000000000E+00 -0.45593999997E+02  0.45594000000E+02  0.51100000000E-03 0. -1.
    9900012    2    1    2    0    0  0.14778156477E+02  0.11212618260E+02 -0.25618634872E+01  0.72461551815E+02  0.69999975927E+02 0.  0.
        -12    1    1    2    0    0 -0.14778156477E+02 -0.11212618260E+02  0.25618634872E+01  0.18726448185E+02  0.00000000000E+00 0.  1.
         11    1    3    3    0    0  0.13992681831E+02  0.28500802449E+01 -0.69625597193E+01  0.15886955037E+02  0.51100000000E-03 0. -1.
        -11    1    3    3    0    0 -0.26772281435E+02 -0.13505928600E+01 -0.11571340061E+01  0.26831289825E+02  0.51100000000E-03 0.  1.
         12    1    3    3    0    0  0.27557756081E+02  0.97131308749E+01  0.55578302381E+01  0.29743306954E+02  0.00000000000E+00 0. -1.
</event>
<event>
 7    1  0.2604986E-013  0.7246145E+02  0.7816164E-02  0.1226708E+00
        -11   -1    0    0    0    0  0.00000000000E+00  0.00000000000E+00  0.45593999997E+02  0.45594000000E+02  0.51100000000E-03 0. -1.
         11   -1    0    0    0    0 -0.00000000000E+00 -0.00000000000E+00 -0.45593999997E+02  0.45594000000E+02  0.51100000000E-03 0.  1.
    9900012    2    1    2    0    0  0.43821423708E+01  0.17653832379E+02 -0.44522487328E+01  0.72461454985E+02  0.69999849787E+02 0.  0.
        -12    1    1    2    0    0 -0.43821423708E+01 -0.17653832379E+02  0.44522487328E+01  0.18726545015E+02  0.00000000000E+00 0.  1.
         11    1    3    3    0    0 -0.57990922483E+01  0.17003691768E+01 -0.18509492829E+02  0.19471056758E+02  0.51100000000E-03 0. -1.
        -11    1    3    3    0    0 -0.50622368803E+01  0.52225133918E+01 -0.16026121668E+02  0.17599359771E+02  0.51100000000E-03 0.  1.
         12    1    3    3    0    0  0.15243471499E+02  0.10730949811E+02  0.30083365765E+02  0.35391038455E+02  0.00000000000E+00 0. -1.
</event>
<event>
 7    1  0.2604986E-013  0.7246159E+02  0.7816164E-02  0.1226708E+00
        -11   -1    0    0    0    0  0.00000000000E+00  0.00000000000E+00  0.45593999997E+02  0.45594000000E+02  0.51100000000E-03 0.  1.
         11   -1    0    0    0    0 -0.00000000000E+00 -0.00000000000E+00 -0.45593999997E+02  0.45594000000E+02  0.51100000000E-03 0. -1.
    9900012    2    1    2    0    0  0.15350751830E+02  0.10575385974E+02  0.17871606755E+01  0.72461593150E+02  0.70000029773E+02 0.  0.
        -12    1    1    2    0    0 -0.15350751830E+02 -0.10575385974E+02 -0.17871606755E+01  0.18726406850E+02  0.00000000000E+00 0.  1.
         11    1    3    3    0    0  0.18144165336E+02  0.81891633247E+01  0.25849605568E+02  0.32626296755E+02  0.51100000000E-03 0.  1.
        -11    1    3    3    0    0  0.72051730290E+01  0.14267050251E+02 -0.97825979464E+01  0.18739329339E+02  0.51100000000E-03 0. -1.
        -12    1    3    3    0    0 -0.99985865348E+01 -0.11880827601E+02 -0.14279846946E+02  0.21095967055E+02  0.00000000000E+00 0.  1.
</event>
<event>
 7    1  0.2604986E-013  0.7246152E+02  0.7816164E-02  0.1226708E+00
        -11   -1    0    0    0    0  0.00000000000E+00  0.00000000000E+00  0.45593999997E+02  0.45594000000E+02  0.51100000000E-03 0.  1.
         11   -1    0    0    0    0 -0.00000000000E+00 -0.00000000000E+00 -0.45593999997E+02  0.45594000000E+02  0.51100000000E-03 0. -1.
    9900012    2    1    2    0    0  0.18062608882E+02 -0.14137195010E+01  0.47354507428E+01  0.72461523124E+02  0.69999938552E+02 0.  0.
        -12    1    1    2    0    0 -0.18062608882E+02  0.14137195010E+01 -0.47354507428E+01  0.18726476876E+02  0.00000000000E+00 0.  1.
         11    1    3    3    0    0  0.27289808355E+02 -0.17018933805E+02 -0.11607949711E+02  0.34192429639E+02  0.51100000000E-03 0. -1.
        -11    1    3    3    0    0  0.41512159569E+01 -0.71148590078E+01  0.39122704308E+01  0.91191925523E+01  0.51100000000E-03 0.  1.
         12    1    3    3    0    0 -0.13378415429E+02  0.22720073312E+02  0.12431130023E+02  0.29149900932E+02  0.00000000000E+00 0. -1.
</event>
<event>
 7    1  0.2604986E-013  0.7246165E+02  0.7816164E-02  0.1226708E+00
        -11   -1    0    0    0    0  0.00000000000E+00  0.00000000000E+00  0.45593999997E+02  0.45594000000E+02  0.51100000000E-03 0. -1.
         11   -1    0    0    0    0 -0.00000000000E+00 -0.00000000000E+00 -0.45593999997E+02  0.45594000000E+02  0.51100000000E-03 0.  1.
    9900012    2    1    2    0    0  0.83133040912E+01 -0.99273512817E+01  0.13528226409E+02  0.72461648563E+02  0.70000101959E+02 0.  0.
        -12    1    1    2    0    0 -0.83133040912E+01  0.99273512817E+01 -0.13528226409E+02  0.18726351437E+02  0.00000000000E+00 0.  1.
         11    1    3    3    0    0  0.18822641948E+02  0.64227416275E+01  0.51142230737E+01  0.20535304669E+02  0.51100000000E-03 0. -1.
        -11    1    3    3    0    0  0.37337721213E+01 -0.29092185629E+02  0.13292954460E+02  0.32202468189E+02  0.51100000000E-03 0.  1.
        -12    1    3    3    0    0 -0.14243109978E+02  0.12742092720E+02 -0.48789511250E+01  0.19723875705E+02  0.00000000000E+00 0.  1.
</event>
<event>
 7    1  0.2604986E-013  0.7246170E+02  0.7816164E-02  0.1226708E+00
        -11   -1    0    0    0    0  0.00000000000E+00  0.00000000000E+00  0.45593999997E+02  0.45594000000E+02  0.51100000000E-03 0.  1.
         11   -1    0    0    0    0 -0.00000000000E+00 -0.00000000000E+00 -0.45593999997E+02  0.45594000000E+02  0.51100000000E-03 0. -1.
    9900012    2    1    2    0    0 -0.15324614554E+02  0.92223432590E+01 -0.55478713796E+01  0.72461700225E+02  0.70000169258E+02 0.  0.
        -12    1    1    2    0    0  0.15324614554E+02 -0.92223432590E+01  0.55478713796E+01  0.18726299775E+02  0.00000000000E+00 0.  1.
         11    1    3    3    0    0 -0.34129649739E+02  0.12536276449E+02 -0.13051040520E+02  0.38630569209E+02  0.51100000000E-03 0. -1.
        -11    1    3    3    0    0  0.31228301656E+01  0.91838056574E+01  0.96262733243E+01  0.13665997694E+02  0.51100000000E-03 0.  1.
        -12    1    3    3    0    0  0.15682205018E+02 -0.12497738847E+02 -0.21231041843E+01  0.20165133322E+02  0.00000000000E+00 0.  1.
</event>
<event>
 7    1  0.2604986E-013  0.7246181E+02  0.7816164E-02  0.1226707E+00
        -11   -1    0    0    0    0  0.00000000000E+00  0.00000000000E+00  0.45593999997E+02  0.45594000000E+02  0.51100000000E-03 0. -1.
         11   -1    0    0    0    0 -0.00000000000E+00 -0.00000000000E+00 -0.45593999997E+02  0.45594000000E+02  0.51100000000E-03 0.  1.
    9900012    2    1    2    0    0 -0.12312059840E+02 -0.40293805212E+01  0.13522103401E+02  0.72461814984E+02  0.70000318752E+02 0.  0.
        -12    1    1    2    0    0  0.12312059840E+02  0.40293805212E+01 -0.13522103401E+02  0.18726185016E+02  0.00000000000E+00 0.  1.
         11    1    3    3    0    0 -0.15450023624E+02  0.62555006148E+01 -0.85871035829E+01  0.18750276428E+02  0.51100000000E-03 0. -1.
        -11    1    3    3    0    0  0.15833807827E+02 -0.20990563977E+02  0.29409906032E+00  0.26294481187E+02  0.51100000000E-03 0.  1.
         12    1    3    3    0    0 -0.12695844042E+02  0.10705682841E+02  0.21815107924E+02  0.27417057369E+02  0.00000000000E+00 0. -1.
</event>
<event>
 7    1  0.2604986E-013  0.7246162E+02  0.7816164E-02  0.1226708E+00
        -11   -1    0    0    0    0  0.00000000000E+00  0.00000000000E+00  0.45593999997E+02  0.45594000000E+02  0.51100000000E-03 0.  1.
         11   -1    0    0    0    0 -0.00000000000E+00 -0.00000000000E+00 -0.45593999997E+02  0.45594000000E+02  0.51100000000E-03 0. -1.
    9900012    2    1    2    0    0  0.18064526124E+02  0.83414034416E+00  0.48635962032E+01  0.72461615880E+02  0.70000059384E+02 0.  0.
        -12    1    1    2    0    0 -0.18064526124E+02 -0.83414034416E+00 -0.48635962032E+01  0.18726384120E+02  0.00000000000E+00 0.  1.
         11    1    3    3    0    0 -0.44390076867E+01 -0.19023535290E+02  0.43033379335E+01  0.20002959826E+02  0.51100000000E-03 0. -1.
        -11    1    3    3    0    0 -0.10914332828E+02  0.87537620069E+01  0.84858919446E+01  0.16363415680E+02  0.51100000000E-03 0.  1.
         12    1    3    3    0    0  0.33417866639E+02  0.11103913627E+02 -0.79256336750E+01  0.36095240374E+02  0.00000000000E+00 0. -1.
</event>
<event>
 7    1  0.2604986E-013  0.7246172E+02  0.7816164E-02  0.1226708E+00
        -11   -1    0    0    0    0  0.00000000000E+00  0.00000000000E+00  0.45593999997E+02  0.45594000000E+02  0.51100000000E-03 0.  1.
         11   -1    0    0    0    0 -0.00000000000E+00 -0.00000000000E+00 -0.45593999997E+02  0.45594000000E+02  0.51100000000E-03 0. -1.
    9900012    2    1    2    0    0 -0.25732254635E+01 -0.16834855442E+02 -0.77871612683E+01  0.72461715594E+02  0.70000189279E+02 0.  0.
        -12    1    1    2    0    0  0.25732254635E+01  0.16834855442E+02  0.77871612683E+01  0.18726284406E+02  0.00000000000E+00 0.  1.
         11    1    3    3    0    0 -0.13169919236E+02  0.26772837587E+01  0.89559631949E+01  0.16150043282E+02  0.51100000000E-03 0. -1.
        -11    1    3    3    0    0 -0.99943568501E+01 -0.22793917795E+02  0.58503901962E+01  0.25567106269E+02  0.51100000000E-03 0.  1.
         12    1    3    3    0    0  0.20591050623E+02  0.32817785939E+01 -0.22593514659E+02  0.30744566042E+02  0.00000000000E+00 0. -1.
</event>
<event>
 7    1  0.2604986E-013  0.7246154E+02  0.7816164E-02  0.1226708E+00
        -11   -1    0    0    0    0  0.00000000000E+00  0.00000000000E+00  0.45593999997E+02  0.45594000000E+02  0.51100000000E-03 0.  1.
         11   -1    0    0    0    0 -0.00000000000E+00 -0.00000000000E+00 -0.45593999997E+02  0.45594000000E+02  0.51100000000E-03 0. -1.
    9900012    2    1    2    0    0 -0.11349273827E+02 -0.14301565071E+02  0.41640875863E+01  0.72461537298E+02  0.69999957016E+02 0.  0.
        -12    1    1    2    0    0  0.11349273827E+02  0.14301565071E+02 -0.41640875863E+01  0.18726462702E+02  0.00000000000E+00 0.  1.
         11    1    3    3    0    0 -0.89546045465E+01 -0.23733431184E+02  0.37281882306E+01  0.25639034422E+02  0.51100000000E-03 0. -1.
        -11    1    3    3    0    0 -0.18624236351E+02 -0.54411884467E+01  0.11108823550E+02  0.22357877187E+02  0.51100000000E-03 0.  1.
         12    1    3    3    0    0  0.16229567071E+02  0.14873054560E+02 -0.10672924194E+02  0.24464625689E+02  0.00000000000E+00 0. -1.
</event>
<event>
 7    1  0.2604986E-013  0.7246156E+02  0.7816164E-02  0.1226708E+00
        -11   -1    0    0    0    0  0.00000000000E+00  0.00000000000E+00  0.45593999997E+02  0.45594000000E+02  0.51100000000E-03 0.  1.
         11   -1    0    0    0    0 -0.00000000000E+00 -0.00000000000E+00 -0.45593999997E+02  0.45594000000E+02  0.51100000000E-03 0. -1.
    9900012    2    1    2    0    0  0.94035262900E+01 -0.15869368237E+02  0.32274659121E+01  0.72461556367E+02  0.69999981857E+02 0.  0.
        -12    1    1    2    0    0 -0.94035262900E+01  0.15869368237E+02 -0.32274659121E+01  0.18726443633E+02  0.00000000000E+00 0.  1.
         11    1    3    3    0    0  0.74068227206E+01 -0.47598170666E+01 -0.26312451737E+00  0.88082981384E+01  0.51100000000E-03 0. -1.
        -11    1    3    3    0    0 -0.19896828617E+02 -0.16959120727E+02  0.22175591311E+02  0.34281954657E+02  0.51100000000E-03 0.  1.
         12    1    3    3    0    0  0.21893532187E+02  0.58495695566E+01 -0.18685000881E+02  0.29371303572E+02  0.00000000000E+00 0. -1.
</event>
<event>
 7    1  0.2604986E-013  0.7246160E+02  0.7816164E-02  0.1226708E+00
        -11   -1    0    0    0    0  0.00000000000E+00  0.00000000000E+00  0.45593999997E+02  0.45594000000E+02  0.51100000000E-03 0.  1.
         11   -1    0    0    0    0 -0.00000000000E+00 -0.00000000000E+00 -0.45593999997E+02  0.45594000000E+02  0.51100000000E-03 0. -1.
    9900012    2    1    2    0    0  0.17313915482E+02  0.43740359405E+01 -0.56368622541E+01  0.72461599497E+02  0.70000038042E+02 0.  0.
        -12    1    1    2    0    0 -0.17313915482E+02 -0.43740359405E+01  0.56368622541E+01  0.18726400503E+02  0.00000000000E+00 0.  1.
         11    1    3    3    0    0 -0.23834250323E+01 -0.39384012528E+01  0.36850552344E+01  0.58967238069E+01  0.51100000000E-03 0. -1.
        -11    1    3    3    0    0  0.58191916317E+01 -0.21064216224E+02  0.14544767196E+02  0.26250989494E+02  0.51100000000E-03 0.  1.
         12    1    3    3    0    0  0.13878148883E+02  0.29376653417E+02 -0.23866684685E+02  0.40313886196E+02  0.00000000000E+00 0. -1.
</event>
<event>
 7    1  0.2604986E-013  0.7246155E+02  0.7816164E-02  0.1226708E+00
        -11   -1    0    0    0    0  0.00000000000E+00  0.00000000000E+00  0.45593999997E+02  0.45594000000E+02  0.51100000000E-03 0. -1.
         11   -1    0    0    0    0 -0.00000000000E+00 -0.00000000000E+00 -0.45593999997E+02  0.45594000000E+02  0.51100000000E-03 0.  1.
    9900012    2    1    2    0    0  0.70095228118E+01  0.43792717460E+01  0.16803820353E+02  0.72461553206E+02  0.69999977739E+02 0.  0.
        -12    1    1    2    0    0 -0.70095228118E+01 -0.43792717460E+01 -0.16803820353E+02  0.18726446794E+02  0.00000000000E+00 0.  1.
         11    1    3    3    0    0  0.21074158068E+02  0.20327317422E+02  0.13390978230E+02  0.32196867396E+02  0.51100000000E-03 0. -1.
        -11    1    3    3    0    0  0.11280260138E+02 -0.31535222063E+01  0.15104947165E+01  0.11809765690E+02  0.51100000000E-03 0.  1.
        -12    1    3    3    0    0 -0.25344895395E+02 -0.12794523470E+02  0.19023474072E+01  0.28454920120E+02  0.00000000000E+00 0.  1.
</event>
<event>
 7    1  0.2604986E-013  0.7246155E+02  0.7816164E-02  0.1226708E+00
        -11   -1    0    0    0    0  0.00000000000E+00  0.00000000000E+00  0.45593999997E+02  0.45594000000E+02  0.51100000000E-03 0.  1.
         11   -1    0    0    0    0 -0.00000000000E+00 -0.00000000000E+00 -0.45593999997E+02  0.45594000000E+02  0.51100000000E-03 0. -1.
    9900012    2    1    2    0    0 -0.50794474591E+01  0.17808458207E+02 -0.27817093923E+01  0.72461551396E+02  0.69999975381E+02 0.  0.
        -12    1    1    2    0    0  0.50794474591E+01 -0.17808458207E+02  0.27817093923E+01  0.18726448604E+02  0.00000000000E+00 0.  1.
         11    1    3    3    0    0  0.48259589206E+01  0.92958750074E-02  0.17793430788E+02  0.18436272546E+02  0.51100000000E-03 0. -1.
        -11    1    3    3    0    0  0.57623226352E+01  0.19983695610E+02  0.72435945809E+01  0.22023217637E+02  0.51100000000E-03 0.  1.
         12    1    3    3    0    0 -0.15667729015E+02 -0.21845332779E+01 -0.27818734762E+02  0.32002061213E+02  0.00000000000E+00 0. -1.
</event>
<event>
 7    1  0.2604986E-013  0.7246155E+02  0.7816164E-02  0.1226708E+00
        -11   -1    0    0    0    0  0.00000000000E+00  0.00000000000E+00  0.45593999997E+02  0.45594000000E+02  0.51100000000E-03 0. -1.
         11   -1    0    0    0    0 -0.00000000000E+00 -0.00000000000E+00 -0.45593999997E+02  0.45594000000E+02  0.51100000000E-03 0.  1.
    9900012    2    1    2    0    0 -0.78652772516E+01 -0.16189979828E+02 -0.51673800981E+01  0.72461552121E+02  0.69999976326E+02 0.  0.
        -12    1    1    2    0    0  0.78652772516E+01  0.16189979828E+02  0.51673800981E+01  0.18726447879E+02  0.00000000000E+00 0.  1.
         11    1    3    3    0    0 -0.33995418659E+02 -0.84304206828E+00  0.34120099729E+01  0.34176615134E+02  0.51100000000E-03 0. -1.
        -11    1    3    3    0    0  0.14622184349E+00  0.33218749936E+01 -0.51177552510E+01  0.61030855615E+01  0.51100000000E-03 0.  1.
         12    1    3    3    0    0  0.25983919564E+02 -0.18668812754E+02 -0.34616348199E+01  0.32181851425E+02  0.00000000000E+00 0. -1.
</event>
<event>
 7    1  0.2604986E-013  0.7246156E+02  0.7816164E-02  0.1226708E+00
        -11   -1    0    0    0    0  0.00000000000E+00  0.00000000000E+00  0.45593999997E+02  0.45594000000E+02  0.51100000000E-03 0.  1.
         11   -1    0    0    0    0 -0.00000000000E+00 -0.00000000000E+00 -0.45593999997E+02  0.45594000000E+02  0.51100000000E-03 0. -1.
    9900012    2    1    2    0    0 -0.82393223809E+01 -0.64391385209E+01 -0.15534822241E+02  0.72461557726E+02  0.69999983627E+02 0.  0.
        -12    1    1    2    0    0  0.82393223809E+01  0.64391385209E+01  0.15534822241E+02  0.18726442274E+02  0.00000000000E+00 0.  1.
         11    1    3    3    0    0 -0.43720543884E+01  0.14934855642E+01  0.98765045633E+01  0.10903701269E+02  0.51100000000E-03 0. -1.
        -11    1    3    3    0    0 -0.17592660108E+02  0.18323135023E+02 -0.58828348531E+01  0.26073870309E+02  0.51100000000E-03 0.  1.
         12    1    3    3    0    0  0.13725392115E+02 -0.26255759108E+02 -0.19528491951E+02  0.35483986148E+02  0.00000000000E+00 0. -1.
</event>
<event>
 7    1  0.2604986E-013  0.7246158E+02  0.7816164E-02  0.1226708E+00
        -11   -1    0    0    0    0  0.00000000000E+00  0.00000000000E+00  0.45593999997E+02  0.45594000000E+02  0.51100000000E-03 0.  1.
         11   -1    0    0    0    0 -0.00000000000E+00 -0.00000000000E+00 -0.45593999997E+02  0.45594000000E+02  0.51100000000E-03 0. -1.
    9900012    2    1    2    0    0  0.84793730482E+01 -0.15181485591E+02  0.69499292853E+01  0.72461580451E+02  0.70000013231E+02 0.  0.
        -12    1    1    2    0    0 -0.84793730482E+01  0.15181485591E+02 -0.69499292853E+01  0.18726419549E+02  0.00000000000E+00 0.  1.
         11    1    3    3    0    0 -0.10105103429E+02 -0.29128368120E+02 -0.76277495566E+00  0.30840829602E+02  0.51100000000E-03 0. -1.
        -11    1    3    3    0    0  0.17206589564E+01 -0.60957920031E+01  0.13395869555E+02  0.14817849668E+02  0.51100000000E-03 0.  1.
         12    1    3    3    0    0  0.16863817520E+02  0.20042674532E+02 -0.56831653144E+01  0.26802901181E+02  0.00000000000E+00 0. -1.
</event>
<event>
 7    1  0.2604986E-013  0.7246160E+02  0.7816164E-02  0.1226708E+00
        -11   -1    0    0    0    0  0.00000000000E+00  0.00000000000E+00  0.45593999997E+02  0.45594000000E+02  0.51100000000E-03 0. -1.
         11   -1    0    0    0    0 -0.00000000000E+00 -0.00000000000E+00 -0.45593999997E+02  0.45594000000E+02  0.51100000000E-03 0.  1.
    9900012    2    1    2    0    0 -0.74666835337E+01 -0.44109989583E+01  0.16597285798E+02  0.72461596964E+02  0.70000034742E+02 0.  0.
        -12    1    1    2    0    0  0.74666835337E+01  0.44109989583E+01 -0.16597285798E+02  0.18726403036E+02  0.00000000000E+00 0.  1.
         11    1    3    3    0    0 -0.13528560314E+02  0.28525573279E+02  0.95143566110E+01  0.32973523576E+02  0.51100000000E-03 0. -1.
        -11    1    3    3    0    0  0.57449996178E+01  0.28226773168E-01  0.22473713549E+01  0.61689947015E+01  0.51100000000E-03 0.  1.
        -12    1    3    3    0    0  0.31687716226E+00 -0.32964799010E+02  0.48355578324E+01  0.33319078686E+02  0.00000000000E+00 0.  1.
</event>
<event>
 7    1  0.2604986E-013  0.7246148E+02  0.7816164E-02  0.1226708E+00
        -11   -1    0    0    0    0  0.00000000000E+00  0.00000000000E+00  0.45593999997E+02  0.45594000000E+02  0.51100000000E-03 0. -1.
         11   -1    0    0    0    0 -0.00000000000E+00 -0.00000000000E+00 -0.45593999997E+02  0.45594000000E+02  0.51100000000E-03 0.  1.
    9900012    2    1    2    0    0  0.10817380149E+02  0.14753531559E+02  0.40000326204E+01  0.72461476892E+02  0.69999878326E+02 0.  0.
        -12    1    1    2    0    0 -0.10817380149E+02 -0.14753531559E+02 -0.40000326204E+01  0.18726523108E+02  0.00000000000E+00 0.  1.
         11    1    3    3    0    0  0.41067160876E+01  0.36804313875E+01 -0.19673812713E+01  0.58550219086E+01  0.51100000000E-03 0. -1.
        -11    1    3    3    0    0  0.11865591288E+02  0.29868652036E+02 -0.17102202899E+02  0.36406235390E+02  0.51100000000E-03 0.  1.
         12    1    3    3    0    0 -0.51549272260E+01 -0.18795551864E+02  0.23069616791E+02  0.30200219593E+02  0.00000000000E+00 0. -1.
</event>
<event>
 7    1  0.2604986E-013  0.7246141E+02  0.7816164E-02  0.1226708E+00
        -11   -1    0    0    0    0  0.00000000000E+00  0.00000000000E+00  0.45593999997E+02  0.45594000000E+02  0.51100000000E-03 0.  1.
         11   -1    0    0    0    0 -0.00000000000E+00 -0.00000000000E+00 -0.45593999997E+02  0.45594000000E+02  0.51100000000E-03 0. -1.
    9900012    2    1    2    0    0  0.18096620575E+02 -0.82084060407E+00  0.47459217419E+01  0.72461408514E+02  0.69999789250E+02 0.  0.
        -12    1    1    2    0    0 -0.18096620575E+02  0.82084060407E+00 -0.47459217419E+01  0.18726591486E+02  0.00000000000E+00 0.  1.
         11    1    3    3    0    0 -0.16100106815E+01 -0.16542905813E+02 -0.39729401639E+00  0.16625814564E+02  0.51100000000E-03 0. -1.
        -11    1    3    3    0    0 -0.53755962349E+01 -0.14643634912E+02  0.52230034482E+01  0.16450314392E+02  0.51100000000E-03 0.  1.
         12    1    3    3    0    0  0.25082227491E+02  0.30365700121E+02 -0.79787689870E-01  0.39385279557E+02  0.00000000000E+00 0. -1.
</event>
<event>
 7    1  0.2604986E-013  0.7246158E+02  0.7816164E-02  0.1226708E+00
        -11   -1    0    0    0    0  0.00000000000E+00  0.00000000000E+00  0.45593999997E+02  0.45594000000E+02  0.51100000000E-03 0. -1.
         11   -1    0    0    0    0 -0.00000000000E+00 -0.00000000000E+00 -0.45593999997E+02  0.45594000000E+02  0.51100000000E-03 0.  1.
    9900012    2    1    2    0    0 -0.17608814803E+02  0.40584085212E+01  0.49130156626E+01  0.72461581191E+02  0.70000014195E+02 0.  0.
        -12    1    1    2    0    0  0.17608814803E+02 -0.40584085212E+01 -0.49130156626E+01  0.18726418809E+02  0.00000000000E+00 0.  1.
         11    1    3    3    0    0  0.15298111376E+01  0.95932275191E+00 -0.82174944818E+01  0.84135508603E+01  0.51100000000E-03 0. -1.
        -11    1    3    3    0    0  0.11426794279E+02  0.61030409813E+01 -0.16765531748E+02  0.21187302607E+02  0.51100000000E-03 0.  1.
         12    1    3    3    0    0 -0.30565420220E+02 -0.30039552120E+01  0.29896041893E+02  0.42860727723E+02  0.00000000000E+00 0. -1.
</event>
<event>
 7    1  0.2604986E-013  0.7246158E+02  0.7816164E-02  0.1226708E+00
        -11   -1    0    0    0    0  0.00000000000E+00  0.00000000000E+00  0.45593999997E+02  0.45594000000E+02  0.51100000000E-03 0. -1.
         11   -1    0    0    0    0 -0.00000000000E+00 -0.00000000000E+00 -0.45593999997E+02  0.45594000000E+02  0.51100000000E-03 0.  1.
    9900012    2    1    2    0    0 -0.66703908118E-01 -0.38493304208E+01  0.18326405782E+02  0.72461576343E+02  0.70000007880E+02 0.  0.
        -12    1    1    2    0    0  0.66703908118E-01  0.38493304208E+01 -0.18326405782E+02  0.18726423657E+02  0.00000000000E+00 0.  1.
         11    1    3    3    0    0  0.18384287624E+02 -0.28717975093E+01 -0.19269927027E+01  0.18706751549E+02  0.51100000000E-03 0. -1.
        -11    1    3    3    0    0 -0.20550880240E+02 -0.25524222508E+01 -0.10272270477E+02  0.23116510961E+02  0.51100000000E-03 0.  1.
         12    1    3    3    0    0  0.20998887084E+01  0.15748893392E+01  0.30525668961E+02  0.30638313833E+02  0.00000000000E+00 0. -1.
</event>
<event>
 7    1  0.2604986E-013  0.7246160E+02  0.7816164E-02  0.1226708E+00
        -11   -1    0    0    0    0  0.00000000000E+00  0.00000000000E+00  0.45593999997E+02  0.45594000000E+02  0.51100000000E-03 0.  1.
         11   -1    0    0    0    0 -0.00000000000E+00 -0.00000000000E+00 -0.45593999997E+02  0.45594000000E+02  0.51100000000E-03 0. -1.
    9900012    2    1    2    0    0 -0.15562130512E+02  0.55300433081E+01 -0.88270495617E+01  0.72461599144E+02  0.70000037581E+02 0.  0.
        -12    1    1    2    0    0  0.15562130512E+02 -0.55300433081E+01  0.88270495617E+01  0.18726400856E+02  0.00000000000E+00 0.  1.
         11    1    3    3    0    0 -0.10645434593E+02  0.11287379816E+02 -0.18184002540E+02  0.23903727103E+02  0.51100000000E-03 0. -1.
        -11    1    3    3    0    0  0.68455509091E+01  0.18910531654E+02  0.17343065049E+01  0.20186074259E+02  0.51100000000E-03 0.  1.
         12    1    3    3    0    0 -0.11762246828E+02 -0.24667868162E+02  0.76226464733E+01  0.28371797781E+02  0.00000000000E+00 0. -1.
</event>
<event>
 7    1  0.2604986E-013  0.7246158E+02  0.7816164E-02  0.1226708E+00
        -11   -1    0    0    0    0  0.00000000000E+00  0.00000000000E+00  0.45593999997E+02  0.45594000000E+02  0.51100000000E-03 0.  1.
         11   -1    0    0    0    0 -0.00000000000E+00 -0.00000000000E+00 -0.45593999997E+02  0.45594000000E+02  0.51100000000E-03 0. -1.
    9900012    2    1    2    0    0 -0.14607445415E+02 -0.47497308017E+01 -0.10711742850E+02  0.72461579116E+02  0.70000011492E+02 0.  0.
        -12    1    1    2    0    0  0.14607445415E+02  0.47497308017E+01  0.10711742850E+02  0.18726420884E+02  0.00000000000E+00 0.  1.
         11    1    3    3    0    0 -0.95920785951E+01 -0.10662740959E+02  0.13569178027E+02  0.19743976527E+02  0.51100000000E-03 0. -1.
        -11    1    3    3    0    0  0.13900127971E+02  0.17907563315E+02 -0.51157094899E+01  0.23239295715E+02  0.51100000000E-03 0.  1.
         12    1    3    3    0    0 -0.18915494791E+02 -0.11994553158E+02 -0.19165211387E+02  0.29478306874E+02  0.00000000000E+00 0. -1.
</event>
<event>
 7    1  0.2604986E-013  0.7246157E+02  0.7816164E-02  0.1226708E+00
        -11   -1    0    0    0    0  0.00000000000E+00  0.00000000000E+00  0.45593999997E+02  0.45594000000E+02  0.51100000000E-03 0.  1.
         11   -1    0    0    0    0 -0.00000000000E+00 -0.00000000000E+00 -0.45593999997E+02  0.45594000000E+02  0.51100000000E-03 0. -1.
    9900012    2    1    2    0    0  0.13338495305E+02  0.13136507748E+02 -0.44251004214E+00  0.72461571938E+02  0.70000002142E+02 0.  0.
        -12    1    1    2    0    0 -0.13338495305E+02 -0.13136507748E+02  0.44251004214E+00  0.18726428062E+02  0.00000000000E+00 0.  1.
         11    1    3    3    0    0  0.11967814918E+02 -0.14671845328E+02 -0.95957766667E+01  0.21226647624E+02  0.51100000000E-03 0. -1.
        -11    1    3    3    0    0  0.17759837244E+02  0.27531052220E+02  0.64929558783E+00  0.32768769283E+02  0.51100000000E-03 0.  1.
        -12    1    3    3    0    0 -0.16389156857E+02  0.27730085584E+00  0.85039710367E+01  0.18466155032E+02  0.00000000000E+00 0.  1.
</event>
<event>
 7    1  0.2604986E-013  0.7246158E+02  0.7816164E-02  0.1226708E+00
        -11   -1    0    0    0    0  0.00000000000E+00  0.00000000000E+00  0.45593999997E+02  0.45594000000E+02  0.51100000000E-03 0. -1.
         11   -1    0    0    0    0 -0.00000000000E+00 -0.00000000000E+00 -0.45593999997E+02  0.45594000000E+02  0.51100000000E-03 0.  1.
    9900012    2    1    2    0    0 -0.16604799172E+02 -0.58602239152E+01  0.63731664513E+01  0.72461579347E+02  0.70000011792E+02 0.  0.
        -12    1    1    2    0    0  0.16604799172E+02  0.58602239152E+01 -0.63731664513E+01  0.18726420653E+02  0.00000000000E+00 0.  1.
         11    1    3    3    0    0 -0.49517255120E+01  0.25128970141E+01 -0.18620934294E+02  0.19431248833E+02  0.51100000000E-03 0. -1.
        -11    1    3    3    0    0  0.81410086347E+01  0.11918109180E+02 -0.11355311957E+01  0.14477802989E+02  0.51100000000E-03 0.  1.
         12    1    3    3    0    0 -0.19794082295E+02 -0.20291230109E+02  0.26129631941E+02  0.38552527525E+02  0.00000000000E+00 0. -1.
</event>
<event>
 7    1  0.2604986E-013  0.7246165E+02  0.7816164E-02  0.1226708E+00
        -11   -1    0    0    0    0  0.00000000000E+00  0.00000000000E+00  0.45593999997E+02  0.45594000000E+02  0.51100000000E-03 0. -1.
         11   -1    0    0    0    0 -0.00000000000E+00 -0.00000000000E+00 -0.45593999997E+02  0.45594000000E+02  0.51100000000E-03 0.  1.
    9900012    2    1    2    0    0 -0.10682261825E+02  0.15007988356E+02  0.33653924310E+01  0.72461646953E+02  0.70000099862E+02 0.  0.
        -12    1    1    2    0    0  0.10682261825E+02 -0.15007988356E+02 -0.33653924310E+01  0.18726353047E+02  0.00000000000E+00 0.  1.
         11    1    3    3    0    0  0.28011750661E+01  0.40323169673E+00 -0.48887482610E+01  0.56488084914E+01  0.51100000000E-03 0. -1.
        -11    1    3    3    0    0 -0.69519343479E+01  0.11289692682E+02 -0.27386633714E+02  0.30427196034E+02  0.51100000000E-03 0.  1.
         12    1    3    3    0    0 -0.65315025437E+01  0.33150639780E+01  0.35640774406E+02  0.36385642428E+02  0.00000000000E+00 0. -1.
</event>
<event>
 7    1  0.2604986E-013  0.7246155E+02  0.7816164E-02  0.1226708E+00
        -11   -1    0    0    0    0  0.00000000000E+00  0.00000000000E+00  0.45593999997E+02  0.45594000000E+02  0.51100000000E-03 0.  1.
         11   -1    0    0    0    0 -0.00000000000E+00 -0.00000000000E+00 -0.45593999997E+02  0.45594000000E+02  0.51100000000E-03 0. -1.
    9900012    2    1    2    0    0 -0.66088141992E+01 -0.16931831766E+02  0.45073732562E+01  0.72461554375E+02  0.69999979262E+02 0.  0.
        -12    1    1    2    0    0  0.66088141992E+01  0.16931831766E+02 -0.45073732562E+01  0.18726445625E+02  0.00000000000E+00 0.  1.
         11    1    3    3    0    0  0.87370197309E+01  0.13921405380E+02 -0.31074008435E+01  0.16727133102E+02  0.51100000000E-03 0. -1.
        -11    1    3    3    0    0  0.56663603228E+01  0.86625287991E+01  0.27869558625E+01  0.10719802598E+02  0.51100000000E-03 0.  1.
        -12    1    3    3    0    0 -0.21012194253E+02 -0.39515765945E+02  0.48278182372E+01  0.45014618675E+02  0.00000000000E+00 0.  1.
</event>
<event>
 7    1  0.2604986E-013  0.7246161E+02  0.7816164E-02  0.1226708E+00
        -11   -1    0    0    0    0  0.00000000000E+00  0.00000000000E+00  0.45593999997E+02  0.45594000000E+02  0.51100000000E-03 0.  1.
         11   -1    0    0    0    0 -0.00000000000E+00 -0.00000000000E+00 -0.45593999997E+02  0.45594000000E+02  0.51100000000E-03 0. -1.
    9900012    2    1    2    0    0 -0.81555849891E+01  0.83647344356E+01 -0.14635411152E+02  0.72461611980E+02  0.70000054304E+02 0.  0.
        -12    1    1    2    0    0  0.81555849891E+01 -0.83647344356E+01  0.14635411152E+02  0.18726388020E+02  0.00000000000E+00 0.  1.
         11    1    3    3    0    0 -0.82081673593E+01 -0.17149084903E+01  0.67749592444E+01  0.10780305912E+02  0.51100000000E-03 0. -1.
        -11    1    3    3    0    0  0.14582886338E+02  0.20769974583E+02  0.84900851222E+01  0.26760679434E+02  0.51100000000E-03 0.  1.
         12    1    3    3    0    0 -0.14530303968E+02 -0.10690331657E+02 -0.29900455518E+02  0.34920626634E+02  0.00000000000E+00 0. -1.
</event>
<event>
 7    1  0.2604986E-013  0.7246169E+02  0.7816164E-02  0.1226708E+00
        -11   -1    0    0    0    0  0.00000000000E+00  0.00000000000E+00  0.45593999997E+02  0.45594000000E+02  0.51100000000E-03 0.  1.
         11   -1    0    0    0    0 -0.00000000000E+00 -0.00000000000E+00 -0.45593999997E+02  0.45594000000E+02  0.51100000000E-03 0. -1.
    9900012    2    1    2    0    0  0.17791493926E+02 -0.51922667987E+01 -0.26791321704E+01  0.72461691239E+02  0.70000157553E+02 0.  0.
        -12    1    1    2    0    0 -0.17791493926E+02  0.51922667987E+01  0.26791321704E+01  0.18726308761E+02  0.00000000000E+00 0.  1.
         11    1    3    3    0    0  0.47843045644E+01  0.29958237399E+02  0.69763646002E+01  0.31129651805E+02  0.51100000000E-03 0. -1.
        -11    1    3    3    0    0 -0.20933297239E+01 -0.11442830353E+02 -0.66001901869E-01  0.11632916760E+02  0.51100000000E-03 0.  1.
        -12    1    3    3    0    0  0.15100519085E+02 -0.23707673845E+02 -0.95894948687E+01  0.29699122674E+02  0.00000000000E+00 0.  1.
</event>
<event>
 7    1  0.2604986E-013  0.7246156E+02  0.7816164E-02  0.1226708E+00
        -11   -1    0    0    0    0  0.00000000000E+00  0.00000000000E+00  0.45593999997E+02  0.45594000000E+02  0.51100000000E-03 0. -1.
         11   -1    0    0    0    0 -0.00000000000E+00 -0.00000000000E+00 -0.45593999997E+02  0.45594000000E+02  0.51100000000E-03 0.  1.
    9900012    2    1    2    0    0  0.17875264865E+01  0.79172862070E+01  0.16876044546E+02  0.72461560100E+02  0.69999986720E+02 0.  0.
        -12    1    1    2    0    0 -0.17875264865E+01 -0.79172862070E+01 -0.16876044546E+02  0.18726439900E+02  0.00000000000E+00 0.  1.
         11    1    3    3    0    0 -0.71391514162E+01 -0.71266057798E+00 -0.19261843174E+01  0.74286980238E+01  0.51100000000E-03 0. -1.
        -11    1    3    3    0    0 -0.15125676556E+02  0.82110222909E+01 -0.15482935083E+02  0.23150124349E+02  0.51100000000E-03 0.  1.
         12    1    3    3    0    0  0.24052354459E+02  0.41892449409E+00  0.34285163946E+02  0.41882737727E+02  0.00000000000E+00 0. -1.
</event>
<event>
 7    1  0.2604986E-013  0.7246155E+02  0.7816164E-02  0.1226708E+00
        -11   -1    0    0    0    0  0.00000000000E+00  0.00000000000E+00  0.45593999997E+02  0.45594000000E+02  0.51100000000E-03 0. -1.
         11   -1    0    0    0    0 -0.00000000000E+00 -0.00000000000E+00 -0.45593999997E+02  0.45594000000E+02  0.51100000000E-03 0.  1.
    9900012    2    1    2    0    0  0.36512022350E+01  0.18361852327E+02  0.43701279541E+00  0.72461551356E+02  0.69999975329E+02 0.  0.
        -12    1    1    2    0    0 -0.36512022350E+01 -0.18361852327E+02 -0.43701279541E+00  0.18726448644E+02  0.00000000000E+00 0.  1.
         11    1    3    3    0    0 -0.24825669173E+01  0.22681261114E+01  0.36028503649E+00  0.33819136779E+01  0.51100000000E-03 0. -1.
        -11    1    3    3    0    0  0.59508971933E+01  0.37482254622E+02 -0.17120150619E+02  0.41634506680E+02  0.51100000000E-03 0.  1.
         12    1    3    3    0    0  0.18287195898E+00 -0.21388528407E+02  0.17196878378E+02  0.27445130998E+02  0.00000000000E+00 0. -1.
</event>
<event>
 7    1  0.2604986E-013  0.7246170E+02  0.7816164E-02  0.1226708E+00
        -11   -1    0    0    0    0  0.00000000000E+00  0.00000000000E+00  0.45593999997E+02  0.45594000000E+02  0.51100000000E-03 0. -1.
         11   -1    0    0    0    0 -0.00000000000E+00 -0.00000000000E+00 -0.45593999997E+02  0.45594000000E+02  0.51100000000E-03 0.  1.
    9900012    2    1    2    0    0 -0.38605272052E+01 -0.40199209571E+01  0.17877664569E+02  0.72461699638E+02  0.70000168494E+02 0.  0.
        -12    1    1    2    0    0  0.38605272052E+01  0.40199209571E+01 -0.17877664569E+02  0.18726300362E+02  0.00000000000E+00 0.  1.
         11    1    3    3    0    0 -0.59554591217E+00 -0.32527768800E+02  0.45418035554E+01  0.32848719881E+02  0.51100000000E-03 0. -1.
        -11    1    3    3    0    0  0.16764358880E+01  0.11898610653E+02  0.18023149527E+02  0.21661516381E+02  0.51100000000E-03 0.  1.
        -12    1    3    3    0    0 -0.49414171810E+01  0.16609237189E+02 -0.46872885131E+01  0.17951463377E+02  0.00000000000E+00 0.  1.
</event>
<event>
 7    1  0.2604986E-013  0.7246155E+02  0.7816164E-02  0.1226708E+00
        -11   -1    0    0    0    0  0.00000000000E+00  0.00000000000E+00  0.45593999997E+02  0.45594000000E+02  0.51100000000E-03 0.  1.
         11   -1    0    0    0    0 -0.00000000000E+00 -0.00000000000E+00 -0.45593999997E+02  0.45594000000E+02  0.51100000000E-03 0. -1.
    9900012    2    1    2    0    0 -0.11262309458E+02  0.63012431689E+01 -0.13569617268E+02  0.72461553658E+02  0.69999978329E+02 0.  0.
        -12    1    1    2    0    0  0.11262309458E+02 -0.63012431689E+01  0.13569617268E+02  0.18726446342E+02  0.00000000000E+00 0.  1.
         11    1    3    3    0    0 -0.46438112949E+01  0.55042900217E+01  0.25758483897E+01  0.76483453880E+01  0.51100000000E-03 0. -1.
        -11    1    3    3    0    0 -0.21247471157E+02 -0.22709355388E+02  0.28607122345E+01  0.31230650448E+02  0.51100000000E-03 0.  1.
         12    1    3    3    0    0  0.14628972994E+02  0.23506308535E+02 -0.19006177892E+02  0.33582557822E+02  0.00000000000E+00 0. -1.
</event>
<event>
 7    1  0.2604986E-013  0.7246157E+02  0.7816164E-02  0.1226708E+00
        -11   -1    0    0    0    0  0.00000000000E+00  0.00000000000E+00  0.45593999997E+02  0.45594000000E+02  0.51100000000E-03 0. -1.
         11   -1    0    0    0    0 -0.00000000000E+00 -0.00000000000E+00 -0.45593999997E+02  0.45594000000E+02  0.51100000000E-03 0.  1.
    9900012    2    1    2    0    0  0.11935308320E+02 -0.10969609734E+02  0.93752566206E+01  0.72461565232E+02  0.69999993406E+02 0.  0.
        -12    1    1    2    0    0 -0.11935308320E+02  0.10969609734E+02 -0.93752566206E+01  0.18726434768E+02  0.00000000000E+00 0.  1.
         11    1    3    3    0    0 -0.13796532105E+01 -0.21500118500E+02  0.12398744736E+02  0.24857341165E+02  0.51100000000E-03 0. -1.
        -11    1    3    3    0    0  0.27874246740E+02  0.72578650238E+01  0.69819999820E+01  0.29637789392E+02  0.51100000000E-03 0.  1.
         12    1    3    3    0    0 -0.14559285209E+02  0.32726437429E+01 -0.10005488097E+02  0.17966434675E+02  0.00000000000E+00 0. -1.
</event>
<event>
 7    1  0.2604986E-013  0.7246152E+02  0.7816164E-02  0.1226708E+00
        -11   -1    0    0    0    0  0.00000000000E+00  0.00000000000E+00  0.45593999997E+02  0.45594000000E+02  0.51100000000E-03 0. -1.
         11   -1    0    0    0    0 -0.00000000000E+00 -0.00000000000E+00 -0.45593999997E+02  0.45594000000E+02  0.51100000000E-03 0.  1.
    9900012    2    1    2    0    0 -0.10701148818E+02  0.13800431218E+02  0.67612685416E+01  0.72461515009E+02  0.69999927981E+02 0.  0.
        -12    1    1    2    0    0  0.10701148818E+02 -0.13800431218E+02 -0.67612685416E+01  0.18726484991E+02  0.00000000000E+00 0.  1.
         11    1    3    3    0    0  0.47560366243E+01  0.24442192788E+02 -0.14919004489E+02  0.29027872258E+02  0.51100000000E-03 0.  1.
        -11    1    3    3    0    0  0.10288205375E+02 -0.36552133804E+01  0.72260954813E+01  0.13092906891E+02  0.51100000000E-03 0. -1.
         12    1    3    3    0    0 -0.25745390817E+02 -0.69865481892E+01  0.14454177549E+02  0.30340735860E+02  0.00000000000E+00 0. -1.
</event>
<event>
 7    1  0.2604986E-013  0.7246163E+02  0.7816164E-02  0.1226708E+00
        -11   -1    0    0    0    0  0.00000000000E+00  0.00000000000E+00  0.45593999997E+02  0.45594000000E+02  0.51100000000E-03 0. -1.
         11   -1    0    0    0    0 -0.00000000000E+00 -0.00000000000E+00 -0.45593999997E+02  0.45594000000E+02  0.51100000000E-03 0.  1.
    9900012    2    1    2    0    0 -0.20196340912E+00  0.49209284598E+01  0.18067117907E+02  0.72461626203E+02  0.70000072831E+02 0.  0.
        -12    1    1    2    0    0  0.20196340912E+00 -0.49209284598E+01 -0.18067117907E+02  0.18726373797E+02  0.00000000000E+00 0.  1.
         11    1    3    3    0    0 -0.69873458851E+01  0.40294452899E+00  0.62058740902E+00  0.70264141499E+01  0.51100000000E-03 0. -1.
        -11    1    3    3    0    0  0.22994789483E+00 -0.26068772524E+02 -0.54954615491E+01  0.26642707724E+02  0.51100000000E-03 0.  1.
         12    1    3    3    0    0  0.65554345812E+01  0.30586756455E+02  0.22941992047E+02  0.38792504329E+02  0.00000000000E+00 0. -1.
</event>
<event>
 7    1  0.2604986E-013  0.7246157E+02  0.7816164E-02  0.1226708E+00
        -11   -1    0    0    0    0  0.00000000000E+00  0.00000000000E+00  0.45593999997E+02  0.45594000000E+02  0.51100000000E-03 0.  1.
         11   -1    0    0    0    0 -0.00000000000E+00 -0.00000000000E+00 -0.45593999997E+02  0.45594000000E+02  0.51100000000E-03 0. -1.
    9900012    2    1    2    0    0 -0.16846511089E+02 -0.25006329295E+01 -0.77859443688E+01  0.72461574003E+02  0.70000004831E+02 0.  0.
        -12    1    1    2    0    0  0.16846511089E+02  0.25006329295E+01  0.77859443688E+01  0.18726425997E+02  0.00000000000E+00 0.  1.
         11    1    3    3    0    0  0.64840542866E+01 -0.83322814267E+01 -0.10828266023E+02  0.15123531965E+02  0.51100000000E-03 0. -1.
        -11    1    3    3    0    0 -0.81355385779E+01 -0.62130032821E+01 -0.22822055158E+02  0.25012688772E+02  0.51100000000E-03 0.  1.
        -12    1    3    3    0    0 -0.15195026797E+02  0.12044651779E+02  0.25864376812E+02  0.32325353266E+02  0.00000000000E+00 0.  1.
</event>
<event>
 7    1  0.2604986E-013  0.7246163E+02  0.7816164E-02  0.1226708E+00
        -11   -1    0    0    0    0  0.00000000000E+00  0.00000000000E+00  0.45593999997E+02  0.45594000000E+02  0.51100000000E-03 0.  1.
         11   -1    0    0    0    0 -0.00000000000E+00 -0.00000000000E+00 -0.45593999997E+02  0.45594000000E+02  0.51100000000E-03 0. -1.
    9900012    2    1    2    0    0  0.14704033054E+02 -0.59287290411E+01 -0.99658584065E+01  0.72461634899E+02  0.70000084160E+02 0.  0.
        -12    1    1    2    0    0 -0.14704033054E+02  0.59287290411E+01  0.99658584065E+01  0.18726365101E+02  0.00000000000E+00 0.  1.
         11    1    3    3    0    0 -0.11176125237E+00 -0.10176295458E+02 -0.84014308683E+01  0.13196723863E+02  0.51100000000E-03 0. -1.
        -11    1    3    3    0    0 -0.17596470375E+01 -0.23106683102E+02 -0.11368072056E+02  0.25811784600E+02  0.51100000000E-03 0.  1.
        -12    1    3    3    0    0  0.16575441344E+02  0.27354249520E+02  0.98036445176E+01  0.33453126436E+02  0.00000000000E+00 0.  1.
</event>
<event>
 7    1  0.2604986E-013  0.7246157E+02  0.7816164E-02  0.1226708E+00
        -11   -1    0    0    0    0  0.00000000000E+00  0.00000000000E+00  0.45593999997E+02  0.45594000000E+02  0.51100000000E-03 0.  1.
         11   -1    0    0    0    0 -0.00000000000E+00 -0.00000000000E+00 -0.45593999997E+02  0.45594000000E+02  0.51100000000E-03 0. -1.
    9900012    2    1    2    0    0  0.11588357071E+02 -0.47966200156E+01 -0.13906172084E+02  0.72461569342E+02  0.69999998759E+02 0.  0.
        -12    1    1    2    0    0 -0.11588357071E+02  0.47966200156E+01  0.13906172084E+02  0.18726430658E+02  0.00000000000E+00 0.  1.
         11    1    3    3    0    0  0.23091854537E+02 -0.67549116779E+01 -0.15439929420E+02  0.28587654652E+02  0.51100000000E-03 0. -1.
        -11    1    3    3    0    0  0.94032608433E+01 -0.12579310774E+02  0.79653704368E+01  0.17609869406E+02  0.51100000000E-03 0.  1.
        -12    1    3    3    0    0 -0.20906758309E+02  0.14537602436E+02 -0.64316131004E+01  0.26264045284E+02  0.00000000000E+00 0.  1.
</event>
<event>
 7    1  0.2604986E-013  0.7246155E+02  0.7816164E-02  0.1226708E+00
        -11   -1    0    0    0    0  0.00000000000E+00  0.00000000000E+00  0.45593999997E+02  0.45594000000E+02  0.51100000000E-03 0.  1.
         11   -1    0    0    0    0 -0.00000000000E+00 -0.00000000000E+00 -0.45593999997E+02  0.45594000000E+02  0.51100000000E-03 0. -1.
    9900012    2    1    2    0    0  0.24827949657E+01  0.17668856619E+02  0.56857009458E+01  0.72461549180E+02  0.69999972495E+02 0.  0.
        -12    1    1    2    0    0 -0.24827949657E+01 -0.17668856619E+02 -0.56857009458E+01  0.18726450820E+02  0.00000000000E+00 0.  1.
         11    1    3    3    0    0 -0.90103444040E+01  0.14325535843E+02 -0.15390368942E+02  0.22875111801E+02  0.51100000000E-03 0. -1.
        -11    1    3    3    0    0 -0.14792503718E+02 -0.22643241088E+01  0.16581852134E+02  0.22336140006E+02  0.51100000000E-03 0.  1.
         12    1    3    3    0    0  0.26285643088E+02  0.56076448850E+01  0.44942177531E+01  0.27250297373E+02  0.00000000000E+00 0. -1.
</event>
<event>
 7    1  0.2604986E-013  0.7246147E+02  0.7816164E-02  0.1226708E+00
        -11   -1    0    0    0    0  0.00000000000E+00  0.00000000000E+00  0.45593999997E+02  0.45594000000E+02  0.51100000000E-03 0. -1.
         11   -1    0    0    0    0 -0.00000000000E+00 -0.00000000000E+00 -0.45593999997E+02  0.45594000000E+02  0.51100000000E-03 0.  1.
    9900012    2    1    2    0    0  0.46461588439E+01 -0.47024626782E+01  0.17520934886E+02  0.72461465176E+02  0.69999863064E+02 0.  0.
        -12    1    1    2    0    0 -0.46461588439E+01  0.47024626782E+01 -0.17520934886E+02  0.18726534824E+02  0.00000000000E+00 0.  1.
         11    1    3    3    0    0  0.16547637782E+02 -0.46829419709E+00  0.27168260186E+02  0.31814430333E+02  0.51100000000E-03 0. -1.
        -11    1    3    3    0    0  0.41557000570E+01 -0.17592705053E+02 -0.77680748440E+01  0.19675266227E+02  0.51100000000E-03 0.  1.
        -12    1    3    3    0    0 -0.16057178995E+02  0.13358536572E+02 -0.18792504562E+01  0.20971768616E+02  0.00000000000E+00 0.  1.
</event>
<event>
 7    1  0.2604986E-013  0.7246157E+02  0.7816164E-02  0.1226708E+00
        -11   -1    0    0    0    0  0.00000000000E+00  0.00000000000E+00  0.45593999997E+02  0.45594000000E+02  0.51100000000E-03 0. -1.
         11   -1    0    0    0    0 -0.00000000000E+00 -0.00000000000E+00 -0.45593999997E+02  0.45594000000E+02  0.51100000000E-03 0.  1.
    9900012    2    1    2    0    0 -0.45130002223E+01  0.14011481943E+02  0.11575419527E+02  0.72461571230E+02  0.70000001219E+02 0.  0.
        -12    1    1    2    0    0  0.45130002223E+01 -0.14011481943E+02 -0.11575419527E+02  0.18726428770E+02  0.00000000000E+00 0.  1.
         11    1    3    3    0    0  0.18261554568E+01  0.12607907939E+02 -0.90487477980E+01  0.15626068710E+02  0.51100000000E-03 0. -1.
        -11    1    3    3    0    0 -0.31470837741E+00  0.13127815124E+02 -0.14354947883E+02  0.19455156136E+02  0.51100000000E-03 0.  1.
         12    1    3    3    0    0 -0.60244473017E+01 -0.11724241119E+02  0.34979115208E+02  0.37380346384E+02  0.00000000000E+00 0. -1.
</event>
<event>
 7    1  0.2604986E-013  0.7246143E+02  0.7816164E-02  0.1226708E+00
        -11   -1    0    0    0    0  0.00000000000E+00  0.00000000000E+00  0.45593999997E+02  0.45594000000E+02  0.51100000000E-03 0. -1.
         11   -1    0    0    0    0 -0.00000000000E+00 -0.00000000000E+00 -0.45593999997E+02  0.45594000000E+02  0.51100000000E-03 0.  1.
    9900012    2    1    2    0    0  0.67653307594E+01  0.73145560888E+01  0.15855972743E+02  0.72461433238E+02  0.69999821458E+02 0.  0.
        -12    1    1    2    0    0 -0.67653307594E+01 -0.73145560888E+01 -0.15855972743E+02  0.18726566762E+02  0.00000000000E+00 0.  1.
         11    1    3    3    0    0  0.12204201311E+02  0.14967127047E+02 -0.49161625166E+01  0.19928022376E+02  0.51100000000E-03 0.  1.
        -11    1    3    3    0    0  0.52049126927E+01  0.12494123688E+02  0.25858968111E+02  0.29186991536E+02  0.51100000000E-03 0. -1.
         12    1    3    3    0    0 -0.10643783244E+02 -0.20146694646E+02 -0.50868328513E+01  0.23346419326E+02  0.00000000000E+00 0. -1.
</event>
<event>
 7    1  0.2604986E-013  0.7246158E+02  0.7816164E-02  0.1226708E+00
        -11   -1    0    0    0    0  0.00000000000E+00  0.00000000000E+00  0.45593999997E+02  0.45594000000E+02  0.51100000000E-03 0.  1.
         11   -1    0    0    0    0 -0.00000000000E+00 -0.00000000000E+00 -0.45593999997E+02  0.45594000000E+02  0.51100000000E-03 0. -1.
    9900012    2    1    2    0    0  0.17590257429E+02  0.14072348238E+01 -0.62674745206E+01  0.72461582747E+02  0.70000016222E+02 0.  0.
        -12    1    1    2    0    0 -0.17590257429E+02 -0.14072348238E+01  0.62674745206E+01  0.18726417253E+02  0.00000000000E+00 0.  1.
         11    1    3    3    0    0 -0.85419048197E+01 -0.12744177702E+01 -0.87524187914E+01  0.12296060896E+02  0.51100000000E-03 0. -1.
        -11    1    3    3    0    0  0.28173740602E+01 -0.22307845001E+02  0.10870677741E+02  0.24974971071E+02  0.51100000000E-03 0.  1.
         12    1    3    3    0    0  0.23314788188E+02  0.24989497595E+02 -0.83857334704E+01  0.35190550780E+02  0.00000000000E+00 0. -1.
</event>
<event>
 7    1  0.2604986E-013  0.7246125E+02  0.7816164E-02  0.1226709E+00
        -11   -1    0    0    0    0  0.00000000000E+00  0.00000000000E+00  0.45593999997E+02  0.45594000000E+02  0.51100000000E-03 0. -1.
         11   -1    0    0    0    0 -0.00000000000E+00 -0.00000000000E+00 -0.45593999997E+02  0.45594000000E+02  0.51100000000E-03 0.  1.
    9900012    2    1    2    0    0 -0.60758082082E+01 -0.29002859014E+01  0.17474667065E+02  0.72461251945E+02  0.69999585290E+02 0.  0.
        -12    1    1    2    0    0  0.60758082082E+01  0.29002859014E+01 -0.17474667065E+02  0.18726748055E+02  0.00000000000E+00 0.  1.
         11    1    3    3    0    0  0.94891683293E+01 -0.26510215769E+00 -0.92470803806E+01  0.13252286239E+02  0.51100000000E-03 0. -1.
        -11    1    3    3    0    0  0.67553913141E+01  0.21944831206E+01 -0.12179802402E+02  0.14099597682E+02  0.51100000000E-03 0.  1.
         12    1    3    3    0    0 -0.22320367852E+02 -0.48296668644E+01  0.38901549847E+02  0.45109368024E+02  0.00000000000E+00 0. -1.
</event>
<event>
 7    1  0.2604986E-013  0.7246156E+02  0.7816164E-02  0.1226708E+00
        -11   -1    0    0    0    0  0.00000000000E+00  0.00000000000E+00  0.45593999997E+02  0.45594000000E+02  0.51100000000E-03 0.  1.
         11   -1    0    0    0    0 -0.00000000000E+00 -0.00000000000E+00 -0.45593999997E+02  0.45594000000E+02  0.51100000000E-03 0. -1.
    9900012    2    1    2    0    0  0.18103088773E+02 -0.46751500296E+01 -0.10490605565E+01  0.72461564702E+02  0.69999992715E+02 0.  0.
        -12    1    1    2    0    0 -0.18103088773E+02  0.46751500296E+01  0.10490605565E+01  0.18726435298E+02  0.00000000000E+00 0.  1.
         11    1    3    3    0    0  0.82117427418E+01 -0.28008479766E+02 -0.41002311838E+01  0.29474048817E+02  0.51100000000E-03 0. -1.
        -11    1    3    3    0    0  0.82928883356E+01 -0.79707429579E+01  0.85765535615E-01  0.11502699519E+02  0.51100000000E-03 0.  1.
        -12    1    3    3    0    0  0.15984576951E+01  0.31304072694E+02  0.29654050916E+01  0.31484816366E+02  0.00000000000E+00 0.  1.
</event>
<event>
 7    1  0.2604986E-013  0.7246158E+02  0.7816164E-02  0.1226708E+00
        -11   -1    0    0    0    0  0.00000000000E+00  0.00000000000E+00  0.45593999997E+02  0.45594000000E+02  0.51100000000E-03 0.  1.
         11   -1    0    0    0    0 -0.00000000000E+00 -0.00000000000E+00 -0.45593999997E+02  0.45594000000E+02  0.51100000000E-03 0. -1.
    9900012    2    1    2    0    0 -0.54878933387E+01 -0.63723870817E+01 -0.16731844702E+02  0.72461577022E+02  0.70000008764E+02 0.  0.
        -12    1    1    2    0    0  0.54878933387E+01  0.63723870817E+01  0.16731844702E+02  0.18726422978E+02  0.00000000000E+00 0.  1.
         11    1    3    3    0    0  0.10171995920E+02 -0.52278510443E+01 -0.23037027704E+02  0.25719731205E+02  0.51100000000E-03 0. -1.
        -11    1    3    3    0    0  0.53033137794E+00 -0.19594878138E+02  0.98548070818E+01  0.21939866078E+02  0.51100000000E-03 0.  1.
        -12    1    3    3    0    0 -0.16190220636E+02  0.18450342101E+02 -0.35496240799E+01  0.24801979739E+02  0.00000000000E+00 0.  1.
</event>
<event>
 7    1  0.2604986E-013  0.7246155E+02  0.7816164E-02  0.1226708E+00
        -11   -1    0    0    0    0  0.00000000000E+00  0.00000000000E+00  0.45593999997E+02  0.45594000000E+02  0.51100000000E-03 0.  1.
         11   -1    0    0    0    0 -0.00000000000E+00 -0.00000000000E+00 -0.45593999997E+02  0.45594000000E+02  0.51100000000E-03 0. -1.
    9900012    2    1    2    0    0  0.10784318760E+02  0.35735072432E+00 -0.15305247945E+02  0.72461552251E+02  0.69999976495E+02 0.  0.
        -12    1    1    2    0    0 -0.10784318760E+02 -0.35735072432E+00  0.15305247945E+02  0.18726447749E+02  0.00000000000E+00 0.  1.
         11    1    3    3    0    0  0.44527258734E+00 -0.22885046049E+02  0.58605817930E+01  0.23627738350E+02  0.51100000000E-03 0. -1.
        -11    1    3    3    0    0  0.92969554271E+01 -0.60934489823E+01  0.21800973204E+01  0.11327679608E+02  0.51100000000E-03 0.  1.
        -12    1    3    3    0    0  0.10420907454E+01  0.29335845756E+02 -0.23345927058E+02  0.37506134292E+02  0.00000000000E+00 0.  1.
</event>
<event>
 7    1  0.2604986E-013  0.7246159E+02  0.7816164E-02  0.1226708E+00
        -11   -1    0    0    0    0  0.00000000000E+00  0.00000000000E+00  0.45593999997E+02  0.45594000000E+02  0.51100000000E-03 0.  1.
         11   -1    0    0    0    0 -0.00000000000E+00 -0.00000000000E+00 -0.45593999997E+02  0.45594000000E+02  0.51100000000E-03 0. -1.
    9900012    2    1    2    0    0  0.94612171786E+01 -0.14347789633E+02 -0.74367119614E+01  0.72461591304E+02  0.70000027369E+02 0.  0.
        -12    1    1    2    0    0 -0.94612171786E+01  0.14347789633E+02  0.74367119614E+01  0.18726408696E+02  0.00000000000E+00 0.  1.
         11    1    3    3    0    0  0.15690387141E+02 -0.19080583296E+02 -0.80401557976E+01  0.25978857039E+02  0.51100000000E-03 0. -1.
        -11    1    3    3    0    0 -0.16786682209E+02  0.19605401129E+02 -0.69688768399E+01  0.26734429070E+02  0.51100000000E-03 0.  1.
         12    1    3    3    0    0  0.10557512246E+02 -0.14872607466E+02  0.75723206761E+01  0.19748305195E+02  0.00000000000E+00 0. -1.
</event>
<event>
 7    1  0.2604986E-013  0.7246159E+02  0.7816164E-02  0.1226708E+00
        -11   -1    0    0    0    0  0.00000000000E+00  0.00000000000E+00  0.45593999997E+02  0.45594000000E+02  0.51100000000E-03 0. -1.
         11   -1    0    0    0    0 -0.00000000000E+00 -0.00000000000E+00 -0.45593999997E+02  0.45594000000E+02  0.51100000000E-03 0.  1.
    9900012    2    1    2    0    0 -0.63893280495E+00 -0.86576558540E+01  0.16592620413E+02  0.72461593719E+02  0.70000030515E+02 0.  0.
        -12    1    1    2    0    0  0.63893280495E+00  0.86576558540E+01 -0.16592620413E+02  0.18726406281E+02  0.00000000000E+00 0.  1.
         11    1    3    3    0    0  0.44553525249E+01  0.11461108530E+02  0.23842322686E+02  0.26826545178E+02  0.51100000000E-03 0. -1.
        -11    1    3    3    0    0 -0.53939666744E+01  0.11825550942E+02 -0.64441996629E+00  0.13013600920E+02  0.51100000000E-03 0.  1.
        -12    1    3    3    0    0  0.29968134450E+00 -0.31944315326E+02 -0.66052823065E+01  0.32621447621E+02  0.00000000000E+00 0.  1.
</event>
<event>
 7    1  0.2604986E-013  0.7246158E+02  0.7816164E-02  0.1226708E+00
        -11   -1    0    0    0    0  0.00000000000E+00  0.00000000000E+00  0.45593999997E+02  0.45594000000E+02  0.51100000000E-03 0. -1.
         11   -1    0    0    0    0 -0.00000000000E+00 -0.00000000000E+00 -0.45593999997E+02  0.45594000000E+02  0.51100000000E-03 0.  1.
    9900012    2    1    2    0    0  0.68868794016E+01  0.17042374297E+02 -0.35786905801E+01  0.72461584009E+02  0.70000017866E+02 0.  0.
        -12    1    1    2    0    0 -0.68868794016E+01 -0.17042374297E+02  0.35786905801E+01  0.18726415991E+02  0.00000000000E+00 0.  1.
         11    1    3    3    0    0 -0.11269565868E+02 -0.55032035589E+01  0.28387956549E+01  0.12858737313E+02  0.51100000000E-03 0. -1.
        -11    1    3    3    0    0  0.21076976880E+01  0.70767595657E+01 -0.27770510061E+02  0.28735416211E+02  0.51100000000E-03 0.  1.
         12    1    3    3    0    0  0.16048747581E+02  0.15468818291E+02  0.21353023826E+02  0.30867430485E+02  0.00000000000E+00 0. -1.
</event>
<event>
 7    1  0.2604986E-013  0.7246154E+02  0.7816164E-02  0.1226708E+00
        -11   -1    0    0    0    0  0.00000000000E+00  0.00000000000E+00  0.45593999997E+02  0.45594000000E+02  0.51100000000E-03 0. -1.
         11   -1    0    0    0    0 -0.00000000000E+00 -0.00000000000E+00 -0.45593999997E+02  0.45594000000E+02  0.51100000000E-03 0.  1.
    9900012    2    1    2    0    0  0.88936621542E+00 -0.15924835413E+02  0.98126972832E+01  0.72461537890E+02  0.69999957787E+02 0.  0.
        -12    1    1    2    0    0 -0.88936621542E+00  0.15924835413E+02 -0.98126972832E+01  0.18726462110E+02  0.00000000000E+00 0.  1.
         11    1    3    3    0    0  0.26980838405E+01  0.62077718116E+01  0.23399779249E+02  0.24359100075E+02  0.51100000000E-03 0. -1.
        -11    1    3    3    0    0  0.65316825307E+01 -0.24493721213E+02  0.65472185815E+01  0.26181507347E+02  0.51100000000E-03 0.  1.
        -12    1    3    3    0    0 -0.83404001558E+01  0.23611139884E+01 -0.20134300548E+02  0.21920930468E+02  0.00000000000E+00 0.  1.
</event>
<event>
 7    1  0.2604986E-013  0.7246155E+02  0.7816164E-02  0.1226708E+00
        -11   -1    0    0    0    0  0.00000000000E+00  0.00000000000E+00  0.45593999997E+02  0.45594000000E+02  0.51100000000E-03 0. -1.
         11   -1    0    0    0    0 -0.00000000000E+00 -0.00000000000E+00 -0.45593999997E+02  0.45594000000E+02  0.51100000000E-03 0.  1.
    9900012    2    1    2    0    0  0.52164250446E+01  0.16472998591E+02  0.72186590022E+01  0.72461553177E+02  0.69999977702E+02 0.  0.
        -12    1    1    2    0    0 -0.52164250446E+01 -0.16472998591E+02 -0.72186590022E+01  0.18726446823E+02  0.00000000000E+00 0.  1.
         11    1    3    3    0    0  0.57679665118E+01  0.70723320945E+01  0.69520988003E+01  0.11472532281E+02  0.51100000000E-03 0. -1.
        -11    1    3    3    0    0  0.15341622150E+01  0.34427053398E+02 -0.62981645932E+01  0.35032021593E+02  0.51100000000E-03 0.  1.
        -12    1    3    3    0    0 -0.20857036822E+01 -0.25026386902E+02  0.65647247951E+01  0.25956999304E+02  0.00000000000E+00 0.  1.
</event>
<event>
 7    1  0.2604986E-013  0.7246159E+02  0.7816164E-02  0.1226708E+00
        -11   -1    0    0    0    0  0.00000000000E+00  0.00000000000E+00  0.45593999997E+02  0.45594000000E+02  0.51100000000E-03 0.  1.
         11   -1    0    0    0    0 -0.00000000000E+00 -0.00000000000E+00 -0.45593999997E+02  0.45594000000E+02  0.51100000000E-03 0. -1.
    9900012    2    1    2    0    0 -0.93705455576E+01 -0.14926560292E+02  0.63300089370E+01  0.72461592460E+02  0.70000028875E+02 0.  0.
        -12    1    1    2    0    0  0.93705455576E+01  0.14926560292E+02 -0.63300089370E+01  0.18726407540E+02  0.00000000000E+00 0.  1.
         11    1    3    3    0    0  0.12176893028E+02  0.89490051136E+01 -0.13039432056E+02  0.19959664450E+02  0.51100000000E-03 0. -1.
        -11    1    3    3    0    0 -0.23892403855E+02 -0.18946542727E+01  0.18677234200E+02  0.30385453007E+02  0.51100000000E-03 0.  1.
        -12    1    3    3    0    0  0.23449652700E+01 -0.21980911133E+02  0.69220679346E+00  0.22116475004E+02  0.00000000000E+00 0.  1.
</event>
<event>
 7    1  0.2604986E-013  0.7246155E+02  0.7816164E-02  0.1226708E+00
        -11   -1    0    0    0    0  0.00000000000E+00  0.00000000000E+00  0.45593999997E+02  0.45594000000E+02  0.51100000000E-03 0. -1.
         11   -1    0    0    0    0 -0.00000000000E+00 -0.00000000000E+00 -0.45593999997E+02  0.45594000000E+02  0.51100000000E-03 0.  1.
    9900012    2    1    2    0    0  0.63052543706E+01  0.92920327425E+01  0.14986051114E+02  0.72461552575E+02  0.69999976917E+02 0.  0.
        -12    1    1    2    0    0 -0.63052543706E+01 -0.92920327425E+01 -0.14986051114E+02  0.18726447425E+02  0.00000000000E+00 0.  1.
         11    1    3    3    0    0 -0.30268821850E+01  0.21098183616E+02  0.10345080241E+02  0.23692109512E+02  0.51100000000E-03 0. -1.
        -11    1    3    3    0    0  0.10924675036E+02  0.15823023643E+02 -0.42676005944E+01  0.19695913712E+02  0.51100000000E-03 0.  1.
         12    1    3    3    0    0 -0.15925384809E+01 -0.27629174517E+02  0.89085714678E+01  0.29073529351E+02  0.00000000000E+00 0. -1.
</event>
<event>
 7    1  0.2604986E-013  0.7246157E+02  0.7816164E-02  0.1226708E+00
        -11   -1    0    0    0    0  0.00000000000E+00  0.00000000000E+00  0.45593999997E+02  0.45594000000E+02  0.51100000000E-03 0. -1.
         11   -1    0    0    0    0 -0.00000000000E+00 -0.00000000000E+00 -0.45593999997E+02  0.45594000000E+02  0.51100000000E-03 0.  1.
    9900012    2    1    2    0    0 -0.29107225477E+01 -0.49582687847E+01  0.17821965080E+02  0.72461570164E+02  0.69999999830E+02 0.  0.
        -12    1    1    2    0    0  0.29107225477E+01  0.49582687847E+01 -0.17821965080E+02  0.18726429836E+02  0.00000000000E+00 0.  1.
         11    1    3    3    0    0  0.22210830097E+02 -0.12284451898E+02  0.69567962210E+01  0.26317783834E+02  0.51100000000E-03 0. -1.
        -11    1    3    3    0    0  0.45294876887E+00  0.61045314221E+01 -0.10924968196E+02  0.12522994722E+02  0.51100000000E-03 0.  1.
         12    1    3    3    0    0 -0.25574501414E+02  0.12216516908E+01  0.21790137055E+02  0.33620791607E+02  0.00000000000E+00 0. -1.
</event>
<event>
 7    1  0.2604986E-013  0.7246159E+02  0.7816164E-02  0.1226708E+00
        -11   -1    0    0    0    0  0.00000000000E+00  0.00000000000E+00  0.45593999997E+02  0.45594000000E+02  0.51100000000E-03 0.  1.
         11   -1    0    0    0    0 -0.00000000000E+00 -0.00000000000E+00 -0.45593999997E+02  0.45594000000E+02  0.51100000000E-03 0. -1.
    9900012    2    1    2    0    0 -0.94969581584E+01 -0.10128370453E+02 -0.12565915590E+02  0.72461592525E+02  0.70000028960E+02 0.  0.
        -12    1    1    2    0    0  0.94969581584E+01  0.10128370453E+02  0.12565915590E+02  0.18726407475E+02  0.00000000000E+00 0.  1.
         11    1    3    3    0    0  0.76449966205E+00  0.15755305987E+01  0.16579849810E+01  0.24115702062E+01  0.51100000000E-03 0. -1.
        -11    1    3    3    0    0  0.16396103693E+02  0.28959996174E+01  0.18837353097E+02  0.25140900980E+02  0.51100000000E-03 0.  1.
         12    1    3    3    0    0 -0.26657561514E+02 -0.14599900669E+02 -0.33061253668E+02  0.44909121340E+02  0.00000000000E+00 0. -1.
</event>
<event>
 7    1  0.2604986E-013  0.7246162E+02  0.7816164E-02  0.1226708E+00
        -11   -1    0    0    0    0  0.00000000000E+00  0.00000000000E+00  0.45593999997E+02  0.45594000000E+02  0.51100000000E-03 0. -1.
         11   -1    0    0    0    0 -0.00000000000E+00 -0.00000000000E+00 -0.45593999997E+02  0.45594000000E+02  0.51100000000E-03 0.  1.
    9900012    2    1    2    0    0  0.89592358819E-01 -0.18695557633E+02  0.10702723948E+01  0.72461617942E+02  0.70000062070E+02 0.  0.
        -12    1    1    2    0    0 -0.89592358819E-01  0.18695557633E+02 -0.10702723948E+01  0.18726382058E+02  0.00000000000E+00 0.  1.
         11    1    3    3    0    0  0.54705781958E+01 -0.22009119269E+02  0.23886688300E+02  0.32937857171E+02  0.51100000000E-03 0. -1.
        -11    1    3    3    0    0 -0.28481571519E+01 -0.13772278403E+02 -0.15009833870E+02  0.20568975780E+02  0.51100000000E-03 0.  1.
        -12    1    3    3    0    0 -0.25328286851E+01  0.17085840039E+02 -0.78065820354E+01  0.18954784991E+02  0.00000000000E+00 0.  1.
</event>
<event>
 7    1  0.2604986E-013  0.7246161E+02  0.7816164E-02  0.1226708E+00
        -11   -1    0    0    0    0  0.00000000000E+00  0.00000000000E+00  0.45593999997E+02  0.45594000000E+02  0.51100000000E-03 0. -1.
         11   -1    0    0    0    0 -0.00000000000E+00 -0.00000000000E+00 -0.45593999997E+02  0.45594000000E+02  0.51100000000E-03 0.  1.
    9900012    2    1    2    0    0 -0.14589918371E+01  0.14960764164E+01 -0.18609426354E+02  0.72461610838E+02  0.70000052815E+02 0.  0.
        -12    1    1    2    0    0  0.14589918371E+01 -0.14960764164E+01  0.18609426354E+02  0.18726389162E+02  0.00000000000E+00 0.  1.
         11    1    3    3    0    0 -0.42269398530E+00  0.52326250848E+01 -0.82020657375E+01  0.97382194526E+01  0.51100000000E-03 0. -1.
        -11    1    3    3    0    0 -0.46563612661E+01  0.59757889445E+01 -0.35118578772E+02  0.35926401559E+02  0.51100000000E-03 0.  1.
         12    1    3    3    0    0  0.36200634143E+01 -0.97123376129E+01  0.24711218155E+02  0.26796989826E+02  0.00000000000E+00 0. -1.
</event>
<event>
 7    1  0.2604986E-013  0.7246147E+02  0.7816164E-02  0.1226708E+00
        -11   -1    0    0    0    0  0.00000000000E+00  0.00000000000E+00  0.45593999997E+02  0.45594000000E+02  0.51100000000E-03 0. -1.
         11   -1    0    0    0    0 -0.00000000000E+00 -0.00000000000E+00 -0.45593999997E+02  0.45594000000E+02  0.51100000000E-03 0.  1.
    9900012    2    1    2    0    0  0.39621810255E+01 -0.66724122237E+01  0.17042971310E+02  0.72461472441E+02  0.69999872527E+02 0.  0.
        -12    1    1    2    0    0 -0.39621810255E+01  0.66724122237E+01 -0.17042971310E+02  0.18726527559E+02  0.00000000000E+00 0.  1.
         11    1    3    3    0    0 -0.23534737578E+02  0.78623701612E+01 -0.53344999744E+01  0.25380260591E+02  0.51100000000E-03 0. -1.
        -11    1    3    3    0    0  0.45117327129E+01 -0.32355152683E+01 -0.64559650512E+01  0.85149149219E+01  0.51100000000E-03 0.  1.
         12    1    3    3    0    0  0.22985185891E+02 -0.11299267117E+02  0.28833436336E+02  0.38566296928E+02  0.00000000000E+00 0. -1.
</event>
<event>
 7    1  0.2604986E-013  0.7246156E+02  0.7816164E-02  0.1226708E+00
        -11   -1    0    0    0    0  0.00000000000E+00  0.00000000000E+00  0.45593999997E+02  0.45594000000E+02  0.51100000000E-03 0. -1.
         11   -1    0    0    0    0 -0.00000000000E+00 -0.00000000000E+00 -0.45593999997E+02  0.45594000000E+02  0.51100000000E-03 0.  1.
    9900012    2    1    2    0    0  0.14989895176E+00  0.14408537203E+02 -0.11960393063E+02  0.72461563707E+02  0.69999991419E+02 0.  0.
        -12    1    1    2    0    0 -0.14989895176E+00 -0.14408537203E+02  0.11960393063E+02  0.18726436293E+02  0.00000000000E+00 0.  1.
         11    1    3    3    0    0  0.97856509971E+01 -0.18322669693E+02  0.11564524670E+01  0.20804244103E+02  0.51100000000E-03 0. -1.
        -11    1    3    3    0    0  0.11121561119E+02  0.54214049293E-01 -0.44994055120E+01  0.11997362673E+02  0.51100000000E-03 0.  1.
        -12    1    3    3    0    0 -0.20757313165E+02  0.32676992847E+02 -0.86174400178E+01  0.39659956931E+02  0.00000000000E+00 0.  1.
</event>
<event>
 7    1  0.2604986E-013  0.7246155E+02  0.7816164E-02  0.1226708E+00
        -11   -1    0    0    0    0  0.00000000000E+00  0.00000000000E+00  0.45593999997E+02  0.45594000000E+02  0.51100000000E-03 0.  1.
         11   -1    0    0    0    0 -0.00000000000E+00 -0.00000000000E+00 -0.45593999997E+02  0.45594000000E+02  0.51100000000E-03 0. -1.
    9900012    2    1    2    0    0 -0.98954625391E+01 -0.14646815548E+01 -0.15830805467E+02  0.72461551521E+02  0.69999975544E+02 0.  0.
        -12    1    1    2    0    0  0.98954625391E+01  0.14646815548E+01  0.15830805467E+02  0.18726448479E+02  0.00000000000E+00 0.  1.
         11    1    3    3    0    0 -0.90115121841E+01 -0.19577310560E+02  0.59182439659E+01  0.22349587301E+02  0.51100000000E-03 0. -1.
        -11    1    3    3    0    0 -0.94650603937E+01 -0.58925154437E+01  0.58081668835E+01  0.12571551588E+02  0.51100000000E-03 0.  1.
        -12    1    3    3    0    0  0.85811100386E+01  0.24005144449E+02 -0.27557216316E+02  0.37540412632E+02  0.00000000000E+00 0.  1.
</event>
<event>
 7    1  0.2604986E-013  0.7246160E+02  0.7816164E-02  0.1226708E+00
        -11   -1    0    0    0    0  0.00000000000E+00  0.00000000000E+00  0.45593999997E+02  0.45594000000E+02  0.51100000000E-03 0.  1.
         11   -1    0    0    0    0 -0.00000000000E+00 -0.00000000000E+00 -0.45593999997E+02  0.45594000000E+02  0.51100000000E-03 0. -1.
    9900012    2    1    2    0    0 -0.91425061884E+01  0.70226184882E+01 -0.14757218988E+02  0.72461598795E+02  0.70000037127E+02 0.  0.
        -12    1    1    2    0    0  0.91425061884E+01 -0.70226184882E+01  0.14757218988E+02  0.18726401205E+02  0.00000000000E+00 0.  1.
         11    1    3    3    0    0  0.66735059671E+00 -0.50677626285E+01 -0.27912908204E+01  0.58239917224E+01  0.51100000000E-03 0. -1.
        -11    1    3    3    0    0  0.14414011173E+02 -0.12317838435E+01 -0.30223506969E+02  0.33507333277E+02  0.51100000000E-03 0.  1.
         12    1    3    3    0    0 -0.24223867958E+02  0.13322164960E+02  0.18257578802E+02  0.33130273796E+02  0.00000000000E+00 0. -1.
</event>
<event>
 7    1  0.2604986E-013  0.7246159E+02  0.7816164E-02  0.1226708E+00
        -11   -1    0    0    0    0  0.00000000000E+00  0.00000000000E+00  0.45593999997E+02  0.45594000000E+02  0.51100000000E-03 0. -1.
         11   -1    0    0    0    0 -0.00000000000E+00 -0.00000000000E+00 -0.45593999997E+02  0.45594000000E+02  0.51100000000E-03 0.  1.
    9900012    2    1    2    0    0  0.33517687290E+01 -0.15279500848E+00  0.18423371299E+02  0.72461593245E+02  0.70000029898E+02 0.  0.
        -12    1    1    2    0    0 -0.33517687290E+01  0.15279500848E+00 -0.18423371299E+02  0.18726406755E+02  0.00000000000E+00 0.  1.
         11    1    3    3    0    0  0.14090631749E+01  0.30941842914E+01  0.91930084356E+01  0.98015733338E+01  0.51100000000E-03 0. -1.
        -11    1    3    3    0    0  0.15436873108E+01  0.29162329740E+02  0.10031650352E+01  0.29220383070E+02  0.51100000000E-03 0.  1.
         12    1    3    3    0    0  0.39901824329E+00 -0.32409309040E+02  0.82271978281E+01  0.33439636842E+02  0.00000000000E+00 0. -1.
</event>
<event>
 7    1  0.2604986E-013  0.7246159E+02  0.7816164E-02  0.1226708E+00
        -11   -1    0    0    0    0  0.00000000000E+00  0.00000000000E+00  0.45593999997E+02  0.45594000000E+02  0.51100000000E-03 0. -1.
         11   -1    0    0    0    0 -0.00000000000E+00 -0.00000000000E+00 -0.45593999997E+02  0.45594000000E+02  0.51100000000E-03 0.  1.
    9900012    2    1    2    0    0  0.12582110584E+01 -0.33004255951E+01  0.18390284515E+02  0.72461589005E+02  0.70000024375E+02 0.  0.
        -12    1    1    2    0    0 -0.12582110584E+01  0.33004255951E+01 -0.18390284515E+02  0.18726410995E+02  0.00000000000E+00 0.  1.
         11    1    3    3    0    0  0.90877098335E+01 -0.12410522678E+01 -0.10881572575E+02  0.14231489828E+02  0.51100000000E-03 0. -1.
        -11    1    3    3    0    0 -0.14056019173E+02 -0.18776419669E+02 -0.57125815304E+00  0.23461712357E+02  0.51100000000E-03 0.  1.
         12    1    3    3    0    0  0.62265203983E+01  0.16717046342E+02  0.29843115244E+02  0.34768386821E+02  0.00000000000E+00 0. -1.
</event>
<event>
 7    1  0.2604986E-013  0.7246147E+02  0.7816164E-02  0.1226708E+00
        -11   -1    0    0    0    0  0.00000000000E+00  0.00000000000E+00  0.45593999997E+02  0.45594000000E+02  0.51100000000E-03 0.  1.
         11   -1    0    0    0    0 -0.00000000000E+00 -0.00000000000E+00 -0.45593999997E+02  0.45594000000E+02  0.51100000000E-03 0. -1.
    9900012    2    1    2    0    0  0.11463477446E+00  0.16787396975E+02 -0.82977835011E+01  0.72461466702E+02  0.69999865052E+02 0.  0.
        -12    1    1    2    0    0 -0.11463477446E+00 -0.16787396975E+02  0.82977835011E+01  0.18726533298E+02  0.00000000000E+00 0.  1.
         11    1    3    3    0    0  0.23344557946E+02  0.25940239493E+02  0.33200712293E+01  0.35055488641E+02  0.51100000000E-03 0. -1.
        -11    1    3    3    0    0 -0.85875882586E+01 -0.16113635518E+02 -0.15571677078E+01  0.18325411134E+02  0.51100000000E-03 0.  1.
        -12    1    3    3    0    0 -0.14642334913E+02  0.69607929994E+01 -0.10060687023E+02  0.19080566927E+02  0.00000000000E+00 0.  1.
</event>
<event>
 7    1  0.2604986E-013  0.7246154E+02  0.7816164E-02  0.1226708E+00
        -11   -1    0    0    0    0  0.00000000000E+00  0.00000000000E+00  0.45593999997E+02  0.45594000000E+02  0.51100000000E-03 0.  1.
         11   -1    0    0    0    0 -0.00000000000E+00 -0.00000000000E+00 -0.45593999997E+02  0.45594000000E+02  0.51100000000E-03 0. -1.
    9900012    2    1    2    0    0 -0.44758305039E+01 -0.11074475908E+02 -0.14422314595E+02  0.72461541883E+02  0.69999962989E+02 0.  0.
        -12    1    1    2    0    0  0.44758305039E+01  0.11074475908E+02  0.14422314595E+02  0.18726458117E+02  0.00000000000E+00 0.  1.
         11    1    3    3    0    0 -0.12205220552E+00 -0.40859755576E+01  0.49653825766E+01  0.64315719222E+01  0.51100000000E-03 0. -1.
        -11    1    3    3    0    0 -0.13062650516E+00 -0.31187852885E+02  0.48002041476E+01  0.31555367071E+02  0.51100000000E-03 0.  1.
         12    1    3    3    0    0 -0.42231517932E+01  0.24199352535E+02 -0.24187901319E+02  0.34474602890E+02  0.00000000000E+00 0. -1.
</event>
<event>
 7    1  0.2604986E-013  0.7246157E+02  0.7816164E-02  0.1226708E+00
        -11   -1    0    0    0    0  0.00000000000E+00  0.00000000000E+00  0.45593999997E+02  0.45594000000E+02  0.51100000000E-03 0. -1.
         11   -1    0    0    0    0 -0.00000000000E+00 -0.00000000000E+00 -0.45593999997E+02  0.45594000000E+02  0.51100000000E-03 0.  1.
    9900012    2    1    2    0    0  0.16053381036E+02  0.46351047517E+01  0.84548154385E+01  0.72461571007E+02  0.70000000928E+02 0.  0.
        -12    1    1    2    0    0 -0.16053381036E+02 -0.46351047517E+01 -0.84548154385E+01  0.18726428993E+02  0.00000000000E+00 0.  1.
         11    1    3    3    0    0  0.12054414387E+02 -0.38267994400E+01 -0.19912029138E+02  0.23589027212E+02  0.51100000000E-03 0. -1.
        -11    1    3    3    0    0  0.23941580069E+01  0.16379793754E+02 -0.26998631382E+01  0.16772563823E+02  0.51100000000E-03 0.  1.
         12    1    3    3    0    0  0.16048086419E+01 -0.79178895621E+01  0.31066707715E+02  0.32099979971E+02  0.00000000000E+00 0. -1.
</event>
<event>
 7    1  0.2604986E-013  0.7246155E+02  0.7816164E-02  0.1226708E+00
        -11   -1    0    0    0    0  0.00000000000E+00  0.00000000000E+00  0.45593999997E+02  0.45594000000E+02  0.51100000000E-03 0. -1.
         11   -1    0    0    0    0 -0.00000000000E+00 -0.00000000000E+00 -0.45593999997E+02  0.45594000000E+02  0.51100000000E-03 0.  1.
    9900012    2    1    2    0    0 -0.13882990346E+02 -0.10536501245E+02  0.68501604747E+01  0.72461548708E+02  0.69999971880E+02 0.  0.
        -12    1    1    2    0    0  0.13882990346E+02  0.10536501245E+02 -0.68501604747E+01  0.18726451292E+02  0.00000000000E+00 0.  1.
         11    1    3    3    0    0 -0.17566992004E+02 -0.88163264686E+01 -0.34417573767E+01  0.19954260562E+02  0.51100000000E-03 0. -1.
        -11    1    3    3    0    0 -0.22261652966E+02 -0.59408899448E+00 -0.43552265503E+01  0.22691455068E+02  0.51100000000E-03 0.  1.
         12    1    3    3    0    0  0.25945654624E+02 -0.11260857823E+01  0.14647144402E+02  0.29815833079E+02  0.00000000000E+00 0. -1.
</event>
<event>
 7    1  0.2604986E-013  0.7246156E+02  0.7816164E-02  0.1226708E+00
        -11   -1    0    0    0    0  0.00000000000E+00  0.00000000000E+00  0.45593999997E+02  0.45594000000E+02  0.51100000000E-03 0.  1.
         11   -1    0    0    0    0 -0.00000000000E+00 -0.00000000000E+00 -0.45593999997E+02  0.45594000000E+02  0.51100000000E-03 0. -1.
    9900012    2    1    2    0    0  0.74365361641E+01 -0.15599489996E+02 -0.72134135717E+01  0.72461561641E+02  0.69999988727E+02 0.  0.
        -12    1    1    2    0    0 -0.74365361641E+01  0.15599489996E+02  0.72134135717E+01  0.18726438359E+02  0.00000000000E+00 0.  1.
         11    1    3    3    0    0  0.17014200497E+02 -0.48012851929E+01  0.17991945777E+00  0.17679585100E+02  0.51100000000E-03 0. -1.
        -11    1    3    3    0    0  0.95442017446E+00 -0.19266357831E+02  0.17764790209E+02  0.26223867628E+02  0.51100000000E-03 0.  1.
         12    1    3    3    0    0 -0.10532084507E+02  0.84681530271E+01 -0.25158123239E+02  0.28558108912E+02  0.00000000000E+00 0. -1.
</event>
<event>
 7    1  0.2604986E-013  0.7246156E+02  0.7816164E-02  0.1226708E+00
        -11   -1    0    0    0    0  0.00000000000E+00  0.00000000000E+00  0.45593999997E+02  0.45594000000E+02  0.51100000000E-03 0.  1.
         11   -1    0    0    0    0 -0.00000000000E+00 -0.00000000000E+00 -0.45593999997E+02  0.45594000000E+02  0.51100000000E-03 0. -1.
    9900012    2    1    2    0    0 -0.69442937982E+01  0.38610255070E+01 -0.16957263741E+02  0.72461560725E+02  0.69999987534E+02 0.  0.
        -12    1    1    2    0    0  0.69442937982E+01 -0.38610255070E+01  0.16957263741E+02  0.18726439275E+02  0.00000000000E+00 0.  1.
         11    1    3    3    0    0  0.16422973437E+02  0.34965919934E+01 -0.47600669476E+01  0.17452749058E+02  0.51100000000E-03 0. -1.
        -11    1    3    3    0    0 -0.83260088896E+01  0.10877304198E+02  0.16189463560E+02  0.21207001232E+02  0.51100000000E-03 0.  1.
         12    1    3    3    0    0 -0.15041258346E+02 -0.10512870684E+02 -0.28386660353E+02  0.33801810435E+02  0.00000000000E+00 0. -1.
</event>
<event>
 7    1  0.2604986E-013  0.7246157E+02  0.7816164E-02  0.1226708E+00
        -11   -1    0    0    0    0  0.00000000000E+00  0.00000000000E+00  0.45593999997E+02  0.45594000000E+02  0.51100000000E-03 0.  1.
         11   -1    0    0    0    0 -0.00000000000E+00 -0.00000000000E+00 -0.45593999997E+02  0.45594000000E+02  0.51100000000E-03 0. -1.
    9900012    2    1    2    0    0  0.12150579124E+02  0.13914891347E+02 -0.30689584468E+01  0.72461567339E+02  0.69999996150E+02 0.  0.
        -12    1    1    2    0    0 -0.12150579124E+02 -0.13914891347E+02  0.30689584468E+01  0.18726432661E+02  0.00000000000E+00 0.  1.
         11    1    3    3    0    0 -0.11300902455E+02  0.12640889774E+02 -0.55344056574E+01  0.17836259048E+02  0.51100000000E-03 0. -1.
        -11    1    3    3    0    0  0.25160527993E+02  0.82175525332E+01  0.21622183249E+02  0.34177465489E+02  0.51100000000E-03 0.  1.
         12    1    3    3    0    0 -0.17090464141E+01 -0.69435509608E+01 -0.19156736039E+02  0.20447842802E+02  0.00000000000E+00 0. -1.
</event>
<event>
 7    1  0.2604986E-013  0.7246157E+02  0.7816164E-02  0.1226708E+00
        -11   -1    0    0    0    0  0.00000000000E+00  0.00000000000E+00  0.45593999997E+02  0.45594000000E+02  0.51100000000E-03 0.  1.
         11   -1    0    0    0    0 -0.00000000000E+00 -0.00000000000E+00 -0.45593999997E+02  0.45594000000E+02  0.51100000000E-03 0. -1.
    9900012    2    1    2    0    0  0.96447999663E+00  0.16086423316E+02 -0.95381290857E+01  0.72461570997E+02  0.70000000915E+02 0.  0.
        -12    1    1    2    0    0 -0.96447999663E+00 -0.16086423316E+02  0.95381290857E+01  0.18726429003E+02  0.00000000000E+00 0.  1.
         11    1    3    3    0    0 -0.48913567189E+01  0.93170324725E+00 -0.19727305755E+02  0.20346007818E+02  0.51100000000E-03 0. -1.
        -11    1    3    3    0    0  0.21531590991E+02  0.35569960500E+00 -0.89187721388E+01  0.23308376811E+02  0.51100000000E-03 0.  1.
        -12    1    3    3    0    0 -0.15675754276E+02  0.14799020464E+02  0.19107948808E+02  0.28807186368E+02  0.00000000000E+00 0.  1.
</event>
<event>
 7    1  0.2604986E-013  0.7246159E+02  0.7816164E-02  0.1226708E+00
        -11   -1    0    0    0    0  0.00000000000E+00  0.00000000000E+00  0.45593999997E+02  0.45594000000E+02  0.51100000000E-03 0. -1.
         11   -1    0    0    0    0 -0.00000000000E+00 -0.00000000000E+00 -0.45593999997E+02  0.45594000000E+02  0.51100000000E-03 0.  1.
    9900012    2    1    2    0    0 -0.17984465642E+02  0.28983739984E+01  0.43401647350E+01  0.72461585335E+02  0.70000019594E+02 0.  0.
        -12    1    1    2    0    0  0.17984465642E+02 -0.28983739984E+01 -0.43401647350E+01  0.18726414665E+02  0.00000000000E+00 0.  1.
         11    1    3    3    0    0  0.42971328033E+00 -0.25851606014E-01 -0.12495837395E+02  0.12503250548E+02  0.51100000000E-03 0. -1.
        -11    1    3    3    0    0 -0.32984521425E+02 -0.59463426239E+01 -0.31716689735E+01  0.33665963948E+02  0.51100000000E-03 0.  1.
         12    1    3    3    0    0  0.14570342503E+02  0.88705682283E+01  0.20007671104E+02  0.26292370839E+02  0.00000000000E+00 0. -1.
</event>
<event>
 7    1  0.2604986E-013  0.7246156E+02  0.7816164E-02  0.1226708E+00
        -11   -1    0    0    0    0  0.00000000000E+00  0.00000000000E+00  0.45593999997E+02  0.45594000000E+02  0.51100000000E-03 0.  1.
         11   -1    0    0    0    0 -0.00000000000E+00 -0.00000000000E+00 -0.45593999997E+02  0.45594000000E+02  0.51100000000E-03 0. -1.
    9900012    2    1    2    0    0  0.15369003467E+02 -0.97744340962E+01 -0.43512862734E+01  0.72461560891E+02  0.69999987751E+02 0.  0.
        -12    1    1    2    0    0 -0.15369003467E+02  0.97744340962E+01  0.43512862734E+01  0.18726439109E+02  0.00000000000E+00 0.  1.
         11    1    3    3    0    0  0.20906284702E+02 -0.32591719782E+01  0.21890274230E+01  0.21271736726E+02  0.51100000000E-03 0. -1.
        -11    1    3    3    0    0  0.39692111177E+01  0.97042740412E+01 -0.23586790582E+02  0.25812095262E+02  0.51100000000E-03 0.  1.
        -12    1    3    3    0    0 -0.95064923529E+01 -0.16219536159E+02  0.17046476886E+02  0.25377728904E+02  0.00000000000E+00 0.  1.
</event>
<event>
 7    1  0.2604986E-013  0.7246159E+02  0.7816164E-02  0.1226708E+00
        -11   -1    0    0    0    0  0.00000000000E+00  0.00000000000E+00  0.45593999997E+02  0.45594000000E+02  0.51100000000E-03 0.  1.
         11   -1    0    0    0    0 -0.00000000000E+00 -0.00000000000E+00 -0.45593999997E+02  0.45594000000E+02  0.51100000000E-03 0. -1.
    9900012    2    1    2    0    0 -0.13696433160E+02  0.11975557163E+02 -0.44353525339E+01  0.72461585427E+02  0.70000019713E+02 0.  0.
        -12    1    1    2    0    0  0.13696433160E+02 -0.11975557163E+02  0.44353525339E+01  0.18726414573E+02  0.00000000000E+00 0.  1.
         11    1    3    3    0    0 -0.25070294390E-01  0.12030288583E+02 -0.32386539781E+02  0.34548754408E+02  0.51100000000E-03 0. -1.
        -11    1    3    3    0    0  0.27608144149E+01 -0.21309578085E+01 -0.17527706406E+01  0.39032400125E+01  0.51100000000E-03 0.  1.
        -12    1    3    3    0    0 -0.16432177281E+02  0.20762263876E+01  0.29703957888E+02  0.34009591006E+02  0.00000000000E+00 0.  1.
</event>
<event>
 7    1  0.2604986E-013  0.7246151E+02  0.7816164E-02  0.1226708E+00
        -11   -1    0    0    0    0  0.00000000000E+00  0.00000000000E+00  0.45593999997E+02  0.45594000000E+02  0.51100000000E-03 0.  1.
         11   -1    0    0    0    0 -0.00000000000E+00 -0.00000000000E+00 -0.45593999997E+02  0.45594000000E+02  0.51100000000E-03 0. -1.
    9900012    2    1    2    0    0  0.15732745427E+02 -0.71369372401E+01  0.72267652686E+01  0.72461513728E+02  0.69999926312E+02 0.  0.
        -12    1    1    2    0    0 -0.15732745427E+02  0.71369372401E+01 -0.72267652686E+01  0.18726486272E+02  0.00000000000E+00 0.  1.
         11    1    3    3    0    0  0.16353870089E+02  0.16769897378E+02  0.14348713450E+02  0.27469330222E+02  0.51100000000E-03 0. -1.
        -11    1    3    3    0    0  0.10661486274E+02  0.57179971453E+01  0.13659749751E+01  0.12174919664E+02  0.51100000000E-03 0.  1.
        -12    1    3    3    0    0 -0.11282610936E+02 -0.29624831763E+02 -0.84879231561E+01  0.32817263841E+02  0.00000000000E+00 0.  1.
</event>
<event>
 7    1  0.2604986E-013  0.7246162E+02  0.7816164E-02  0.1226708E+00
        -11   -1    0    0    0    0  0.00000000000E+00  0.00000000000E+00  0.45593999997E+02  0.45594000000E+02  0.51100000000E-03 0.  1.
         11   -1    0    0    0    0 -0.00000000000E+00 -0.00000000000E+00 -0.45593999997E+02  0.45594000000E+02  0.51100000000E-03 0. -1.
    9900012    2    1    2    0    0 -0.78590988747E-01 -0.16345703468E+02 -0.91372415164E+01  0.72461618050E+02  0.70000062210E+02 0.  0.
        -12    1    1    2    0    0  0.78590988747E-01  0.16345703468E+02  0.91372415164E+01  0.18726381950E+02  0.00000000000E+00 0.  1.
         11    1    3    3    0    0 -0.90749265965E+01 -0.37965102025E+02 -0.71981572136E+01  0.39692779343E+02  0.51100000000E-03 0. -1.
        -11    1    3    3    0    0 -0.41988281567E+01  0.17895055204E+01  0.61101570139E+01  0.76266969845E+01  0.51100000000E-03 0.  1.
        -12    1    3    3    0    0  0.13195163764E+02  0.19829893036E+02 -0.80492413167E+01  0.25142141722E+02  0.00000000000E+00 0.  1.
</event>
<event>
 7    1  0.2604986E-013  0.7246158E+02  0.7816164E-02  0.1226708E+00
        -11   -1    0    0    0    0  0.00000000000E+00  0.00000000000E+00  0.45593999997E+02  0.45594000000E+02  0.51100000000E-03 0.  1.
         11   -1    0    0    0    0 -0.00000000000E+00 -0.00000000000E+00 -0.45593999997E+02  0.45594000000E+02  0.51100000000E-03 0. -1.
    9900012    2    1    2    0    0  0.22251642902E+01 -0.72926319726E+01 -0.17103940941E+02  0.72461584622E+02  0.70000018664E+02 0.  0.
        -12    1    1    2    0    0 -0.22251642902E+01  0.72926319726E+01  0.17103940941E+02  0.18726415378E+02  0.00000000000E+00 0.  1.
         11    1    3    3    0    0 -0.82181365063E+01  0.97056854577E+01  0.29905434909E+01  0.13064511031E+02  0.51100000000E-03 0. -1.
        -11    1    3    3    0    0 -0.11863276137E+02  0.94534232644E+01  0.57358364955E+01  0.16217408939E+02  0.51100000000E-03 0.  1.
         12    1    3    3    0    0  0.22306576934E+02 -0.26451740695E+02 -0.25830320927E+02  0.43179664652E+02  0.00000000000E+00 0. -1.
</event>
<event>
 7    1  0.2604986E-013  0.7246168E+02  0.7816164E-02  0.1226708E+00
        -11   -1    0    0    0    0  0.00000000000E+00  0.00000000000E+00  0.45593999997E+02  0.45594000000E+02  0.51100000000E-03 0.  1.
         11   -1    0    0    0    0 -0.00000000000E+00 -0.00000000000E+00 -0.45593999997E+02  0.45594000000E+02  0.51100000000E-03 0. -1.
    9900012    2    1    2    0    0  0.28287426997E+01 -0.13286374213E+02 -0.12889741070E+02  0.72461682961E+02  0.70000146769E+02 0.  0.
        -12    1    1    2    0    0 -0.28287426997E+01  0.13286374213E+02  0.12889741070E+02  0.18726317039E+02  0.00000000000E+00 0.  1.
         11    1    3    3    0    0  0.15004094113E+02 -0.54791815978E+01 -0.55269523893E+01  0.16902410305E+02  0.51100000000E-03 0. -1.
        -11    1    3    3    0    0  0.19601354896E+02  0.20029291717E+01  0.45704658155E+01  0.20226566615E+02  0.51100000000E-03 0.  1.
         12    1    3    3    0    0 -0.31776706309E+02 -0.98101217867E+01 -0.11933254496E+02  0.35332706041E+02  0.00000000000E+00 0. -1.
</event>
<event>
 7    1  0.2604986E-013  0.7246154E+02  0.7816164E-02  0.1226708E+00
        -11   -1    0    0    0    0  0.00000000000E+00  0.00000000000E+00  0.45593999997E+02  0.45594000000E+02  0.51100000000E-03 0.  1.
         11   -1    0    0    0    0 -0.00000000000E+00 -0.00000000000E+00 -0.45593999997E+02  0.45594000000E+02  0.51100000000E-03 0. -1.
    9900012    2    1    2    0    0 -0.63240044552E+01  0.27934728226E+01 -0.17403552421E+02  0.72461543858E+02  0.69999965562E+02 0.  0.
        -12    1    1    2    0    0  0.63240044552E+01 -0.27934728226E+01  0.17403552421E+02  0.18726456142E+02  0.00000000000E+00 0.  1.
         11    1    3    3    0    0 -0.10304117744E+02  0.68557024983E+01 -0.70477616646E+01  0.14242417069E+02  0.51100000000E-03 0. -1.
        -11    1    3    3    0    0 -0.12970285018E+02 -0.25680393428E+02 -0.10838358136E+02  0.30743794616E+02  0.51100000000E-03 0.  1.
         12    1    3    3    0    0  0.16950398306E+02  0.21618163752E+02  0.48256737921E+00  0.27475332173E+02  0.00000000000E+00 0. -1.
</event>
<event>
 7    1  0.2604986E-013  0.7246151E+02  0.7816164E-02  0.1226708E+00
        -11   -1    0    0    0    0  0.00000000000E+00  0.00000000000E+00  0.45593999997E+02  0.45594000000E+02  0.51100000000E-03 0.  1.
         11   -1    0    0    0    0 -0.00000000000E+00 -0.00000000000E+00 -0.45593999997E+02  0.45594000000E+02  0.51100000000E-03 0. -1.
    9900012    2    1    2    0    0 -0.12427660756E+02  0.14008366397E+02 -0.19622582255E-01  0.72461508977E+02  0.69999920123E+02 0.  0.
        -12    1    1    2    0    0  0.12427660756E+02 -0.14008366397E+02  0.19622582255E-01  0.18726491023E+02  0.00000000000E+00 0.  1.
         11    1    3    3    0    0 -0.17273079529E+02  0.11042936134E+02  0.12109888237E+02  0.23810819143E+02  0.51100000000E-03 0. -1.
        -11    1    3    3    0    0  0.51366782742E+00 -0.14252017263E+02  0.12038056369E+02  0.18662761106E+02  0.51100000000E-03 0.  1.
         12    1    3    3    0    0  0.43317509461E+01  0.17217447527E+02 -0.24167567188E+02  0.29987928728E+02  0.00000000000E+00 0. -1.
</event>
<event>
 7    1  0.2604986E-013  0.7246156E+02  0.7816164E-02  0.1226708E+00
        -11   -1    0    0    0    0  0.00000000000E+00  0.00000000000E+00  0.45593999997E+02  0.45594000000E+02  0.51100000000E-03 0. -1.
         11   -1    0    0    0    0 -0.00000000000E+00 -0.00000000000E+00 -0.45593999997E+02  0.45594000000E+02  0.51100000000E-03 0.  1.
    9900012    2    1    2    0    0 -0.68565832781E+01 -0.17425714098E+02 -0.10694919375E+00  0.72461556552E+02  0.69999982099E+02 0.  0.
        -12    1    1    2    0    0  0.68565832781E+01  0.17425714098E+02  0.10694919375E+00  0.18726443448E+02  0.00000000000E+00 0.  1.
         11    1    3    3    0    0  0.23178873660E+02  0.73015881710E+01 -0.18788330006E+01  0.24374236145E+02  0.51100000000E-03 0. -1.
        -11    1    3    3    0    0  0.48724156840E+01 -0.66566282720E+00 -0.24246831128E+01  0.54829399099E+01  0.51100000000E-03 0.  1.
        -12    1    3    3    0    0 -0.34907872622E+02 -0.24061639442E+02  0.41965669196E+01  0.42604380497E+02  0.00000000000E+00 0.  1.
</event>
<event>
 7    1  0.2604986E-013  0.7246161E+02  0.7816164E-02  0.1226708E+00
        -11   -1    0    0    0    0  0.00000000000E+00  0.00000000000E+00  0.45593999997E+02  0.45594000000E+02  0.51100000000E-03 0.  1.
         11   -1    0    0    0    0 -0.00000000000E+00 -0.00000000000E+00 -0.45593999997E+02  0.45594000000E+02  0.51100000000E-03 0. -1.
    9900012    2    1    2    0    0 -0.11507791937E+02  0.22458918233E+01 -0.14601517700E+02  0.72461611547E+02  0.70000053739E+02 0.  0.
        -12    1    1    2    0    0  0.11507791937E+02 -0.22458918233E+01  0.14601517700E+02  0.18726388453E+02  0.00000000000E+00 0.  1.
         11    1    3    3    0    0 -0.46054659385E+01  0.10329255760E+02 -0.27227851022E+02  0.29483210690E+02  0.51100000000E-03 0. -1.
        -11    1    3    3    0    0 -0.39072823693E+01 -0.45566320459E+01 -0.14377948775E+02  0.15580602118E+02  0.51100000000E-03 0.  1.
        -12    1    3    3    0    0 -0.29950436292E+01 -0.35267318903E+01  0.27004282097E+02  0.27397798739E+02  0.00000000000E+00 0.  1.
</event>
<event>
 7    1  0.2604986E-013  0.7246162E+02  0.7816164E-02  0.1226708E+00
        -11   -1    0    0    0    0  0.00000000000E+00  0.00000000000E+00  0.45593999997E+02  0.45594000000E+02  0.51100000000E-03 0.  1.
         11   -1    0    0    0    0 -0.00000000000E+00 -0.00000000000E+00 -0.45593999997E+02  0.45594000000E+02  0.51100000000E-03 0. -1.
    9900012    2    1    2    0    0 -0.13187976600E+02  0.11391391447E+02 -0.68549959218E+01  0.72461615005E+02  0.70000058243E+02 0.  0.
        -12    1    1    2    0    0  0.13187976600E+02 -0.11391391447E+02  0.68549959218E+01  0.18726384995E+02  0.00000000000E+00 0.  1.
         11    1    3    3    0    0 -0.22359644229E+02  0.17404576848E+02 -0.86850616266E+01  0.29636181958E+02  0.51100000000E-03 0. -1.
        -11    1    3    3    0    0  0.42053140692E+00 -0.48991626378E+01 -0.19305933334E+02  0.19922291619E+02  0.51100000000E-03 0.  1.
        -12    1    3    3    0    0  0.87511362220E+01 -0.11140227632E+01  0.21135999039E+02  0.22903141428E+02  0.00000000000E+00 0.  1.
</event>
<event>
 7    1  0.2604986E-013  0.7246126E+02  0.7816164E-02  0.1226709E+00
        -11   -1    0    0    0    0  0.00000000000E+00  0.00000000000E+00  0.45593999997E+02  0.45594000000E+02  0.51100000000E-03 0.  1.
         11   -1    0    0    0    0 -0.00000000000E+00 -0.00000000000E+00 -0.45593999997E+02  0.45594000000E+02  0.51100000000E-03 0. -1.
    9900012    2    1    2    0    0 -0.16442372232E+02  0.88585494022E+01 -0.13658152132E+01  0.72461255667E+02  0.69999590138E+02 0.  0.
        -12    1    1    2    0    0  0.16442372232E+02 -0.88585494022E+01  0.13658152132E+01  0.18726744333E+02  0.00000000000E+00 0.  1.
         11    1    3    3    0    0 -0.13511584239E+02 -0.86918443844E+01 -0.66967697293E+01  0.17405682765E+02  0.51100000000E-03 0. -1.
        -11    1    3    3    0    0 -0.15959653014E+02 -0.13633040688E+02  0.14997044501E+01  0.21043275325E+02  0.51100000000E-03 0.  1.
        -12    1    3    3    0    0  0.13028865021E+02  0.31183434474E+02  0.38312500660E+01  0.34012297576E+02  0.00000000000E+00 0.  1.
</event>
<event>
 7    1  0.2604986E-013  0.7246166E+02  0.7816164E-02  0.1226708E+00
        -11   -1    0    0    0    0  0.00000000000E+00  0.00000000000E+00  0.45593999997E+02  0.45594000000E+02  0.51100000000E-03 0. -1.
         11   -1    0    0    0    0 -0.00000000000E+00 -0.00000000000E+00 -0.45593999997E+02  0.45594000000E+02  0.51100000000E-03 0.  1.
    9900012    2    1    2    0    0  0.17996879891E+02  0.36468136397E+01 -0.36727442371E+01  0.72461655301E+02  0.70000110737E+02 0.  0.
        -12    1    1    2    0    0 -0.17996879891E+02 -0.36468136397E+01  0.36727442371E+01  0.18726344699E+02  0.00000000000E+00 0.  1.
         11    1    3    3    0    0  0.78731649943E+01 -0.92529264548E+01  0.14751047496E+02  0.19110122383E+02  0.51100000000E-03 0. -1.
        -11    1    3    3    0    0 -0.12963448070E+02 -0.76355431427E+01 -0.16593970969E+02  0.22398936977E+02  0.51100000000E-03 0.  1.
        -12    1    3    3    0    0  0.23087162966E+02  0.20535283237E+02 -0.18298207639E+01  0.30952595941E+02  0.00000000000E+00 0.  1.
</event>
<event>
 7    1  0.2604986E-013  0.7246149E+02  0.7816164E-02  0.1226708E+00
        -11   -1    0    0    0    0  0.00000000000E+00  0.00000000000E+00  0.45593999997E+02  0.45594000000E+02  0.51100000000E-03 0.  1.
         11   -1    0    0    0    0 -0.00000000000E+00 -0.00000000000E+00 -0.45593999997E+02  0.45594000000E+02  0.51100000000E-03 0. -1.
    9900012    2    1    2    0    0 -0.17543535471E+02 -0.64451758823E+01  0.11688830109E+01  0.72461488940E+02  0.69999894021E+02 0.  0.
        -12    1    1    2    0    0  0.17543535471E+02  0.64451758823E+01 -0.11688830109E+01  0.18726511060E+02  0.00000000000E+00 0.  1.
         11    1    3    3    0    0 -0.15721259091E+02 -0.19537402135E+02 -0.18399883296E+02  0.31103436709E+02  0.51100000000E-03 0. -1.
        -11    1    3    3    0    0  0.32252041007E+01 -0.11179330696E+02  0.58125252822E+01  0.13006337944E+02  0.51100000000E-03 0.  1.
        -12    1    3    3    0    0 -0.50474804805E+01  0.24271556948E+02  0.13756241024E+02  0.28351714287E+02  0.00000000000E+00 0.  1.
</event>
<event>
 7    1  0.2604986E-013  0.7246156E+02  0.7816164E-02  0.1226708E+00
        -11   -1    0    0    0    0  0.00000000000E+00  0.00000000000E+00  0.45593999997E+02  0.45594000000E+02  0.51100000000E-03 0.  1.
         11   -1    0    0    0    0 -0.00000000000E+00 -0.00000000000E+00 -0.45593999997E+02  0.45594000000E+02  0.51100000000E-03 0. -1.
    9900012    2    1    2    0    0 -0.11894260135E+02 -0.13776880765E+02  0.44049658457E+01  0.72461559018E+02  0.69999985310E+02 0.  0.
        -12    1    1    2    0    0  0.11894260135E+02  0.13776880765E+02 -0.44049658457E+01  0.18726440982E+02  0.00000000000E+00 0.  1.
         11    1    3    3    0    0  0.84112854624E+01 -0.17616095967E+02 -0.20998732753E+01  0.19633798112E+02  0.51100000000E-03 0. -1.
        -11    1    3    3    0    0 -0.31826982249E+02 -0.10697418451E+02  0.68841260727E+01  0.34275103977E+02  0.51100000000E-03 0.  1.
        -12    1    3    3    0    0  0.11521436652E+02  0.14536633654E+02 -0.37928695166E+00  0.18552656928E+02  0.00000000000E+00 0.  1.
</event>
<event>
 7    1  0.2604986E-013  0.7246159E+02  0.7816164E-02  0.1226708E+00
        -11   -1    0    0    0    0  0.00000000000E+00  0.00000000000E+00  0.45593999997E+02  0.45594000000E+02  0.51100000000E-03 0. -1.
         11   -1    0    0    0    0 -0.00000000000E+00 -0.00000000000E+00 -0.45593999997E+02  0.45594000000E+02  0.51100000000E-03 0.  1.
    9900012    2    1    2    0    0 -0.11300145036E+02  0.12134617599E+02  0.87026525688E+01  0.72461591272E+02  0.70000027327E+02 0.  0.
        -12    1    1    2    0    0  0.11300145036E+02 -0.12134617599E+02 -0.87026525688E+01  0.18726408728E+02  0.00000000000E+00 0.  1.
         11    1    3    3    0    0  0.48707871083E+01  0.17101957832E+01  0.20012355731E+02  0.20667455548E+02  0.51100000000E-03 0. -1.
        -11    1    3    3    0    0 -0.25786967892E+01 -0.16678785436E+02  0.46827152345E+01  0.17514547752E+02  0.51100000000E-03 0.  1.
        -12    1    3    3    0    0 -0.13592235355E+02  0.27103207252E+02 -0.15992418397E+02  0.34279587971E+02  0.00000000000E+00 0.  1.
</event>
<event>
 7    1  0.2604986E-013  0.7246162E+02  0.7816164E-02  0.1226708E+00
        -11   -1    0    0    0    0  0.00000000000E+00  0.00000000000E+00  0.45593999997E+02  0.45594000000E+02  0.51100000000E-03 0. -1.
         11   -1    0    0    0    0 -0.00000000000E+00 -0.00000000000E+00 -0.45593999997E+02  0.45594000000E+02  0.51100000000E-03 0.  1.
    9900012    2    1    2    0    0  0.12909651655E+02  0.55925910680E+01  0.12358842757E+02  0.72461623548E+02  0.70000069373E+02 0.  0.
        -12    1    1    2    0    0 -0.12909651655E+02 -0.55925910680E+01 -0.12358842757E+02  0.18726376452E+02  0.00000000000E+00 0.  1.
         11    1    3    3    0    0 -0.85586453186E+01 -0.10258173438E+02 -0.11440324106E+02  0.17588676695E+02  0.51100000000E-03 0. -1.
        -11    1    3    3    0    0  0.22766861377E+02  0.45949620141E+01 -0.51459813467E+01  0.23789173528E+02  0.51100000000E-03 0.  1.
         12    1    3    3    0    0 -0.12985644030E+01  0.11255802492E+02  0.28945148210E+02  0.31083773325E+02  0.00000000000E+00 0. -1.
</event>
<event>
 7    1  0.2604986E-013  0.7246163E+02  0.7816164E-02  0.1226708E+00
        -11   -1    0    0    0    0  0.00000000000E+00  0.00000000000E+00  0.45593999997E+02  0.45594000000E+02  0.51100000000E-03 0.  1.
         11   -1    0    0    0    0 -0.00000000000E+00 -0.00000000000E+00 -0.45593999997E+02  0.45594000000E+02  0.51100000000E-03 0. -1.
    9900012    2    1    2    0    0  0.80347349601E+01  0.52917772389E+01 -0.16066022274E+02  0.72461629718E+02  0.70000077411E+02 0.  0.
        -12    1    1    2    0    0 -0.80347349601E+01 -0.52917772389E+01  0.16066022274E+02  0.18726370282E+02  0.00000000000E+00 0.  1.
         11    1    3    3    0    0 -0.32275476503E+01 -0.13932602006E+02 -0.13721137494E+02  0.19819285479E+02  0.51100000000E-03 0. -1.
        -11    1    3    3    0    0  0.48355190869E+01  0.16502226251E+02 -0.24206986930E+02  0.29693163061E+02  0.51100000000E-03 0.  1.
        -12    1    3    3    0    0  0.64267635234E+01  0.27221529934E+01  0.21862102150E+02  0.22949181178E+02  0.00000000000E+00 0.  1.
</event>
<event>
 7    1  0.2604986E-013  0.7246157E+02  0.7816164E-02  0.1226708E+00
        -11   -1    0    0    0    0  0.00000000000E+00  0.00000000000E+00  0.45593999997E+02  0.45594000000E+02  0.51100000000E-03 0.  1.
         11   -1    0    0    0    0 -0.00000000000E+00 -0.00000000000E+00 -0.45593999997E+02  0.45594000000E+02  0.51100000000E-03 0. -1.
    9900012    2    1    2    0    0  0.15480112373E+02 -0.58353696558E+01 -0.87746006697E+01  0.72461573886E+02  0.70000004679E+02 0.  0.
        -12    1    1    2    0    0 -0.15480112373E+02  0.58353696558E+01  0.87746006697E+01  0.18726426114E+02  0.00000000000E+00 0.  1.
         11    1    3    3    0    0  0.27130701138E+02 -0.10126178936E+02 -0.19854874234E+02  0.35111685736E+02  0.51100000000E-03 0. -1.
        -11    1    3    3    0    0  0.75713353837E+01 -0.93981063829E+01  0.39316127077E+01  0.12692797242E+02  0.51100000000E-03 0.  1.
        -12    1    3    3    0    0 -0.19221924149E+02  0.13688915663E+02  0.71486608562E+01  0.24657090908E+02  0.00000000000E+00 0.  1.
</event>
<event>
 7    1  0.2604986E-013  0.7246155E+02  0.7816164E-02  0.1226708E+00
        -11   -1    0    0    0    0  0.00000000000E+00  0.00000000000E+00  0.45593999997E+02  0.45594000000E+02  0.51100000000E-03 0.  1.
         11   -1    0    0    0    0 -0.00000000000E+00 -0.00000000000E+00 -0.45593999997E+02  0.45594000000E+02  0.51100000000E-03 0. -1.
    9900012    2    1    2    0    0  0.12255236662E+02  0.32285569692E+01 -0.13786421911E+02  0.72461552529E+02  0.69999976858E+02 0.  0.
        -12    1    1    2    0    0 -0.12255236662E+02 -0.32285569692E+01  0.13786421911E+02  0.18726447471E+02  0.00000000000E+00 0.  1.
         11    1    3    3    0    0  0.94227965486E+01  0.10630394169E+02  0.21211629577E+01  0.14362928237E+02  0.51100000000E-03 0. -1.
        -11    1    3    3    0    0 -0.14647126329E+02  0.67666349749E+01  0.13522941290E+02  0.21052211285E+02  0.51100000000E-03 0.  1.
         12    1    3    3    0    0  0.17479566443E+02 -0.14168472174E+02 -0.29430526159E+02  0.37046413008E+02  0.00000000000E+00 0. -1.
</event>
<event>
 7    1  0.2604986E-013  0.7246157E+02  0.7816164E-02  0.1226708E+00
        -11   -1    0    0    0    0  0.00000000000E+00  0.00000000000E+00  0.45593999997E+02  0.45594000000E+02  0.51100000000E-03 0.  1.
         11   -1    0    0    0    0 -0.00000000000E+00 -0.00000000000E+00 -0.45593999997E+02  0.45594000000E+02  0.51100000000E-03 0. -1.
    9900012    2    1    2    0    0 -0.13435740348E+02 -0.59541323397E+01 -0.11606399408E+02  0.72461566334E+02  0.69999994841E+02 0.  0.
        -12    1    1    2    0    0  0.13435740348E+02  0.59541323397E+01  0.11606399408E+02  0.18726433666E+02  0.00000000000E+00 0.  1.
         11    1    3    3    0    0  0.46422819235E+01  0.53658705849E+01  0.13321930131E+02  0.15093613592E+02  0.51100000000E-03 0. -1.
        -11    1    3    3    0    0  0.44271619930E+01  0.39176673190E+01  0.10898575752E+02  0.12398662598E+02  0.51100000000E-03 0.  1.
         12    1    3    3    0    0 -0.22505184265E+02 -0.15237670244E+02 -0.35826905292E+02  0.44969290144E+02  0.00000000000E+00 0. -1.
</event>
<event>
 7    1  0.2604986E-013  0.7246156E+02  0.7816164E-02  0.1226708E+00
        -11   -1    0    0    0    0  0.00000000000E+00  0.00000000000E+00  0.45593999997E+02  0.45594000000E+02  0.51100000000E-03 0.  1.
         11   -1    0    0    0    0 -0.00000000000E+00 -0.00000000000E+00 -0.45593999997E+02  0.45594000000E+02  0.51100000000E-03 0. -1.
    9900012    2    1    2    0    0  0.68216599062E+01  0.17258637619E+02  0.25067870507E+01  0.72461558863E+02  0.69999985109E+02 0.  0.
        -12    1    1    2    0    0 -0.68216599062E+01 -0.17258637619E+02 -0.25067870507E+01  0.18726441137E+02  0.00000000000E+00 0.  1.
         11    1    3    3    0    0 -0.84577759109E+01  0.21925933021E+02 -0.13834083609E+02  0.27270173849E+02  0.51100000000E-03 0. -1.
        -11    1    3    3    0    0 -0.13161907914E+02 -0.32721202571E+01  0.38632071804E+01  0.14102019745E+02  0.51100000000E-03 0.  1.
        -12    1    3    3    0    0  0.28441343731E+02 -0.13951751451E+01  0.12477663479E+02  0.31089365269E+02  0.00000000000E+00 0.  1.
</event>
<event>
 7    1  0.2604986E-013  0.7246159E+02  0.7816164E-02  0.1226708E+00
        -11   -1    0    0    0    0  0.00000000000E+00  0.00000000000E+00  0.45593999997E+02  0.45594000000E+02  0.51100000000E-03 0.  1.
         11   -1    0    0    0    0 -0.00000000000E+00 -0.00000000000E+00 -0.45593999997E+02  0.45594000000E+02  0.51100000000E-03 0. -1.
    9900012    2    1    2    0    0  0.82294684814E+01 -0.15333450169E+02  0.69166172827E+01  0.72461589767E+02  0.70000025367E+02 0.  0.
        -12    1    1    2    0    0 -0.82294684814E+01  0.15333450169E+02 -0.69166172827E+01  0.18726410233E+02  0.00000000000E+00 0.  1.
         11    1    3    3    0    0  0.29990890186E+01 -0.13189794133E+02  0.28295715145E+01  0.13819250321E+02  0.51100000000E-03 0. -1.
        -11    1    3    3    0    0 -0.19676494378E+02  0.11237991509E+02 -0.12483107222E+02  0.25870540202E+02  0.51100000000E-03 0.  1.
         12    1    3    3    0    0  0.24906873841E+02 -0.13381647545E+02  0.16570152990E+02  0.32771799244E+02  0.00000000000E+00 0. -1.
</event>
<event>
 7    1  0.2604986E-013  0.7246153E+02  0.7816164E-02  0.1226708E+00
        -11   -1    0    0    0    0  0.00000000000E+00  0.00000000000E+00  0.45593999997E+02  0.45594000000E+02  0.51100000000E-03 0.  1.
         11   -1    0    0    0    0 -0.00000000000E+00 -0.00000000000E+00 -0.45593999997E+02  0.45594000000E+02  0.51100000000E-03 0. -1.
    9900012    2    1    2    0    0  0.14448118894E+02 -0.52767717813E+01 -0.10681215134E+02  0.72461526313E+02  0.69999942706E+02 0.  0.
        -12    1    1    2    0    0 -0.14448118894E+02  0.52767717813E+01  0.10681215134E+02  0.18726473687E+02  0.00000000000E+00 0.  1.
         11    1    3    3    0    0  0.90644710661E+00 -0.11180543271E+02  0.43999969500E+01  0.12049322288E+02  0.51100000000E-03 0. -1.
        -11    1    3    3    0    0 -0.59167959843E+01 -0.22566417207E+02 -0.15926587281E+01  0.23383503210E+02  0.51100000000E-03 0.  1.
         12    1    3    3    0    0  0.19458467772E+02  0.28470188696E+02 -0.13488553356E+02  0.37028700815E+02  0.00000000000E+00 0. -1.
</event>
<event>
 7    1  0.2604986E-013  0.7246155E+02  0.7816164E-02  0.1226708E+00
        -11   -1    0    0    0    0  0.00000000000E+00  0.00000000000E+00  0.45593999997E+02  0.45594000000E+02  0.51100000000E-03 0. -1.
         11   -1    0    0    0    0 -0.00000000000E+00 -0.00000000000E+00 -0.45593999997E+02  0.45594000000E+02  0.51100000000E-03 0.  1.
    9900012    2    1    2    0    0 -0.11880261257E+02  0.14464451821E+02 -0.56487851924E+00  0.72461546471E+02  0.69999968966E+02 0.  0.
        -12    1    1    2    0    0  0.11880261257E+02 -0.14464451821E+02  0.56487851924E+00  0.18726453529E+02  0.00000000000E+00 0.  1.
         11    1    3    3    0    0 -0.41099858629E+01 -0.65885682516E+01 -0.16597215771E+02  0.18323994843E+02  0.51100000000E-03 0. -1.
        -11    1    3    3    0    0  0.10765877403E+02  0.40503816694E+01 -0.11899006664E+02  0.16549805672E+02  0.51100000000E-03 0.  1.
         12    1    3    3    0    0 -0.18536152797E+02  0.17002638403E+02  0.27931343915E+02  0.37587745957E+02  0.00000000000E+00 0. -1.
</event>
<event>
 7    1  0.2604986E-013  0.7246158E+02  0.7816164E-02  0.1226708E+00
        -11   -1    0    0    0    0  0.00000000000E+00  0.00000000000E+00  0.45593999997E+02  0.45594000000E+02  0.51100000000E-03 0.  1.
         11   -1    0    0    0    0 -0.00000000000E+00 -0.00000000000E+00 -0.45593999997E+02  0.45594000000E+02  0.51100000000E-03 0. -1.
    9900012    2    1    2    0    0 -0.10987641786E+02 -0.62431068700E+01  0.13819346497E+02  0.72461575007E+02  0.70000006139E+02 0.  0.
        -12    1    1    2    0    0  0.10987641786E+02  0.62431068700E+01 -0.13819346497E+02  0.18726424993E+02  0.00000000000E+00 0.  1.
         11    1    3    3    0    0 -0.11773546544E+02  0.16004130197E+02  0.65011112503E+01  0.20904856597E+02  0.51100000000E-03 0. -1.
        -11    1    3    3    0    0  0.53491508770E+01 -0.11233201674E+02  0.26326888926E+02  0.29118779434E+02  0.51100000000E-03 0.  1.
         12    1    3    3    0    0 -0.45632461199E+01 -0.11014035393E+02 -0.19008653679E+02  0.22437938976E+02  0.00000000000E+00 0. -1.
</event>
<event>
 7    1  0.2604986E-013  0.7246153E+02  0.7816164E-02  0.1226708E+00
        -11   -1    0    0    0    0  0.00000000000E+00  0.00000000000E+00  0.45593999997E+02  0.45594000000E+02  0.51100000000E-03 0.  1.
         11   -1    0    0    0    0 -0.00000000000E+00 -0.00000000000E+00 -0.45593999997E+02  0.45594000000E+02  0.51100000000E-03 0. -1.
    9900012    2    1    2    0    0  0.12942950377E+02 -0.80955521991E+01 -0.10845403198E+02  0.72461529420E+02  0.69999946753E+02 0.  0.
        -12    1    1    2    0    0 -0.12942950377E+02  0.80955521991E+01  0.10845403198E+02  0.18726470580E+02  0.00000000000E+00 0.  1.
         11    1    3    3    0    0  0.11398375613E+02 -0.20710487157E+02 -0.71602523940E+01  0.24700535612E+02  0.51100000000E-03 0. -1.
        -11    1    3    3    0    0  0.18780101497E+01 -0.65923754414E+01  0.17720056371E+02  0.18999650895E+02  0.51100000000E-03 0.  1.
         12    1    3    3    0    0 -0.33343538530E+00  0.19207310399E+02 -0.21405207175E+02  0.28761342913E+02  0.00000000000E+00 0. -1.
</event>
<event>
 7    1  0.2604986E-013  0.7246155E+02  0.7816164E-02  0.1226708E+00
        -11   -1    0    0    0    0  0.00000000000E+00  0.00000000000E+00  0.45593999997E+02  0.45594000000E+02  0.51100000000E-03 0.  1.
         11   -1    0    0    0    0 -0.00000000000E+00 -0.00000000000E+00 -0.45593999997E+02  0.45594000000E+02  0.51100000000E-03 0. -1.
    9900012    2    1    2    0    0  0.52297947679E+01 -0.13472589284E+02  0.11908756715E+02  0.72461550741E+02  0.69999974528E+02 0.  0.
        -12    1    1    2    0    0 -0.52297947679E+01  0.13472589284E+02 -0.11908756715E+02  0.18726449259E+02  0.00000000000E+00 0.  1.
         11    1    3    3    0    0 -0.16602147198E+02 -0.10210185415E+02 -0.11213672305E+01  0.19522721186E+02  0.51100000000E-03 0. -1.
        -11    1    3    3    0    0 -0.54303669646E+01  0.44243815477E+01  0.22110653485E+02  0.23193642130E+02  0.51100000000E-03 0.  1.
        -12    1    3    3    0    0  0.27262308930E+02 -0.76867854177E+01 -0.90805295390E+01  0.29745187426E+02  0.00000000000E+00 0.  1.
</event>
<event>
 7    1  0.2604986E-013  0.7246167E+02  0.7816164E-02  0.1226708E+00
        -11   -1    0    0    0    0  0.00000000000E+00  0.00000000000E+00  0.45593999997E+02  0.45594000000E+02  0.51100000000E-03 0. -1.
         11   -1    0    0    0    0 -0.00000000000E+00 -0.00000000000E+00 -0.45593999997E+02  0.45594000000E+02  0.51100000000E-03 0.  1.
    9900012    2    1    2    0    0  0.14372464319E+02  0.20977753579E+00  0.12002658795E+02  0.72461666794E+02  0.70000125708E+02 0.  0.
        -12    1    1    2    0    0 -0.14372464319E+02 -0.20977753579E+00 -0.12002658795E+02  0.18726333206E+02  0.00000000000E+00 0.  1.
         11    1    3    3    0    0 -0.11926119061E+02 -0.12723238225E+02 -0.74184548466E+01  0.18951163008E+02  0.51100000000E-03 0. -1.
        -11    1    3    3    0    0  0.26966258012E+02 -0.24928258132E+01 -0.19430810426E+01  0.27150852950E+02  0.51100000000E-03 0.  1.
         12    1    3    3    0    0 -0.66767463215E+00  0.15425841574E+02  0.21364194684E+02  0.26359650836E+02  0.00000000000E+00 0. -1.
</event>
<event>
 7    1  0.2604986E-013  0.7246156E+02  0.7816164E-02  0.1226708E+00
        -11   -1    0    0    0    0  0.00000000000E+00  0.00000000000E+00  0.45593999997E+02  0.45594000000E+02  0.51100000000E-03 0.  1.
         11   -1    0    0    0    0 -0.00000000000E+00 -0.00000000000E+00 -0.45593999997E+02  0.45594000000E+02  0.51100000000E-03 0. -1.
    9900012    2    1    2    0    0  0.14533597573E+02  0.53152476412E+01 -0.10545247554E+02  0.72461559818E+02  0.69999986353E+02 0.  0.
        -12    1    1    2    0    0 -0.14533597573E+02 -0.53152476412E+01  0.10545247554E+02  0.18726440182E+02  0.00000000000E+00 0.  1.
         11    1    3    3    0    0  0.20338844783E+02 -0.34249018859E+01 -0.82723952342E+01  0.22222310483E+02  0.51100000000E-03 0. -1.
        -11    1    3    3    0    0  0.81921207489E+01 -0.13756283792E+02  0.12125505523E+02  0.20084174630E+02  0.51100000000E-03 0.  1.
         12    1    3    3    0    0 -0.13997367959E+02  0.22496433320E+02 -0.14398357843E+02  0.30155074705E+02  0.00000000000E+00 0. -1.
</event>
<event>
 7    1  0.2604986E-013  0.7246161E+02  0.7816164E-02  0.1226708E+00
        -11   -1    0    0    0    0  0.00000000000E+00  0.00000000000E+00  0.45593999997E+02  0.45594000000E+02  0.51100000000E-03 0. -1.
         11   -1    0    0    0    0 -0.00000000000E+00 -0.00000000000E+00 -0.45593999997E+02  0.45594000000E+02  0.51100000000E-03 0.  1.
    9900012    2    1    2    0    0  0.67074068490E+01  0.13001252762E+02  0.11689990267E+02  0.72461608130E+02  0.70000049288E+02 0.  0.
        -12    1    1    2    0    0 -0.67074068490E+01 -0.13001252762E+02 -0.11689990267E+02  0.18726391870E+02  0.00000000000E+00 0.  1.
         11    1    3    3    0    0  0.14886735030E+02  0.80032311089E+01 -0.79726184931E+01  0.18687675990E+02  0.51100000000E-03 0. -1.
        -11    1    3    3    0    0  0.12954289019E+02  0.96169761604E+01 -0.85206832546E+01  0.18245598862E+02  0.51100000000E-03 0.  1.
         12    1    3    3    0    0 -0.21133617200E+02 -0.46189545074E+01  0.28183292015E+02  0.35528333277E+02  0.00000000000E+00 0. -1.
</event>
<event>
 7    1  0.2947768E-013  0.7246156E+02  0.7816164E-02  0.1226708E+00
        -11   -1    0    0    0    0  0.00000000000E+00  0.00000000000E+00  0.45593999997E+02  0.45594000000E+02  0.51100000000E-03 0. -1.
         11   -1    0    0    0    0 -0.00000000000E+00 -0.00000000000E+00 -0.45593999997E+02  0.45594000000E+02  0.51100000000E-03 0.  1.
    9900012    2    1    2    0    0 -0.29046859579E+01  0.69716121949E+01  0.17135898863E+02  0.72461558615E+02  0.69999984785E+02 0.  0.
        -12    1    1    2    0    0  0.29046859579E+01 -0.69716121949E+01 -0.17135898863E+02  0.18726441385E+02  0.00000000000E+00 0.  1.
         11    1    3    3    0    0  0.10064366500E+01  0.14705608004E+02 -0.40416322907E+01  0.15284064032E+02  0.51100000000E-03 0. -1.
        -11    1    3    3    0    0 -0.17017206253E+02 -0.48998660586E+01 -0.12000853678E+02  0.21391925704E+02  0.51100000000E-03 0.  1.
         12    1    3    3    0    0  0.13106083645E+02 -0.28341297505E+01  0.33178384832E+02  0.35785568879E+02  0.00000000000E+00 0. -1.
</event>
<event>
 7    1  0.2604986E-013  0.7246144E+02  0.7816164E-02  0.1226708E+00
        -11   -1    0    0    0    0  0.00000000000E+00  0.00000000000E+00  0.45593999997E+02  0.45594000000E+02  0.51100000000E-03 0.  1.
         11   -1    0    0    0    0 -0.00000000000E+00 -0.00000000000E+00 -0.45593999997E+02  0.45594000000E+02  0.51100000000E-03 0. -1.
    9900012    2    1    2    0    0 -0.19310187853E+01  0.45410887837E+01 -0.18064711253E+02  0.72461438288E+02  0.69999828037E+02 0.  0.
        -12    1    1    2    0    0  0.19310187853E+01 -0.45410887837E+01  0.18064711253E+02  0.18726561712E+02  0.00000000000E+00 0.  1.
         11    1    3    3    0    0 -0.58604549029E+01  0.12751904480E+02 -0.10061955642E+02  0.17268438005E+02  0.51100000000E-03 0. -1.
        -11    1    3    3    0    0  0.21311355575E+02  0.14334599374E+02 -0.23713664457E+00  0.25684836961E+02  0.51100000000E-03 0.  1.
        -12    1    3    3    0    0 -0.17381919457E+02 -0.22545415070E+02 -0.77656189667E+01  0.29508163322E+02  0.00000000000E+00 0.  1.
</event>
<event>
 7    1  0.2604986E-013  0.7246207E+02  0.7816164E-02  0.1226707E+00
        -11   -1    0    0    0    0  0.00000000000E+00  0.00000000000E+00  0.45593999997E+02  0.45594000000E+02  0.51100000000E-03 0. -1.
         11   -1    0    0    0    0 -0.00000000000E+00 -0.00000000000E+00 -0.45593999997E+02  0.45594000000E+02  0.51100000000E-03 0.  1.
    9900012    2    1    2    0    0  0.11936718772E+01  0.33095249939E+01  0.18392458460E+02  0.72462073149E+02  0.70000655058E+02 0.  0.
        -12    1    1    2    0    0 -0.11936718772E+01 -0.33095249939E+01 -0.18392458460E+02  0.18725926851E+02  0.00000000000E+00 0.  1.
         11    1    3    3    0    0  0.22006914517E+02  0.46947059534E+01  0.33413054852E+02  0.40283703719E+02  0.51100000000E-03 0. -1.
        -11    1    3    3    0    0 -0.18905018058E+02 -0.28111689268E+01 -0.23163790626E+01  0.19252739824E+02  0.51100000000E-03 0.  1.
        -12    1    3    3    0    0 -0.19082245818E+01  0.14259879673E+01 -0.12704217329E+02  0.12925629605E+02  0.00000000000E+00 0.  1.
</event>
<event>
 7    1  0.2604986E-013  0.7246158E+02  0.7816164E-02  0.1226708E+00
        -11   -1    0    0    0    0  0.00000000000E+00  0.00000000000E+00  0.45593999997E+02  0.45594000000E+02  0.51100000000E-03 0.  1.
         11   -1    0    0    0    0 -0.00000000000E+00 -0.00000000000E+00 -0.45593999997E+02  0.45594000000E+02  0.51100000000E-03 0. -1.
    9900012    2    1    2    0    0  0.55238807509E+01 -0.49536453383E+01 -0.17193802127E+02  0.72461583037E+02  0.70000016599E+02 0.  0.
        -12    1    1    2    0    0 -0.55238807509E+01  0.49536453383E+01  0.17193802127E+02  0.18726416963E+02  0.00000000000E+00 0.  1.
         11    1    3    3    0    0  0.62930081157E+00 -0.33897803130E+02 -0.12166002403E+02  0.36020392715E+02  0.51100000000E-03 0. -1.
        -11    1    3    3    0    0 -0.38159622900E+01 -0.17264551994E+01 -0.98260316081E+00  0.43020605513E+01  0.51100000000E-03 0.  1.
        -12    1    3    3    0    0  0.87105422293E+01  0.30670612991E+02 -0.40451965633E+01  0.32139129771E+02  0.00000000000E+00 0.  1.
</event>
<event>
 7    1  0.2604986E-013  0.7246158E+02  0.7816164E-02  0.1226708E+00
        -11   -1    0    0    0    0  0.00000000000E+00  0.00000000000E+00  0.45593999997E+02  0.45594000000E+02  0.51100000000E-03 0.  1.
         11   -1    0    0    0    0 -0.00000000000E+00 -0.00000000000E+00 -0.45593999997E+02  0.45594000000E+02  0.51100000000E-03 0. -1.
    9900012    2    1    2    0    0  0.12041182454E+02 -0.14041991698E+02  0.29174251156E+01  0.72461575487E+02  0.70000006764E+02 0.  0.
        -12    1    1    2    0    0 -0.12041182454E+02  0.14041991698E+02 -0.29174251156E+01  0.18726424513E+02  0.00000000000E+00 0.  1.
         11    1    3    3    0    0  0.77604240510E+01 -0.33723832427E+02  0.12830550363E+02  0.36907236118E+02  0.51100000000E-03 0. -1.
        -11    1    3    3    0    0  0.95588738734E+01  0.50262320066E+01  0.67567105472E+01  0.12739239208E+02  0.51100000000E-03 0.  1.
         12    1    3    3    0    0 -0.52781154700E+01  0.14655608723E+02 -0.16669835795E+02  0.22815100161E+02  0.00000000000E+00 0. -1.
</event>
<event>
 7    1  0.2604986E-013  0.7246156E+02  0.7816164E-02  0.1226708E+00
        -11   -1    0    0    0    0  0.00000000000E+00  0.00000000000E+00  0.45593999997E+02  0.45594000000E+02  0.51100000000E-03 0.  1.
         11   -1    0    0    0    0 -0.00000000000E+00 -0.00000000000E+00 -0.45593999997E+02  0.45594000000E+02  0.51100000000E-03 0. -1.
    9900012    2    1    2    0    0 -0.80016725491E+01 -0.75118357189E+01 -0.15173164893E+02  0.72461564880E+02  0.69999992947E+02 0.  0.
        -12    1    1    2    0    0  0.80016725491E+01  0.75118357189E+01  0.15173164893E+02  0.18726435120E+02  0.00000000000E+00 0.  1.
         11    1    3    3    0    0 -0.76209617553E+01 -0.22777058516E+02  0.22342735871E+01  0.24121886979E+02  0.51100000000E-03 0. -1.
        -11    1    3    3    0    0 -0.18801115980E+02  0.27883254076E+01  0.16049851408E+01  0.19074399026E+02  0.51100000000E-03 0.  1.
         12    1    3    3    0    0  0.18420405186E+02  0.12476897389E+02 -0.19012423620E+02  0.29265278874E+02  0.00000000000E+00 0. -1.
</event>
<event>
 7    1  0.2604986E-013  0.7246161E+02  0.7816164E-02  0.1226708E+00
        -11   -1    0    0    0    0  0.00000000000E+00  0.00000000000E+00  0.45593999997E+02  0.45594000000E+02  0.51100000000E-03 0. -1.
         11   -1    0    0    0    0 -0.00000000000E+00 -0.00000000000E+00 -0.45593999997E+02  0.45594000000E+02  0.51100000000E-03 0.  1.
    9900012    2    1    2    0    0  0.18227145946E+01 -0.16900116181E+02  0.78575759595E+01  0.72461609120E+02  0.70000050578E+02 0.  0.
        -12    1    1    2    0    0 -0.18227145946E+01  0.16900116181E+02 -0.78575759595E+01  0.18726390880E+02  0.00000000000E+00 0.  1.
         11    1    3    3    0    0  0.10479645748E+02 -0.11566039441E+02 -0.42732749239E+00  0.15613418984E+02  0.51100000000E-03 0. -1.
        -11    1    3    3    0    0 -0.37498131935E+01  0.11456258935E+02 -0.20140100203E+02  0.23471910962E+02  0.51100000000E-03 0.  1.
        -12    1    3    3    0    0 -0.49071179595E+01 -0.16790335675E+02  0.28425003655E+02  0.33376279174E+02  0.00000000000E+00 0.  1.
</event>
<event>
 7    1  0.2604986E-013  0.7246154E+02  0.7816164E-02  0.1226708E+00
        -11   -1    0    0    0    0  0.00000000000E+00  0.00000000000E+00  0.45593999997E+02  0.45594000000E+02  0.51100000000E-03 0.  1.
         11   -1    0    0    0    0 -0.00000000000E+00 -0.00000000000E+00 -0.45593999997E+02  0.45594000000E+02  0.51100000000E-03 0. -1.
    9900012    2    1    2    0    0  0.12088671430E+02  0.13596796176E+02 -0.44352468727E+01  0.72461541232E+02  0.69999962140E+02 0.  0.
        -12    1    1    2    0    0 -0.12088671430E+02 -0.13596796176E+02  0.44352468727E+01  0.18726458768E+02  0.00000000000E+00 0.  1.
         11    1    3    3    0    0  0.29084707426E+02  0.15818461497E+02 -0.69860729506E+01  0.33837097182E+02  0.51100000000E-03 0. -1.
        -11    1    3    3    0    0 -0.82525195906E+01 -0.18181546743E+02 -0.13524920953E+01  0.20012544982E+02  0.51100000000E-03 0.  1.
        -12    1    3    3    0    0 -0.87435164056E+01  0.15959881421E+02  0.39033181732E+01  0.18611899067E+02  0.00000000000E+00 0.  1.
</event>
<event>
 7    1  0.2604986E-013  0.7246159E+02  0.7816164E-02  0.1226708E+00
        -11   -1    0    0    0    0  0.00000000000E+00  0.00000000000E+00  0.45593999997E+02  0.45594000000E+02  0.51100000000E-03 0. -1.
         11   -1    0    0    0    0 -0.00000000000E+00 -0.00000000000E+00 -0.45593999997E+02  0.45594000000E+02  0.51100000000E-03 0.  1.
    9900012    2    1    2    0    0  0.12043239192E+02  0.32265542389E+01  0.13972405504E+02  0.72461591427E+02  0.70000027529E+02 0.  0.
        -12    1    1    2    0    0 -0.12043239192E+02 -0.32265542389E+01 -0.13972405504E+02  0.18726408573E+02  0.00000000000E+00 0.  1.
         11    1    3    3    0    0  0.67448026463E+00  0.88652004294E+01  0.28864883822E+02  0.30203116074E+02  0.51100000000E-03 0. -1.
        -11    1    3    3    0    0  0.17385508662E+02  0.58766752001E+00  0.69730916097E+01  0.18741005080E+02  0.51100000000E-03 0.  1.
         12    1    3    3    0    0 -0.60167497343E+01 -0.62263137105E+01 -0.21865569927E+02  0.23517470273E+02  0.00000000000E+00 0. -1.
</event>
<event>
 7    1  0.2604986E-013  0.7246156E+02  0.7816164E-02  0.1226708E+00
        -11   -1    0    0    0    0  0.00000000000E+00  0.00000000000E+00  0.45593999997E+02  0.45594000000E+02  0.51100000000E-03 0. -1.
         11   -1    0    0    0    0 -0.00000000000E+00 -0.00000000000E+00 -0.45593999997E+02  0.45594000000E+02  0.51100000000E-03 0.  1.
    9900012    2    1    2    0    0  0.12382531399E+02  0.10944766491E+02  0.88070791750E+01  0.72461557706E+02  0.69999983602E+02 0.  0.
        -12    1    1    2    0    0 -0.12382531399E+02 -0.10944766491E+02 -0.88070791750E+01  0.18726442294E+02  0.00000000000E+00 0.  1.
         11    1    3    3    0    0 -0.16041862241E+02 -0.93310266826E+01  0.21237137000E+02  0.28203286889E+02  0.51100000000E-03 0. -1.
        -11    1    3    3    0    0  0.47660381641E+00 -0.43188821931E+00  0.52155150836E+01  0.52550239277E+01  0.51100000000E-03 0.  1.
        -12    1    3    3    0    0  0.27947789823E+02  0.20707681393E+02 -0.17645572908E+02  0.39003246890E+02  0.00000000000E+00 0.  1.
</event>
<event>
 7    1  0.2604986E-013  0.7246156E+02  0.7816164E-02  0.1226708E+00
        -11   -1    0    0    0    0  0.00000000000E+00  0.00000000000E+00  0.45593999997E+02  0.45594000000E+02  0.51100000000E-03 0. -1.
         11   -1    0    0    0    0 -0.00000000000E+00 -0.00000000000E+00 -0.45593999997E+02  0.45594000000E+02  0.51100000000E-03 0.  1.
    9900012    2    1    2    0    0 -0.10192325056E+02  0.12447932933E+02  0.95835823655E+01  0.72461559460E+02  0.69999985886E+02 0.  0.
        -12    1    1    2    0    0  0.10192325056E+02 -0.12447932933E+02 -0.95835823655E+01  0.18726440540E+02  0.00000000000E+00 0.  1.
         11    1    3    3    0    0 -0.59619860699E+01  0.17094873880E+02  0.15551828356E+02  0.23867118728E+02  0.51100000000E-03 0. -1.
        -11    1    3    3    0    0  0.19299663431E+01  0.11884999284E+02 -0.21790836045E+02  0.24896154600E+02  0.51100000000E-03 0.  1.
         12    1    3    3    0    0 -0.61603053292E+01 -0.16531940231E+02  0.15822590054E+02  0.23698286132E+02  0.00000000000E+00 0. -1.
</event>
<event>
 7    1  0.2604986E-013  0.7246153E+02  0.7816164E-02  0.1226708E+00
        -11   -1    0    0    0    0  0.00000000000E+00  0.00000000000E+00  0.45593999997E+02  0.45594000000E+02  0.51100000000E-03 0.  1.
         11   -1    0    0    0    0 -0.00000000000E+00 -0.00000000000E+00 -0.45593999997E+02  0.45594000000E+02  0.51100000000E-03 0. -1.
    9900012    2    1    2    0    0  0.16925601500E+02  0.23488043117E+01 -0.76607854144E+01  0.72461534744E+02  0.69999953689E+02 0.  0.
        -12    1    1    2    0    0 -0.16925601500E+02 -0.23488043117E+01  0.76607854144E+01  0.18726465256E+02  0.00000000000E+00 0.  1.
         11    1    3    3    0    0  0.20432012343E+02 -0.10059679531E+02 -0.25146848811E+02  0.33926807778E+02  0.51100000000E-03 0. -1.
        -11    1    3    3    0    0  0.86344784947E+01  0.79515170894E+01 -0.48692466518E+01  0.12707887555E+02  0.51100000000E-03 0.  1.
        -12    1    3    3    0    0 -0.12140889338E+02  0.44569667530E+01  0.22355310048E+02  0.25826839410E+02  0.00000000000E+00 0.  1.
</event>
<event>
 7    1  0.2604986E-013  0.7246164E+02  0.7816164E-02  0.1226708E+00
        -11   -1    0    0    0    0  0.00000000000E+00  0.00000000000E+00  0.45593999997E+02  0.45594000000E+02  0.51100000000E-03 0. -1.
         11   -1    0    0    0    0 -0.00000000000E+00 -0.00000000000E+00 -0.45593999997E+02  0.45594000000E+02  0.51100000000E-03 0.  1.
    9900012    2    1    2    0    0 -0.13122173846E+02  0.93325392143E+01  0.95597520572E+01  0.72461639061E+02  0.70000089581E+02 0.  0.
        -12    1    1    2    0    0  0.13122173846E+02 -0.93325392143E+01 -0.95597520572E+01  0.18726360939E+02  0.00000000000E+00 0.  1.
         11    1    3    3    0    0  0.14333641533E+01 -0.12705577296E+01 -0.85049838001E+00  0.20957570221E+01  0.51100000000E-03 0. -1.
        -11    1    3    3    0    0  0.56322686071E+01 -0.90713700132E+01 -0.23771722205E+02  0.26059681126E+02  0.51100000000E-03 0.  1.
         12    1    3    3    0    0 -0.20187806606E+02  0.19674466957E+02  0.34181972642E+02  0.44306200912E+02  0.00000000000E+00 0. -1.
</event>
<event>
 7    1  0.2604986E-013  0.7246153E+02  0.7816164E-02  0.1226708E+00
        -11   -1    0    0    0    0  0.00000000000E+00  0.00000000000E+00  0.45593999997E+02  0.45594000000E+02  0.51100000000E-03 0. -1.
         11   -1    0    0    0    0 -0.00000000000E+00 -0.00000000000E+00 -0.45593999997E+02  0.45594000000E+02  0.51100000000E-03 0.  1.
    9900012    2    1    2    0    0 -0.49808641104E+01 -0.78557869459E+01  0.16252952455E+02  0.72461525176E+02  0.69999941225E+02 0.  0.
        -12    1    1    2    0    0  0.49808641104E+01  0.78557869459E+01 -0.16252952455E+02  0.18726474824E+02  0.00000000000E+00 0.  1.
         11    1    3    3    0    0 -0.84263729285E+01  0.24834044744E+01  0.47333217447E+01  0.99787470914E+01  0.51100000000E-03 0. -1.
        -11    1    3    3    0    0 -0.26847143993E+02 -0.83059636100E+01 -0.39990332618E+01  0.28385743593E+02  0.51100000000E-03 0.  1.
         12    1    3    3    0    0  0.30292652811E+02 -0.20332278102E+01  0.15518663972E+02  0.34097034492E+02  0.00000000000E+00 0. -1.
</event>
<event>
 7    1  0.2604986E-013  0.7246153E+02  0.7816164E-02  0.1226708E+00
        -11   -1    0    0    0    0  0.00000000000E+00  0.00000000000E+00  0.45593999997E+02  0.45594000000E+02  0.51100000000E-03 0.  1.
         11   -1    0    0    0    0 -0.00000000000E+00 -0.00000000000E+00 -0.45593999997E+02  0.45594000000E+02  0.51100000000E-03 0. -1.
    9900012    2    1    2    0    0  0.10273371341E+02  0.14609992764E+02 -0.56291018270E+01  0.72461525835E+02  0.69999942083E+02 0.  0.
        -12    1    1    2    0    0 -0.10273371341E+02 -0.14609992764E+02  0.56291018270E+01  0.18726474165E+02  0.00000000000E+00 0.  1.
         11    1    3    3    0    0  0.36351025482E+01 -0.59430690019E+01  0.23914701998E+01  0.73656750997E+01  0.51100000000E-03 0. -1.
        -11    1    3    3    0    0 -0.23012043737E+02 -0.28538535755E+01  0.73311517832E+01  0.24319630423E+02  0.51100000000E-03 0.  1.
         12    1    3    3    0    0  0.29650312531E+02  0.23406915341E+02 -0.15351723810E+02  0.40776220312E+02  0.00000000000E+00 0. -1.
</event>
<event>
 7    1  0.2604986E-013  0.7246163E+02  0.7816164E-02  0.1226708E+00
        -11   -1    0    0    0    0  0.00000000000E+00  0.00000000000E+00  0.45593999997E+02  0.45594000000E+02  0.51100000000E-03 0.  1.
         11   -1    0    0    0    0 -0.00000000000E+00 -0.00000000000E+00 -0.45593999997E+02  0.45594000000E+02  0.51100000000E-03 0. -1.
    9900012    2    1    2    0    0 -0.17716286430E+02 -0.45069790909E+01  0.40616618288E+01  0.72461634571E+02  0.70000083732E+02 0.  0.
        -12    1    1    2    0    0  0.17716286430E+02  0.45069790909E+01 -0.40616618288E+01  0.18726365429E+02  0.00000000000E+00 0.  1.
         11    1    3    3    0    0 -0.86661221759E+01  0.25797842268E+01 -0.53613464268E+01  0.10511945395E+02  0.51100000000E-03 0. -1.
        -11    1    3    3    0    0 -0.24852375161E+02  0.78876819763E+01  0.24251666657E+02  0.35608979401E+02  0.51100000000E-03 0.  1.
         12    1    3    3    0    0  0.15802210907E+02 -0.14974445294E+02 -0.14828658401E+02  0.26340709774E+02  0.00000000000E+00 0. -1.
</event>
<event>
 7    1  0.2604986E-013  0.7246151E+02  0.7816164E-02  0.1226708E+00
        -11   -1    0    0    0    0  0.00000000000E+00  0.00000000000E+00  0.45593999997E+02  0.45594000000E+02  0.51100000000E-03 0.  1.
         11   -1    0    0    0    0 -0.00000000000E+00 -0.00000000000E+00 -0.45593999997E+02  0.45594000000E+02  0.51100000000E-03 0. -1.
    9900012    2    1    2    0    0  0.16256326995E+01 -0.98463570539E+01 -0.15845753583E+02  0.72461512462E+02  0.69999924663E+02 0.  0.
        -12    1    1    2    0    0 -0.16256326995E+01  0.98463570539E+01  0.15845753583E+02  0.18726487538E+02  0.00000000000E+00 0.  1.
         11    1    3    3    0    0 -0.12907873988E+02  0.84872005633E+01 -0.26290715175E+02  0.30493400745E+02  0.51100000000E-03 0. -1.
        -11    1    3    3    0    0  0.15844887333E+02 -0.11857647044E+02 -0.87716431951E+01  0.21647308670E+02  0.51100000000E-03 0.  1.
        -12    1    3    3    0    0 -0.13113806455E+01 -0.64759105727E+01  0.19216604788E+02  0.20320803048E+02  0.00000000000E+00 0.  1.
</event>
<event>
 7    1  0.2604986E-013  0.7246156E+02  0.7816164E-02  0.1226708E+00
        -11   -1    0    0    0    0  0.00000000000E+00  0.00000000000E+00  0.45593999997E+02  0.45594000000E+02  0.51100000000E-03 0.  1.
         11   -1    0    0    0    0 -0.00000000000E+00 -0.00000000000E+00 -0.45593999997E+02  0.45594000000E+02  0.51100000000E-03 0. -1.
    9900012    2    1    2    0    0 -0.42234069217E+01  0.15186966080E+01 -0.18180648078E+02  0.72461559603E+02  0.69999986072E+02 0.  0.
        -12    1    1    2    0    0  0.42234069217E+01 -0.15186966080E+01  0.18180648078E+02  0.18726440397E+02  0.00000000000E+00 0.  1.
         11    1    3    3    0    0 -0.15546199162E+02  0.20982456229E+02  0.59255951689E+01  0.26777984542E+02  0.51100000000E-03 0. -1.
        -11    1    3    3    0    0  0.12377612990E+02 -0.71675400475E+01  0.41137704293E+01  0.14882944637E+02  0.51100000000E-03 0.  1.
        -12    1    3    3    0    0 -0.10548207500E+01 -0.12296219573E+02 -0.28220013676E+02  0.30800630424E+02  0.00000000000E+00 0.  1.
</event>
<event>
 7    1  0.2604986E-013  0.7246164E+02  0.7816164E-02  0.1226708E+00
        -11   -1    0    0    0    0  0.00000000000E+00  0.00000000000E+00  0.45593999997E+02  0.45594000000E+02  0.51100000000E-03 0. -1.
         11   -1    0    0    0    0 -0.00000000000E+00 -0.00000000000E+00 -0.45593999997E+02  0.45594000000E+02  0.51100000000E-03 0.  1.
    9900012    2    1    2    0    0 -0.11505330906E+02  0.13684966854E+02 -0.55700712527E+01  0.72461637544E+02  0.70000087605E+02 0.  0.
        -12    1    1    2    0    0  0.11505330906E+02 -0.13684966854E+02  0.55700712527E+01  0.18726362456E+02  0.00000000000E+00 0.  1.
         11    1    3    3    0    0  0.23841672036E+02  0.18527119275E+01  0.66121393918E+01  0.24810849533E+02  0.51100000000E-03 0. -1.
        -11    1    3    3    0    0 -0.22393903137E+01  0.71965526510E+01 -0.12058296535E+02  0.14219977307E+02  0.51100000000E-03 0.  1.
        -12    1    3    3    0    0 -0.33107612629E+02  0.46357022755E+01 -0.12391410964E+00  0.33430810704E+02  0.00000000000E+00 0.  1.
</event>
<event>
 7    1  0.3397702E-013  0.7246160E+02  0.7816164E-02  0.1226708E+00
        -11   -1    0    0    0    0  0.00000000000E+00  0.00000000000E+00  0.45593999997E+02  0.45594000000E+02  0.51100000000E-03 0. -1.
         11   -1    0    0    0    0 -0.00000000000E+00 -0.00000000000E+00 -0.45593999997E+02  0.45594000000E+02  0.51100000000E-03 0.  1.
    9900012    2    1    2    0    0  0.59396278478E+01 -0.66528966359E+01  0.16466264264E+02  0.72461599614E+02  0.70000038194E+02 0.  0.
        -12    1    1    2    0    0 -0.59396278478E+01  0.66528966359E+01 -0.16466264264E+02  0.18726400386E+02  0.00000000000E+00 0.  1.
         11    1    3    3    0    0  0.10041437953E+02  0.13767062604E+02 -0.32081767542E+01  0.17339402737E+02  0.51100000000E-03 0. -1.
        -11    1    3    3    0    0 -0.10769438928E+02 -0.62303987754E+01 -0.13543134274E+02  0.18390627231E+02  0.51100000000E-03 0.  1.
         12    1    3    3    0    0  0.66676288235E+01 -0.14189560465E+02  0.33217575293E+02  0.36731569646E+02  0.00000000000E+00 0. -1.
</event>
<event>
 7    1  0.2604986E-013  0.7246161E+02  0.7816164E-02  0.1226708E+00
        -11   -1    0    0    0    0  0.00000000000E+00  0.00000000000E+00  0.45593999997E+02  0.45594000000E+02  0.51100000000E-03 0. -1.
         11   -1    0    0    0    0 -0.00000000000E+00 -0.00000000000E+00 -0.45593999997E+02  0.45594000000E+02  0.51100000000E-03 0.  1.
    9900012    2    1    2    0    0 -0.93110642086E+01  0.63661632945E+01  0.14948370873E+02  0.72461608369E+02  0.70000049599E+02 0.  0.
        -12    1    1    2    0    0  0.93110642086E+01 -0.63661632945E+01 -0.14948370873E+02  0.18726391631E+02  0.00000000000E+00 0.  1.
         11    1    3    3    0    0 -0.14461403220E+02  0.94572429208E+01  0.90818371215E+01  0.19520537711E+02  0.51100000000E-03 0. -1.
        -11    1    3    3    0    0  0.26570405120E+02  0.66738439724E+01  0.97560314836E+01  0.29081038018E+02  0.51100000000E-03 0.  1.
        -12    1    3    3    0    0 -0.21420066109E+02 -0.97649235987E+01 -0.38894977325E+01  0.23860032640E+02  0.00000000000E+00 0.  1.
</event>
<event>
 7    1  0.2604986E-013  0.7246216E+02  0.7816164E-02  0.1226706E+00
        -11   -1    0    0    0    0  0.00000000000E+00  0.00000000000E+00  0.45593999997E+02  0.45594000000E+02  0.51100000000E-03 0. -1.
         11   -1    0    0    0    0 -0.00000000000E+00 -0.00000000000E+00 -0.45593999997E+02  0.45594000000E+02  0.51100000000E-03 0.  1.
    9900012    2    1    2    0    0  0.69592501479E+01  0.74550587800E+01  0.15705026596E+02  0.72462164254E+02  0.70000773738E+02 0.  0.
        -12    1    1    2    0    0 -0.69592501479E+01 -0.74550587800E+01 -0.15705026596E+02  0.18725835746E+02  0.00000000000E+00 0.  1.
         11    1    3    3    0    0  0.34613814965E+01  0.19663235965E+02 -0.29547262687E+01  0.20183023016E+02  0.51100000000E-03 0. -1.
        -11    1    3    3    0    0  0.23653020509E+02  0.13130890280E+01  0.14148682397E+02  0.27593020781E+02  0.51100000000E-03 0.  1.
         12    1    3    3    0    0 -0.20155151858E+02 -0.13521266213E+02  0.45110704672E+01  0.24686120456E+02  0.00000000000E+00 0. -1.
</event>
<event>
 7    1  0.2604986E-013  0.7246157E+02  0.7816164E-02  0.1226708E+00
        -11   -1    0    0    0    0  0.00000000000E+00  0.00000000000E+00  0.45593999997E+02  0.45594000000E+02  0.51100000000E-03 0. -1.
         11   -1    0    0    0    0 -0.00000000000E+00 -0.00000000000E+00 -0.45593999997E+02  0.45594000000E+02  0.51100000000E-03 0.  1.
    9900012    2    1    2    0    0  0.11774639278E+02 -0.12832069579E+02  0.68829530247E+01  0.72461569958E+02  0.69999999561E+02 0.  0.
        -12    1    1    2    0    0 -0.11774639278E+02  0.12832069579E+02 -0.68829530247E+01  0.18726430042E+02  0.00000000000E+00 0.  1.
         11    1    3    3    0    0 -0.78792095566E+01 -0.60298567353E+01 -0.11461777508E+02  0.15159599579E+02  0.51100000000E-03 0. -1.
        -11    1    3    3    0    0  0.23207031315E+02 -0.21254259754E+01 -0.12126085600E+02  0.26270243438E+02  0.51100000000E-03 0.  1.
         12    1    3    3    0    0 -0.35531824810E+01 -0.46767868681E+01  0.30470816133E+02  0.31031726941E+02  0.00000000000E+00 0. -1.
</event>
<event>
 7    1  0.2604986E-013  0.7246139E+02  0.7816164E-02  0.1226708E+00
        -11   -1    0    0    0    0  0.00000000000E+00  0.00000000000E+00  0.45593999997E+02  0.45594000000E+02  0.51100000000E-03 0. -1.
         11   -1    0    0    0    0 -0.00000000000E+00 -0.00000000000E+00 -0.45593999997E+02  0.45594000000E+02  0.51100000000E-03 0.  1.
    9900012    2    1    2    0    0 -0.81690935960E+01  0.15107044568E+02 -0.74651950022E+01  0.72461387328E+02  0.69999761652E+02 0.  0.
        -12    1    1    2    0    0  0.81690935960E+01 -0.15107044568E+02  0.74651950022E+01  0.18726612672E+02  0.00000000000E+00 0.  1.
         11    1    3    3    0    0 -0.28931001028E+02  0.47857338726E+01 -0.59477979878E+01  0.29921269531E+02  0.51100000000E-03 0. -1.
        -11    1    3    3    0    0  0.83707272162E+01 -0.13280801185E+02  0.12021783252E+01  0.15744649480E+02  0.51100000000E-03 0.  1.
        -12    1    3    3    0    0  0.12391180216E+02  0.23602111880E+02 -0.27195753396E+01  0.26795468318E+02  0.00000000000E+00 0.  1.
</event>
<event>
 7    1  0.2604986E-013  0.7246156E+02  0.7816164E-02  0.1226708E+00
        -11   -1    0    0    0    0  0.00000000000E+00  0.00000000000E+00  0.45593999997E+02  0.45594000000E+02  0.51100000000E-03 0.  1.
         11   -1    0    0    0    0 -0.00000000000E+00 -0.00000000000E+00 -0.45593999997E+02  0.45594000000E+02  0.51100000000E-03 0. -1.
    9900012    2    1    2    0    0 -0.10426007360E+02 -0.22407070574E+01 -0.15393416212E+02  0.72461557192E+02  0.69999982931E+02 0.  0.
        -12    1    1    2    0    0  0.10426007360E+02  0.22407070574E+01  0.15393416212E+02  0.18726442808E+02  0.00000000000E+00 0.  1.
         11    1    3    3    0    0 -0.65269588097E+01 -0.22275496733E+02 -0.21689756006E+02  0.31768608120E+02  0.51100000000E-03 0. -1.
        -11    1    3    3    0    0  0.87204678661E+01 -0.58790526639E+01  0.54776103486E+01  0.11858078909E+02  0.51100000000E-03 0.  1.
         12    1    3    3    0    0 -0.12619516416E+02  0.25913842340E+02  0.81872944556E+00  0.28834870163E+02  0.00000000000E+00 0. -1.
</event>
<event>
 7    1  0.2604986E-013  0.7246158E+02  0.7816164E-02  0.1226708E+00
        -11   -1    0    0    0    0  0.00000000000E+00  0.00000000000E+00  0.45593999997E+02  0.45594000000E+02  0.51100000000E-03 0.  1.
         11   -1    0    0    0    0 -0.00000000000E+00 -0.00000000000E+00 -0.45593999997E+02  0.45594000000E+02  0.51100000000E-03 0. -1.
    9900012    2    1    2    0    0  0.42941269630E+01 -0.17966094702E+02  0.30755135917E+01  0.72461578317E+02  0.70000010451E+02 0.  0.
        -12    1    1    2    0    0 -0.42941269630E+01  0.17966094702E+02 -0.30755135917E+01  0.18726421683E+02  0.00000000000E+00 0.  1.
         11    1    3    3    0    0  0.16170367609E+02 -0.12320393041E+02  0.22162611874E+02  0.30074145685E+02  0.51100000000E-03 0. -1.
        -11    1    3    3    0    0  0.72872563623E+01 -0.16730943134E+01  0.66829722812E+01  0.10028233575E+02  0.51100000000E-03 0.  1.
         12    1    3    3    0    0 -0.19163497008E+02 -0.39726073471E+01 -0.25770070564E+02  0.32359199057E+02  0.00000000000E+00 0. -1.
</event>
<event>
 7    1  0.2604986E-013  0.7246164E+02  0.7816164E-02  0.1226708E+00
        -11   -1    0    0    0    0  0.00000000000E+00  0.00000000000E+00  0.45593999997E+02  0.45594000000E+02  0.51100000000E-03 0. -1.
         11   -1    0    0    0    0 -0.00000000000E+00 -0.00000000000E+00 -0.45593999997E+02  0.45594000000E+02  0.51100000000E-03 0.  1.
    9900012    2    1    2    0    0 -0.85060108109E+01 -0.96870058063E+01  0.13582568565E+02  0.72461642366E+02  0.70000093887E+02 0.  0.
        -12    1    1    2    0    0  0.85060108109E+01  0.96870058063E+01 -0.13582568565E+02  0.18726357634E+02  0.00000000000E+00 0.  1.
         11    1    3    3    0    0 -0.43282676580E+01 -0.18164645689E+02  0.10395354433E+01  0.18702109189E+02  0.51100000000E-03 0. -1.
        -11    1    3    3    0    0 -0.17356781399E+02 -0.13471801862E+02 -0.52396179736E+01  0.22587627205E+02  0.51100000000E-03 0.  1.
         12    1    3    3    0    0  0.13179038246E+02  0.21949441745E+02  0.17782651095E+02  0.31171905973E+02  0.00000000000E+00 0. -1.
</event>
<event>
 7    1  0.2604986E-013  0.7246160E+02  0.7816164E-02  0.1226708E+00
        -11   -1    0    0    0    0  0.00000000000E+00  0.00000000000E+00  0.45593999997E+02  0.45594000000E+02  0.51100000000E-03 0.  1.
         11   -1    0    0    0    0 -0.00000000000E+00 -0.00000000000E+00 -0.45593999997E+02  0.45594000000E+02  0.51100000000E-03 0. -1.
    9900012    2    1    2    0    0  0.13238975239E+02  0.97640370078E+01 -0.89482570556E+01  0.72461596490E+02  0.70000034125E+02 0.  0.
        -12    1    1    2    0    0 -0.13238975239E+02 -0.97640370078E+01  0.89482570556E+01  0.18726403510E+02  0.00000000000E+00 0.  1.
         11    1    3    3    0    0  0.89256166669E+01 -0.11726079519E+02  0.83478890299E+00  0.14760231927E+02  0.51100000000E-03 0. -1.
        -11    1    3    3    0    0  0.25899242211E+02  0.10986542221E+02  0.62691434290E+01  0.28823202748E+02  0.51100000000E-03 0.  1.
         12    1    3    3    0    0 -0.21585883639E+02  0.10503574306E+02 -0.16052189388E+02  0.28878161814E+02  0.00000000000E+00 0. -1.
</event>
<event>
 7    1  0.2604986E-013  0.7246163E+02  0.7816164E-02  0.1226708E+00
        -11   -1    0    0    0    0  0.00000000000E+00  0.00000000000E+00  0.45593999997E+02  0.45594000000E+02  0.51100000000E-03 0.  1.
         11   -1    0    0    0    0 -0.00000000000E+00 -0.00000000000E+00 -0.45593999997E+02  0.45594000000E+02  0.51100000000E-03 0. -1.
    9900012    2    1    2    0    0 -0.13076224900E+02 -0.13091926698E+02 -0.28793931761E+01  0.72461625354E+02  0.70000071726E+02 0.  0.
        -12    1    1    2    0    0  0.13076224900E+02  0.13091926698E+02  0.28793931761E+01  0.18726374646E+02  0.00000000000E+00 0.  1.
         11    1    3    3    0    0 -0.85742470917E+01  0.29964506008E+01  0.36962436735E+01  0.98060515473E+01  0.51100000000E-03 0. -1.
        -11    1    3    3    0    0 -0.73419715770E+01  0.19412126002E+02 -0.15544071868E+02  0.25929777343E+02  0.51100000000E-03 0.  1.
         12    1    3    3    0    0  0.28399937684E+01 -0.35500503301E+02  0.89684350185E+01  0.36725796464E+02  0.00000000000E+00 0. -1.
</event>
<event>
 7    1  0.2604986E-013  0.7246157E+02  0.7816164E-02  0.1226708E+00
        -11   -1    0    0    0    0  0.00000000000E+00  0.00000000000E+00  0.45593999997E+02  0.45594000000E+02  0.51100000000E-03 0.  1.
         11   -1    0    0    0    0 -0.00000000000E+00 -0.00000000000E+00 -0.45593999997E+02  0.45594000000E+02  0.51100000000E-03 0. -1.
    9900012    2    1    2    0    0  0.20566403402E+01 -0.75470041954E+01 -0.17014463706E+02  0.72461574366E+02  0.70000005304E+02 0.  0.
        -12    1    1    2    0    0 -0.20566403402E+01  0.75470041954E+01  0.17014463706E+02  0.18726425634E+02  0.00000000000E+00 0.  1.
         11    1    3    3    0    0 -0.94326029075E+00 -0.11678137675E+02 -0.26979389732E+02  0.29413536172E+02  0.51100000000E-03 0. -1.
        -11    1    3    3    0    0 -0.33095667516E+01  0.89568735841E+01 -0.14479938278E+02  0.17344954001E+02  0.51100000000E-03 0.  1.
        -12    1    3    3    0    0  0.63094673826E+01 -0.48257401043E+01  0.24444864304E+02  0.25703084193E+02  0.00000000000E+00 0.  1.
</event>
<event>
 7    1  0.2604986E-013  0.7246155E+02  0.7816164E-02  0.1226708E+00
        -11   -1    0    0    0    0  0.00000000000E+00  0.00000000000E+00  0.45593999997E+02  0.45594000000E+02  0.51100000000E-03 0. -1.
         11   -1    0    0    0    0 -0.00000000000E+00 -0.00000000000E+00 -0.45593999997E+02  0.45594000000E+02  0.51100000000E-03 0.  1.
    9900012    2    1    2    0    0 -0.14190156912E+02 -0.93209110300E+01  0.79018934477E+01  0.72461551974E+02  0.69999976135E+02 0.  0.
        -12    1    1    2    0    0  0.14190156912E+02  0.93209110300E+01 -0.79018934477E+01  0.18726448026E+02  0.00000000000E+00 0.  1.
         11    1    3    3    0    0 -0.66360067957E+01 -0.16545081714E+02  0.19659859018E+01  0.17934364107E+02  0.51100000000E-03 0. -1.
        -11    1    3    3    0    0 -0.28980730488E+02  0.19089671727E+01 -0.56616268710E+01  0.29590216532E+02  0.51100000000E-03 0.  1.
         12    1    3    3    0    0  0.21426580373E+02  0.53152035111E+01  0.11597534417E+02  0.24936971335E+02  0.00000000000E+00 0. -1.
</event>
<event>
 7    1  0.2604986E-013  0.7246155E+02  0.7816164E-02  0.1226708E+00
        -11   -1    0    0    0    0  0.00000000000E+00  0.00000000000E+00  0.45593999997E+02  0.45594000000E+02  0.51100000000E-03 0.  1.
         11   -1    0    0    0    0 -0.00000000000E+00 -0.00000000000E+00 -0.45593999997E+02  0.45594000000E+02  0.51100000000E-03 0. -1.
    9900012    2    1    2    0    0  0.14965319697E+02  0.27656460555E+01 -0.10911934803E+02  0.72461550447E+02  0.69999974145E+02 0.  0.
        -12    1    1    2    0    0 -0.14965319697E+02 -0.27656460555E+01  0.10911934803E+02  0.18726449553E+02  0.00000000000E+00 0.  1.
         11    1    3    3    0    0  0.70231311028E+01 -0.47262195264E+01 -0.27352740942E+02  0.28632742774E+02  0.51100000000E-03 0. -1.
        -11    1    3    3    0    0  0.19259926769E+02 -0.74536900655E+01  0.32503845991E+01  0.20906153999E+02  0.51100000000E-03 0.  1.
         12    1    3    3    0    0 -0.11317738175E+02  0.14945555647E+02  0.13190421540E+02  0.22922653673E+02  0.00000000000E+00 0. -1.
</event>
<event>
 7    1  0.2604986E-013  0.7246157E+02  0.7816164E-02  0.1226708E+00
        -11   -1    0    0    0    0  0.00000000000E+00  0.00000000000E+00  0.45593999997E+02  0.45594000000E+02  0.51100000000E-03 0. -1.
         11   -1    0    0    0    0 -0.00000000000E+00 -0.00000000000E+00 -0.45593999997E+02  0.45594000000E+02  0.51100000000E-03 0.  1.
    9900012    2    1    2    0    0 -0.94855358904E+01  0.13069581860E+02  0.94810214680E+01  0.72461571371E+02  0.70000001403E+02 0.  0.
        -12    1    1    2    0    0  0.94855358904E+01 -0.13069581860E+02 -0.94810214680E+01  0.18726428629E+02  0.00000000000E+00 0.  1.
         11    1    3    3    0    0 -0.23357123816E+02  0.10812018164E+02  0.13620659823E+02  0.29120050550E+02  0.51100000000E-03 0. -1.
        -11    1    3    3    0    0 -0.11891151508E+02  0.36251868238E+01 -0.11050472197E+02  0.16632931182E+02  0.51100000000E-03 0.  1.
         12    1    3    3    0    0  0.25762739433E+02 -0.13676231278E+01  0.69108338414E+01  0.26708589639E+02  0.00000000000E+00 0. -1.
</event>
<event>
 7    1  0.2604986E-013  0.7246143E+02  0.7816164E-02  0.1226708E+00
        -11   -1    0    0    0    0  0.00000000000E+00  0.00000000000E+00  0.45593999997E+02  0.45594000000E+02  0.51100000000E-03 0.  1.
         11   -1    0    0    0    0 -0.00000000000E+00 -0.00000000000E+00 -0.45593999997E+02  0.45594000000E+02  0.51100000000E-03 0. -1.
    9900012    2    1    2    0    0  0.43467025401E+01 -0.25969188195E+01 -0.18029049356E+02  0.72461429812E+02  0.69999816995E+02 0.  0.
        -12    1    1    2    0    0 -0.43467025401E+01  0.25969188195E+01  0.18029049356E+02  0.18726570188E+02  0.00000000000E+00 0.  1.
         11    1    3    3    0    0 -0.12310859805E+02 -0.16596616604E+02 -0.15090667098E+02  0.25587754602E+02  0.51100000000E-03 0. -1.
        -11    1    3    3    0    0  0.15127217812E+02 -0.11621663994E+02 -0.80458509606E+01  0.20703417849E+02  0.51100000000E-03 0.  1.
         12    1    3    3    0    0  0.15303445330E+01  0.25621361778E+02  0.51074687027E+01  0.26170257360E+02  0.00000000000E+00 0. -1.
</event>
<event>
 7    1  0.2604986E-013  0.7246159E+02  0.7816164E-02  0.1226708E+00
        -11   -1    0    0    0    0  0.00000000000E+00  0.00000000000E+00  0.45593999997E+02  0.45594000000E+02  0.51100000000E-03 0.  1.
         11   -1    0    0    0    0 -0.00000000000E+00 -0.00000000000E+00 -0.45593999997E+02  0.45594000000E+02  0.51100000000E-03 0. -1.
    9900012    2    1    2    0    0 -0.16818102626E+02  0.82142875703E+01 -0.59612316219E+00  0.72461589264E+02  0.70000024711E+02 0.  0.
        -12    1    1    2    0    0  0.16818102626E+02 -0.82142875703E+01  0.59612316219E+00  0.18726410736E+02  0.00000000000E+00 0.  1.
         11    1    3    3    0    0 -0.33920023149E+02  0.17951971672E+01 -0.17127926722E+01  0.34010650719E+02  0.51100000000E-03 0. -1.
        -11    1    3    3    0    0 -0.77494420215E+01  0.84555484263E+01 -0.54023937805E+01  0.12678170596E+02  0.51100000000E-03 0.  1.
        -12    1    3    3    0    0  0.24851362544E+02 -0.20364580233E+01  0.65190632905E+01  0.25772767949E+02  0.00000000000E+00 0.  1.
</event>
<event>
 7    1  0.2604986E-013  0.7246160E+02  0.7816164E-02  0.1226708E+00
        -11   -1    0    0    0    0  0.00000000000E+00  0.00000000000E+00  0.45593999997E+02  0.45594000000E+02  0.51100000000E-03 0.  1.
         11   -1    0    0    0    0 -0.00000000000E+00 -0.00000000000E+00 -0.45593999997E+02  0.45594000000E+02  0.51100000000E-03 0. -1.
    9900012    2    1    2    0    0 -0.21901326928E+01 -0.16123140986E+02 -0.92696109745E+01  0.72461600344E+02  0.70000039145E+02 0.  0.
        -12    1    1    2    0    0  0.21901326928E+01  0.16123140986E+02  0.92696109745E+01  0.18726399656E+02  0.00000000000E+00 0.  1.
         11    1    3    3    0    0  0.45240905097E+01 -0.18884396958E+01 -0.20999258562E+02  0.21563915689E+02  0.51100000000E-03 0. -1.
        -11    1    3    3    0    0  0.24686941931E+01 -0.30629587371E+02  0.68538060844E+01  0.31483975791E+02  0.51100000000E-03 0.  1.
        -12    1    3    3    0    0 -0.91829173957E+01  0.16394886080E+02  0.48758415031E+01  0.19413708864E+02  0.00000000000E+00 0.  1.
</event>
<event>
 7    1  0.2604986E-013  0.7246165E+02  0.7816164E-02  0.1226708E+00
        -11   -1    0    0    0    0  0.00000000000E+00  0.00000000000E+00  0.45593999997E+02  0.45594000000E+02  0.51100000000E-03 0. -1.
         11   -1    0    0    0    0 -0.00000000000E+00 -0.00000000000E+00 -0.45593999997E+02  0.45594000000E+02  0.51100000000E-03 0.  1.
    9900012    2    1    2    0    0  0.95068467680E+01  0.12797983704E+02  0.98238307811E+01  0.72461650287E+02  0.70000104205E+02 0.  0.
        -12    1    1    2    0    0 -0.95068467680E+01 -0.12797983704E+02 -0.98238307811E+01  0.18726349713E+02  0.00000000000E+00 0.  1.
         11    1    3    3    0    0 -0.25568498252E+02  0.14957415691E+01  0.31709562168E+01  0.25807756766E+02  0.51100000000E-03 0. -1.
        -11    1    3    3    0    0  0.58512501120E+01 -0.85861258269E+01 -0.11487104370E+01  0.10453622363E+02  0.51100000000E-03 0.  1.
        -12    1    3    3    0    0  0.29224094908E+02  0.19888367962E+02  0.78015850013E+01  0.36200271158E+02  0.00000000000E+00 0.  1.
</event>
<event>
 7    1  0.2604986E-013  0.7246159E+02  0.7816164E-02  0.1226708E+00
        -11   -1    0    0    0    0  0.00000000000E+00  0.00000000000E+00  0.45593999997E+02  0.45594000000E+02  0.51100000000E-03 0.  1.
         11   -1    0    0    0    0 -0.00000000000E+00 -0.00000000000E+00 -0.45593999997E+02  0.45594000000E+02  0.51100000000E-03 0. -1.
    9900012    2    1    2    0    0  0.14097857044E+01  0.87197893237E+00 -0.18652899158E+02  0.72461588438E+02  0.70000023635E+02 0.  0.
        -12    1    1    2    0    0 -0.14097857044E+01 -0.87197893237E+00  0.18652899158E+02  0.18726411562E+02  0.00000000000E+00 0.  1.
         11    1    3    3    0    0 -0.26188822246E+01 -0.99427164050E+00  0.41668064663E+01  0.50208959948E+01  0.51100000000E-03 0. -1.
        -11    1    3    3    0    0 -0.11133704091E+02 -0.27829948170E+02 -0.13081686595E+02  0.32704677132E+02  0.51100000000E-03 0.  1.
         12    1    3    3    0    0  0.15162372020E+02  0.29696198742E+02 -0.97380190297E+01  0.34736015310E+02  0.00000000000E+00 0. -1.
</event>
<event>
 7    1  0.2604986E-013  0.7246118E+02  0.7816164E-02  0.1226709E+00
        -11   -1    0    0    0    0  0.00000000000E+00  0.00000000000E+00  0.45593999997E+02  0.45594000000E+02  0.51100000000E-03 0.  1.
         11   -1    0    0    0    0 -0.00000000000E+00 -0.00000000000E+00 -0.45593999997E+02  0.45594000000E+02  0.51100000000E-03 0. -1.
    9900012    2    1    2    0    0 -0.46428734532E+01  0.17426024928E+02 -0.50468785231E+01  0.72461184961E+02  0.69999498029E+02 0.  0.
        -12    1    1    2    0    0  0.46428734532E+01 -0.17426024928E+02  0.50468785231E+01  0.18726815039E+02  0.00000000000E+00 0.  1.
         11    1    3    3    0    0 -0.12670182239E+01  0.19679036527E+02 -0.20922329546E+02  0.28750890207E+02  0.51100000000E-03 0. -1.
        -11    1    3    3    0    0  0.36972787310E+01  0.18313226719E+02  0.99590541272E+01  0.21171369872E+02  0.51100000000E-03 0.  1.
        -12    1    3    3    0    0 -0.70731339603E+01 -0.20566238318E+02  0.59163968957E+01  0.22538924882E+02  0.00000000000E+00 0.  1.
</event>
<event>
 7    1  0.2604986E-013  0.7246161E+02  0.7816164E-02  0.1226708E+00
        -11   -1    0    0    0    0  0.00000000000E+00  0.00000000000E+00  0.45593999997E+02  0.45594000000E+02  0.51100000000E-03 0. -1.
         11   -1    0    0    0    0 -0.00000000000E+00 -0.00000000000E+00 -0.45593999997E+02  0.45594000000E+02  0.51100000000E-03 0.  1.
    9900012    2    1    2    0    0  0.78625051980E+00 -0.10517221166E+02  0.15474095621E+02  0.72461607762E+02  0.70000048809E+02 0.  0.
        -12    1    1    2    0    0 -0.78625051980E+00  0.10517221166E+02 -0.15474095621E+02  0.18726392238E+02  0.00000000000E+00 0.  1.
         11    1    3    3    0    0 -0.20310297830E+02 -0.59331179857E+01  0.22452404154E+02  0.30851588931E+02  0.51100000000E-03 0. -1.
        -11    1    3    3    0    0  0.73051145052E+01  0.47242895235E+01  0.12979980908E+02  0.15625732433E+02  0.51100000000E-03 0.  1.
        -12    1    3    3    0    0  0.13791433845E+02 -0.93083927042E+01 -0.19958289441E+02  0.25984286398E+02  0.00000000000E+00 0.  1.
</event>
<event>
 7    1  0.2604986E-013  0.7246156E+02  0.7816164E-02  0.1226708E+00
        -11   -1    0    0    0    0  0.00000000000E+00  0.00000000000E+00  0.45593999997E+02  0.45594000000E+02  0.51100000000E-03 0. -1.
         11   -1    0    0    0    0 -0.00000000000E+00 -0.00000000000E+00 -0.45593999997E+02  0.45594000000E+02  0.51100000000E-03 0.  1.
    9900012    2    1    2    0    0 -0.17503004312E+01 -0.18471762540E+02 -0.25317761934E+01  0.72461562709E+02  0.69999990118E+02 0.  0.
        -12    1    1    2    0    0  0.17503004312E+01  0.18471762540E+02  0.25317761934E+01  0.18726437291E+02  0.00000000000E+00 0.  1.
         11    1    3    3    0    0  0.17813636907E+02 -0.22908930099E+02  0.39841577294E+01  0.29291948573E+02  0.51100000000E-03 0. -1.
        -11    1    3    3    0    0 -0.63795894472E+01 -0.14193654314E+02  0.65347880595E+01  0.16877868335E+02  0.51100000000E-03 0.  1.
        -12    1    3    3    0    0 -0.13184347891E+02  0.18630821873E+02 -0.13050721982E+02  0.26291745800E+02  0.00000000000E+00 0.  1.
</event>
<event>
 7    1  0.2604986E-013  0.7246155E+02  0.7816164E-02  0.1226708E+00
        -11   -1    0    0    0    0  0.00000000000E+00  0.00000000000E+00  0.45593999997E+02  0.45594000000E+02  0.51100000000E-03 0.  1.
         11   -1    0    0    0    0 -0.00000000000E+00 -0.00000000000E+00 -0.45593999997E+02  0.45594000000E+02  0.51100000000E-03 0. -1.
    9900012    2    1    2    0    0  0.60417305718E+01 -0.79514700419E+00 -0.17707204030E+02  0.72461552349E+02  0.69999976623E+02 0.  0.
        -12    1    1    2    0    0 -0.60417305718E+01  0.79514700419E+00  0.17707204030E+02  0.18726447651E+02  0.00000000000E+00 0.  1.
         11    1    3    3    0    0 -0.43441769319E+01 -0.11631755433E+01 -0.25413375915E+02  0.25808225941E+02  0.51100000000E-03 0. -1.
        -11    1    3    3    0    0 -0.14836322434E+02 -0.10026160138E+02  0.73900819365E+01  0.19371465142E+02  0.51100000000E-03 0.  1.
        -12    1    3    3    0    0  0.25222229938E+02  0.10394188677E+02  0.31608994826E+00  0.27281861266E+02  0.00000000000E+00 0.  1.
</event>
<event>
 7    1  0.2604986E-013  0.7246166E+02  0.7816164E-02  0.1226708E+00
        -11   -1    0    0    0    0  0.00000000000E+00  0.00000000000E+00  0.45593999997E+02  0.45594000000E+02  0.51100000000E-03 0. -1.
         11   -1    0    0    0    0 -0.00000000000E+00 -0.00000000000E+00 -0.45593999997E+02  0.45594000000E+02  0.51100000000E-03 0.  1.
    9900012    2    1    2    0    0  0.13887424429E+02 -0.12172138001E+02  0.31071237284E+01  0.72461662434E+02  0.70000120029E+02 0.  0.
        -12    1    1    2    0    0 -0.13887424429E+02  0.12172138001E+02 -0.31071237284E+01  0.18726337566E+02  0.00000000000E+00 0.  1.
         11    1    3    3    0    0 -0.49653488279E+01 -0.40532412676E+01  0.18933032830E+02  0.19988576392E+02  0.51100000000E-03 0. -1.
        -11    1    3    3    0    0  0.65920798480E+01 -0.22321685929E+02  0.56547577878E+01  0.23951815492E+02  0.51100000000E-03 0.  1.
        -12    1    3    3    0    0  0.12260693409E+02  0.14202789197E+02 -0.21480666889E+02  0.28521270551E+02  0.00000000000E+00 0.  1.
</event>
<event>
 7    1  0.2604986E-013  0.7246103E+02  0.7816164E-02  0.1226709E+00
        -11   -1    0    0    0    0  0.00000000000E+00  0.00000000000E+00  0.45593999997E+02  0.45594000000E+02  0.51100000000E-03 0.  1.
         11   -1    0    0    0    0 -0.00000000000E+00 -0.00000000000E+00 -0.45593999997E+02  0.45594000000E+02  0.51100000000E-03 0. -1.
    9900012    2    1    2    0    0 -0.39104249226E+01  0.13706015788E+02 -0.12147142532E+02  0.72461031117E+02  0.69999297617E+02 0.  0.
        -12    1    1    2    0    0  0.39104249226E+01 -0.13706015788E+02  0.12147142532E+02  0.18726968883E+02  0.00000000000E+00 0.  1.
         11    1    3    3    0    0 -0.27970754721E+02  0.61361846946E+01 -0.22073144885E+00  0.28636770155E+02  0.51100000000E-03 0. -1.
        -11    1    3    3    0    0 -0.43193745773E-01  0.16368530424E+02 -0.28990072086E+01  0.16623323885E+02  0.51100000000E-03 0.  1.
         12    1    3    3    0    0  0.24103523544E+02 -0.87986993303E+01 -0.90274038748E+01  0.27200937077E+02  0.00000000000E+00 0. -1.
</event>
<event>
 7    1  0.2604986E-013  0.7246159E+02  0.7816164E-02  0.1226708E+00
        -11   -1    0    0    0    0  0.00000000000E+00  0.00000000000E+00  0.45593999997E+02  0.45594000000E+02  0.51100000000E-03 0. -1.
         11   -1    0    0    0    0 -0.00000000000E+00 -0.00000000000E+00 -0.45593999997E+02  0.45594000000E+02  0.51100000000E-03 0.  1.
    9900012    2    1    2    0    0 -0.14605557417E+02  0.11688147384E+02  0.86227278859E+00  0.72461585204E+02  0.70000019423E+02 0.  0.
        -12    1    1    2    0    0  0.14605557417E+02 -0.11688147384E+02 -0.86227278859E+00  0.18726414796E+02  0.00000000000E+00 0.  1.
         11    1    3    3    0    0  0.94157899996E+01  0.79240347679E+01 -0.46468615312E+00  0.12315167957E+02  0.51100000000E-03 0. -1.
        -11    1    3    3    0    0  0.17003550179E+01 -0.72046108204E+01 -0.22326201697E+02  0.23521413791E+02  0.51100000000E-03 0.  1.
         12    1    3    3    0    0 -0.25721702435E+02  0.10968723436E+02  0.23653160639E+02  0.36625003456E+02  0.00000000000E+00 0. -1.
</event>
<event>
 7    1  0.2604986E-013  0.7246159E+02  0.7816164E-02  0.1226708E+00
        -11   -1    0    0    0    0  0.00000000000E+00  0.00000000000E+00  0.45593999997E+02  0.45594000000E+02  0.51100000000E-03 0.  1.
         11   -1    0    0    0    0 -0.00000000000E+00 -0.00000000000E+00 -0.45593999997E+02  0.45594000000E+02  0.51100000000E-03 0. -1.
    9900012    2    1    2    0    0 -0.13061993244E+02  0.11974613853E+01 -0.13365208862E+02  0.72461591129E+02  0.70000027142E+02 0.  0.
        -12    1    1    2    0    0  0.13061993244E+02 -0.11974613853E+01  0.13365208862E+02  0.18726408871E+02  0.00000000000E+00 0.  1.
         11    1    3    3    0    0 -0.29971328453E+01  0.19035189358E+01 -0.64775714537E+01  0.73868208202E+01  0.51100000000E-03 0. -1.
        -11    1    3    3    0    0 -0.10910571694E+02  0.24548446613E+02  0.15757139947E+02  0.31144088771E+02  0.51100000000E-03 0.  1.
         12    1    3    3    0    0  0.84571129543E+00 -0.25254504164E+02 -0.22644777355E+02  0.33930681538E+02  0.00000000000E+00 0. -1.
</event>
<event>
 7    1  0.2604986E-013  0.7246150E+02  0.7816164E-02  0.1226708E+00
        -11   -1    0    0    0    0  0.00000000000E+00  0.00000000000E+00  0.45593999997E+02  0.45594000000E+02  0.51100000000E-03 0. -1.
         11   -1    0    0    0    0 -0.00000000000E+00 -0.00000000000E+00 -0.45593999997E+02  0.45594000000E+02  0.51100000000E-03 0.  1.
    9900012    2    1    2    0    0  0.71503365491E+01 -0.80463538589E+01  0.15323538045E+02  0.72461496285E+02  0.69999903589E+02 0.  0.
        -12    1    1    2    0    0 -0.71503365491E+01  0.80463538589E+01 -0.15323538045E+02  0.18726503715E+02  0.00000000000E+00 0.  1.
         11    1    3    3    0    0  0.26017532476E+02  0.75991592649E+01  0.53792681356E+01  0.27633236213E+02  0.51100000000E-03 0. -1.
        -11    1    3    3    0    0 -0.11999167510E+02 -0.87407681608E+01  0.23705100775E+02  0.27969856131E+02  0.51100000000E-03 0.  1.
        -12    1    3    3    0    0 -0.68680284169E+01 -0.69047449630E+01 -0.13760830865E+02  0.16858403941E+02  0.00000000000E+00 0.  1.
</event>
<event>
 7    1  0.2604986E-013  0.7246156E+02  0.7816164E-02  0.1226708E+00
        -11   -1    0    0    0    0  0.00000000000E+00  0.00000000000E+00  0.45593999997E+02  0.45594000000E+02  0.51100000000E-03 0.  1.
         11   -1    0    0    0    0 -0.00000000000E+00 -0.00000000000E+00 -0.45593999997E+02  0.45594000000E+02  0.51100000000E-03 0. -1.
    9900012    2    1    2    0    0 -0.17151675302E+02  0.29079928703E+01  0.69313256959E+01  0.72461557089E+02  0.69999982797E+02 0.  0.
        -12    1    1    2    0    0  0.17151675302E+02 -0.29079928703E+01 -0.69313256959E+01  0.18726442911E+02  0.00000000000E+00 0.  1.
         11    1    3    3    0    0 -0.22067720342E+02 -0.11722795405E+02 -0.18436628321E+01  0.25056083216E+02  0.51100000000E-03 0.  1.
        -11    1    3    3    0    0 -0.12585418745E+02 -0.10050867782E+02  0.85436298111E+00  0.16128938109E+02  0.51100000000E-03 0. -1.
        -12    1    3    3    0    0  0.17501463785E+02  0.24681656057E+02  0.79206255468E+01  0.31276535764E+02  0.00000000000E+00 0.  1.
</event>
<event>
 7    1  0.2604986E-013  0.7246158E+02  0.7816164E-02  0.1226708E+00
        -11   -1    0    0    0    0  0.00000000000E+00  0.00000000000E+00  0.45593999997E+02  0.45594000000E+02  0.51100000000E-03 0. -1.
         11   -1    0    0    0    0 -0.00000000000E+00 -0.00000000000E+00 -0.45593999997E+02  0.45594000000E+02  0.51100000000E-03 0.  1.
    9900012    2    1    2    0    0 -0.17329507573E+01 -0.15981115968E+02 -0.96062284229E+01  0.72461579882E+02  0.70000012490E+02 0.  0.
        -12    1    1    2    0    0  0.17329507573E+01  0.15981115968E+02  0.96062284229E+01  0.18726420118E+02  0.00000000000E+00 0.  1.
         11    1    3    3    0    0 -0.92378203772E+01 -0.81716022968E+01 -0.89712085822E+01  0.15251065311E+02  0.51100000000E-03 0. -1.
        -11    1    3    3    0    0 -0.12948103757E+02  0.16078012182E+02 -0.11874301127E+02  0.23815014049E+02  0.51100000000E-03 0.  1.
         12    1    3    3    0    0  0.20452973377E+02 -0.23887525853E+02  0.11239281286E+02  0.33395500523E+02  0.00000000000E+00 0. -1.
</event>
<event>
 7    1  0.2604986E-013  0.7246155E+02  0.7816164E-02  0.1226708E+00
        -11   -1    0    0    0    0  0.00000000000E+00  0.00000000000E+00  0.45593999997E+02  0.45594000000E+02  0.51100000000E-03 0.  1.
         11   -1    0    0    0    0 -0.00000000000E+00 -0.00000000000E+00 -0.45593999997E+02  0.45594000000E+02  0.51100000000E-03 0. -1.
    9900012    2    1    2    0    0  0.23368431444E+01  0.52701824761E+01 -0.17816963686E+02  0.72461552013E+02  0.69999976186E+02 0.  0.
        -12    1    1    2    0    0 -0.23368431444E+01 -0.52701824761E+01  0.17816963686E+02  0.18726447987E+02  0.00000000000E+00 0.  1.
         11    1    3    3    0    0  0.65410692376E+00  0.28012618702E+01 -0.10061019212E+02  0.10464178505E+02  0.51100000000E-03 0. -1.
        -11    1    3    3    0    0  0.30585668267E+02  0.32992197401E+01 -0.11497503416E+02  0.32841445451E+02  0.51100000000E-03 0.  1.
         12    1    3    3    0    0 -0.28902932047E+02 -0.83029913413E+00  0.37415589424E+01  0.29155928057E+02  0.00000000000E+00 0. -1.
</event>
<event>
 7    1  0.2604986E-013  0.7246159E+02  0.7816164E-02  0.1226708E+00
        -11   -1    0    0    0    0  0.00000000000E+00  0.00000000000E+00  0.45593999997E+02  0.45594000000E+02  0.51100000000E-03 0. -1.
         11   -1    0    0    0    0 -0.00000000000E+00 -0.00000000000E+00 -0.45593999997E+02  0.45594000000E+02  0.51100000000E-03 0.  1.
    9900012    2    1    2    0    0  0.98614344651E+01  0.87718238228E+01  0.13284787750E+02  0.72461591683E+02  0.70000027863E+02 0.  0.
        -12    1    1    2    0    0 -0.98614344651E+01 -0.87718238228E+01 -0.13284787750E+02  0.18726408317E+02  0.00000000000E+00 0.  1.
         11    1    3    3    0    0 -0.22215546764E+02  0.57909039396E+01  0.14876797719E+02  0.27356611579E+02  0.51100000000E-03 0. -1.
        -11    1    3    3    0    0 -0.61682945864E+01 -0.11855424940E+01  0.16581751108E+01  0.64963769956E+01  0.51100000000E-03 0.  1.
         12    1    3    3    0    0  0.38245275815E+02  0.41664623773E+01 -0.32501850804E+01  0.38608603108E+02  0.00000000000E+00 0. -1.
</event>
<event>
 7    1  0.2604986E-013  0.7246156E+02  0.7816164E-02  0.1226708E+00
        -11   -1    0    0    0    0  0.00000000000E+00  0.00000000000E+00  0.45593999997E+02  0.45594000000E+02  0.51100000000E-03 0.  1.
         11   -1    0    0    0    0 -0.00000000000E+00 -0.00000000000E+00 -0.45593999997E+02  0.45594000000E+02  0.51100000000E-03 0. -1.
    9900012    2    1    2    0    0 -0.11148379975E+02  0.14695406068E+02 -0.32308518031E+01  0.72461555090E+02  0.69999980194E+02 0.  0.
        -12    1    1    2    0    0  0.11148379975E+02 -0.14695406068E+02  0.32308518031E+01  0.18726444910E+02  0.00000000000E+00 0.  1.
         11    1    3    3    0    0  0.75421305577E+01  0.50834309934E+01 -0.81139583307E+01  0.12188573504E+02  0.51100000000E-03 0. -1.
        -11    1    3    3    0    0  0.17008488334E+02 -0.46880053138E+01  0.11764734623E+02  0.21205542913E+02  0.51100000000E-03 0.  1.
         12    1    3    3    0    0 -0.35698998867E+02  0.14299980389E+02 -0.68816280956E+01  0.39067438673E+02  0.00000000000E+00 0. -1.
</event>
<event>
 7    1  0.2604986E-013  0.7246163E+02  0.7816164E-02  0.1226708E+00
        -11   -1    0    0    0    0  0.00000000000E+00  0.00000000000E+00  0.45593999997E+02  0.45594000000E+02  0.51100000000E-03 0.  1.
         11   -1    0    0    0    0 -0.00000000000E+00 -0.00000000000E+00 -0.45593999997E+02  0.45594000000E+02  0.51100000000E-03 0. -1.
    9900012    2    1    2    0    0  0.23476482238E+00  0.14499395001E+02 -0.11848603088E+02  0.72461629154E+02  0.70000076676E+02 0.  0.
        -12    1    1    2    0    0 -0.23476482238E+00 -0.14499395001E+02  0.11848603088E+02  0.18726370846E+02  0.00000000000E+00 0.  1.
         11    1    3    3    0    0 -0.13688922326E+02  0.10253738106E+01 -0.77577054657E+01  0.15767687854E+02  0.51100000000E-03 0. -1.
        -11    1    3    3    0    0  0.86351700718E+01  0.21731747606E+02 -0.24612325766E+02  0.33949986687E+02  0.51100000000E-03 0.  1.
        -12    1    3    3    0    0  0.52885170768E+01 -0.82577264158E+01  0.20521428143E+02  0.22743954614E+02  0.00000000000E+00 0.  1.
</event>
<event>
 7    1  0.2604986E-013  0.7246199E+02  0.7816164E-02  0.1226707E+00
        -11   -1    0    0    0    0  0.00000000000E+00  0.00000000000E+00  0.45593999997E+02  0.45594000000E+02  0.51100000000E-03 0.  1.
         11   -1    0    0    0    0 -0.00000000000E+00 -0.00000000000E+00 -0.45593999997E+02  0.45594000000E+02  0.51100000000E-03 0. -1.
    9900012    2    1    2    0    0  0.46763523729E+01 -0.21708033290E+01 -0.18002298824E+02  0.72461990773E+02  0.70000547750E+02 0.  0.
        -12    1    1    2    0    0 -0.46763523729E+01  0.21708033290E+01  0.18002298824E+02  0.18726009227E+02  0.00000000000E+00 0.  1.
         11    1    3    3    0    0 -0.83045022966E+01  0.28311704017E+02 -0.30672125191E+01  0.29663532083E+02  0.51100000000E-03 0. -1.
        -11    1    3    3    0    0  0.50173719604E+01 -0.49798371329E+01 -0.14439162366E+02  0.16076759915E+02  0.51100000000E-03 0.  1.
        -12    1    3    3    0    0  0.79634827091E+01 -0.25502670214E+02 -0.49592393839E+00  0.26721698775E+02  0.00000000000E+00 0.  1.
</event>
<event>
 7    1  0.2604986E-013  0.7246163E+02  0.7816164E-02  0.1226708E+00
        -11   -1    0    0    0    0  0.00000000000E+00  0.00000000000E+00  0.45593999997E+02  0.45594000000E+02  0.51100000000E-03 0.  1.
         11   -1    0    0    0    0 -0.00000000000E+00 -0.00000000000E+00 -0.45593999997E+02  0.45594000000E+02  0.51100000000E-03 0. -1.
    9900012    2    1    2    0    0  0.96047216236E+01 -0.25816504861E+01 -0.15866990771E+02  0.72461628413E+02  0.70000075710E+02 0.  0.
        -12    1    1    2    0    0 -0.96047216236E+01  0.25816504861E+01  0.15866990771E+02  0.18726371587E+02  0.00000000000E+00 0.  1.
         11    1    3    3    0    0  0.59200052484E+01  0.22874316976E+02  0.11354194286E+02  0.26214472480E+02  0.51100000000E-03 0. -1.
        -11    1    3    3    0    0  0.40437092628E+01  0.48525521521E+01 -0.14957468486E+01  0.64912330021E+01  0.51100000000E-03 0.  1.
        -12    1    3    3    0    0 -0.35899288758E+00 -0.30308519614E+02 -0.25725438208E+02  0.39755922931E+02  0.00000000000E+00 0.  1.
</event>
<event>
 7    1  0.2604986E-013  0.7246145E+02  0.7816164E-02  0.1226708E+00
        -11   -1    0    0    0    0  0.00000000000E+00  0.00000000000E+00  0.45593999997E+02  0.45594000000E+02  0.51100000000E-03 0. -1.
         11   -1    0    0    0    0 -0.00000000000E+00 -0.00000000000E+00 -0.45593999997E+02  0.45594000000E+02  0.51100000000E-03 0.  1.
    9900012    2    1    2    0    0 -0.47158862180E+01 -0.10147927601E+02  0.15015448707E+02  0.72461448868E+02  0.69999841820E+02 0.  0.
        -12    1    1    2    0    0  0.47158862180E+01  0.10147927601E+02 -0.15015448707E+02  0.18726551132E+02  0.00000000000E+00 0.  1.
         11    1    3    3    0    0  0.13763136674E+02 -0.19625092677E+02  0.24610210174E+02  0.34354484988E+02  0.51100000000E-03 0. -1.
        -11    1    3    3    0    0  0.53570218996E+01  0.11636849202E+02 -0.18033927522E+01  0.12937007717E+02  0.51100000000E-03 0.  1.
        -12    1    3    3    0    0 -0.23836044792E+02 -0.21596841261E+01 -0.77913687147E+01  0.25169956164E+02  0.00000000000E+00 0.  1.
</event>
<event>
 7    1  0.2604986E-013  0.7246160E+02  0.7816164E-02  0.1226708E+00
        -11   -1    0    0    0    0  0.00000000000E+00  0.00000000000E+00  0.45593999997E+02  0.45594000000E+02  0.51100000000E-03 0. -1.
         11   -1    0    0    0    0 -0.00000000000E+00 -0.00000000000E+00 -0.45593999997E+02  0.45594000000E+02  0.51100000000E-03 0.  1.
    9900012    2    1    2    0    0  0.27701489041E+01 -0.53141063662E+01  0.17741608778E+02  0.72461597958E+02  0.70000036037E+02 0.  0.
        -12    1    1    2    0    0 -0.27701489041E+01  0.53141063662E+01 -0.17741608778E+02  0.18726402042E+02  0.00000000000E+00 0.  1.
         11    1    3    3    0    0 -0.81676680107E+01  0.16849075395E+02  0.57535316375E+01  0.19588396284E+02  0.51100000000E-03 0. -1.
        -11    1    3    3    0    0  0.12227112022E+02  0.11396155685E+02 -0.12794184891E+01  0.16763398961E+02  0.51100000000E-03 0.  1.
         12    1    3    3    0    0 -0.12892951070E+01 -0.33559337446E+02  0.13267495629E+02  0.36109802713E+02  0.00000000000E+00 0. -1.
</event>
<event>
 7    1  0.2604986E-013  0.7246158E+02  0.7816164E-02  0.1226708E+00
        -11   -1    0    0    0    0  0.00000000000E+00  0.00000000000E+00  0.45593999997E+02  0.45594000000E+02  0.51100000000E-03 0.  1.
         11   -1    0    0    0    0 -0.00000000000E+00 -0.00000000000E+00 -0.45593999997E+02  0.45594000000E+02  0.51100000000E-03 0. -1.
    9900012    2    1    2    0    0 -0.45814082895E+01  0.17965944567E+02 -0.26295067049E+01  0.72461580919E+02  0.70000013840E+02 0.  0.
        -12    1    1    2    0    0  0.45814082895E+01 -0.17965944567E+02  0.26295067049E+01  0.18726419081E+02  0.00000000000E+00 0.  1.
         11    1    3    3    0    0  0.21683798734E+02  0.10930310934E+02 -0.10170798792E+02  0.26326867891E+02  0.51100000000E-03 0. -1.
        -11    1    3    3    0    0 -0.12540063522E+02 -0.96276551020E+01 -0.96638056452E+01  0.18529276179E+02  0.51100000000E-03 0.  1.
        -12    1    3    3    0    0 -0.13725143501E+02  0.16663288735E+02  0.17205097733E+02  0.27605436848E+02  0.00000000000E+00 0.  1.
</event>
<event>
 7    1  0.2604986E-013  0.7246156E+02  0.7816164E-02  0.1226708E+00
        -11   -1    0    0    0    0  0.00000000000E+00  0.00000000000E+00  0.45593999997E+02  0.45594000000E+02  0.51100000000E-03 0. -1.
         11   -1    0    0    0    0 -0.00000000000E+00 -0.00000000000E+00 -0.45593999997E+02  0.45594000000E+02  0.51100000000E-03 0.  1.
    9900012    2    1    2    0    0 -0.85564778877E+01 -0.15949264934E+02  0.48048982315E+01  0.72461563799E+02  0.69999991539E+02 0.  0.
        -12    1    1    2    0    0  0.85564778877E+01  0.15949264934E+02 -0.48048982315E+01  0.18726436201E+02  0.00000000000E+00 0.  1.
         11    1    3    3    0    0 -0.59697704496E+00  0.32447998424E+01 -0.64549052473E+01  0.72492006195E+01  0.51100000000E-03 0. -1.
        -11    1    3    3    0    0  0.21305977958E+00 -0.85105631830E+01 -0.25068090664E+02  0.26474218590E+02  0.51100000000E-03 0.  1.
         12    1    3    3    0    0 -0.81725606223E+01 -0.10683501593E+02  0.36327894143E+02  0.38738144590E+02  0.00000000000E+00 0. -1.
</event>
<event>
 7    1  0.2604986E-013  0.7246155E+02  0.7816164E-02  0.1226708E+00
        -11   -1    0    0    0    0  0.00000000000E+00  0.00000000000E+00  0.45593999997E+02  0.45594000000E+02  0.51100000000E-03 0. -1.
         11   -1    0    0    0    0 -0.00000000000E+00 -0.00000000000E+00 -0.45593999997E+02  0.45594000000E+02  0.51100000000E-03 0.  1.
    9900012    2    1    2    0    0 -0.22670198281E+01  0.18582035225E+02  0.49844468592E+00  0.72461551882E+02  0.69999976015E+02 0.  0.
        -12    1    1    2    0    0  0.22670198281E+01 -0.18582035225E+02 -0.49844468592E+00  0.18726448118E+02  0.00000000000E+00 0.  1.
         11    1    3    3    0    0  0.64884597100E+01 -0.12935872372E+02  0.12215993492E+01  0.14523402104E+02  0.51100000000E-03 0. -1.
        -11    1    3    3    0    0  0.11875848488E+02  0.29110347994E+01  0.14974225608E+02  0.19332287338E+02  0.51100000000E-03 0.  1.
        -12    1    3    3    0    0 -0.20631328026E+02  0.28606872798E+02 -0.15697380271E+02  0.38605862440E+02  0.00000000000E+00 0.  1.
</event>
<event>
 7    1  0.2604986E-013  0.7246157E+02  0.7816164E-02  0.1226708E+00
        -11   -1    0    0    0    0  0.00000000000E+00  0.00000000000E+00  0.45593999997E+02  0.45594000000E+02  0.51100000000E-03 0. -1.
         11   -1    0    0    0    0 -0.00000000000E+00 -0.00000000000E+00 -0.45593999997E+02  0.45594000000E+02  0.51100000000E-03 0.  1.
    9900012    2    1    2    0    0  0.45620234577E+01  0.49861732090E+01  0.17464399515E+02  0.72461568634E+02  0.69999997837E+02 0.  0.
        -12    1    1    2    0    0 -0.45620234577E+01 -0.49861732090E+01 -0.17464399515E+02  0.18726431366E+02  0.00000000000E+00 0.  1.
         11    1    3    3    0    0 -0.17639088523E+01  0.94123912292E+01  0.34345391368E+02  0.35655439859E+02  0.51100000000E-03 0. -1.
        -11    1    3    3    0    0  0.88498689933E+01 -0.14565127445E+02 -0.10597045165E+00  0.17043308032E+02  0.51100000000E-03 0.  1.
        -12    1    3    3    0    0 -0.25239366832E+01  0.10138909425E+02 -0.16775021401E+02  0.19762820743E+02  0.00000000000E+00 0.  1.
</event>
<event>
 7    1  0.2604986E-013  0.7246157E+02  0.7816164E-02  0.1226708E+00
        -11   -1    0    0    0    0  0.00000000000E+00  0.00000000000E+00  0.45593999997E+02  0.45594000000E+02  0.51100000000E-03 0.  1.
         11   -1    0    0    0    0 -0.00000000000E+00 -0.00000000000E+00 -0.45593999997E+02  0.45594000000E+02  0.51100000000E-03 0. -1.
    9900012    2    1    2    0    0 -0.43689982005E+01 -0.10563473123E+01 -0.18178980766E+02  0.72461565299E+02  0.69999993493E+02 0.  0.
        -12    1    1    2    0    0  0.43689982005E+01  0.10563473123E+01  0.18178980766E+02  0.18726434701E+02  0.00000000000E+00 0.  1.
         11    1    3    3    0    0 -0.80744837380E+01  0.16687815159E+02  0.62939372253E+01  0.19577898469E+02  0.51100000000E-03 0. -1.
        -11    1    3    3    0    0 -0.13472085530E+02 -0.10249559553E+02  0.52694958449E+01  0.17729019890E+02  0.51100000000E-03 0.  1.
         12    1    3    3    0    0  0.17177571067E+02 -0.74946029184E+01 -0.29742413836E+02  0.35154646940E+02  0.00000000000E+00 0. -1.
</event>
<event>
 7    1  0.2604986E-013  0.7246157E+02  0.7816164E-02  0.1226708E+00
        -11   -1    0    0    0    0  0.00000000000E+00  0.00000000000E+00  0.45593999997E+02  0.45594000000E+02  0.51100000000E-03 0. -1.
         11   -1    0    0    0    0 -0.00000000000E+00 -0.00000000000E+00 -0.45593999997E+02  0.45594000000E+02  0.51100000000E-03 0.  1.
    9900012    2    1    2    0    0 -0.16060390126E+01 -0.52650936789E+01  0.17899118504E+02  0.72461574394E+02  0.70000005341E+02 0.  0.
        -12    1    1    2    0    0  0.16060390126E+01  0.52650936789E+01 -0.17899118504E+02  0.18726425606E+02  0.00000000000E+00 0.  1.
         11    1    3    3    0    0 -0.31120032989E+01 -0.34771933010E+01 -0.48302321798E+01  0.67161433097E+01  0.51100000000E-03 0. -1.
        -11    1    3    3    0    0  0.31869211495E+01 -0.75061230862E+01 -0.20523316925E+02  0.22084041480E+02  0.51100000000E-03 0.  1.
         12    1    3    3    0    0 -0.16809568632E+01  0.57182227084E+01  0.43252667609E+02  0.43661389605E+02  0.00000000000E+00 0. -1.
</event>
<event>
 7    1  0.2604986E-013  0.7246138E+02  0.7816164E-02  0.1226709E+00
        -11   -1    0    0    0    0  0.00000000000E+00  0.00000000000E+00  0.45593999997E+02  0.45594000000E+02  0.51100000000E-03 0. -1.
         11   -1    0    0    0    0 -0.00000000000E+00 -0.00000000000E+00 -0.45593999997E+02  0.45594000000E+02  0.51100000000E-03 0.  1.
    9900012    2    1    2    0    0  0.87330170409E+01  0.16132043468E+02 -0.37653619118E+01  0.72461378216E+02  0.69999749782E+02 0.  0.
        -12    1    1    2    0    0 -0.87330170409E+01 -0.16132043468E+02  0.37653619118E+01  0.18726621784E+02  0.00000000000E+00 0.  1.
         11    1    3    3    0    0 -0.14413695726E+01 -0.12487186126E+01  0.12334560808E+02  0.12481115134E+02  0.51100000000E-03 0. -1.
        -11    1    3    3    0    0  0.10935843470E+02 -0.18397062384E+01 -0.32726860100E+02  0.34554660521E+02  0.51100000000E-03 0.  1.
         12    1    3    3    0    0 -0.76145685666E+00  0.19220468319E+02  0.16626937380E+02  0.25425602561E+02  0.00000000000E+00 0. -1.
</event>
<event>
 7    1  0.2604986E-013  0.7246159E+02  0.7816164E-02  0.1226708E+00
        -11   -1    0    0    0    0  0.00000000000E+00  0.00000000000E+00  0.45593999997E+02  0.45594000000E+02  0.51100000000E-03 0.  1.
         11   -1    0    0    0    0 -0.00000000000E+00 -0.00000000000E+00 -0.45593999997E+02  0.45594000000E+02  0.51100000000E-03 0. -1.
    9900012    2    1    2    0    0 -0.12598423958E+02  0.13845266726E+02  0.51649157654E+00  0.72461589226E+02  0.70000024662E+02 0.  0.
        -12    1    1    2    0    0  0.12598423958E+02 -0.13845266726E+02 -0.51649157654E+00  0.18726410774E+02  0.00000000000E+00 0.  1.
         11    1    3    3    0    0 -0.58658676200E+01  0.14306313503E+02  0.20950536736E+01  0.15603469458E+02  0.51100000000E-03 0. -1.
        -11    1    3    3    0    0 -0.11454945049E+02  0.14638697750E+02  0.21787864645E+02  0.28639453275E+02  0.51100000000E-03 0.  1.
         12    1    3    3    0    0  0.47223887109E+01 -0.15099744527E+02 -0.23366426742E+02  0.28218666492E+02  0.00000000000E+00 0. -1.
</event>
<event>
 7    1  0.2604986E-013  0.7246158E+02  0.7816164E-02  0.1226708E+00
        -11   -1    0    0    0    0  0.00000000000E+00  0.00000000000E+00  0.45593999997E+02  0.45594000000E+02  0.51100000000E-03 0. -1.
         11   -1    0    0    0    0 -0.00000000000E+00 -0.00000000000E+00 -0.45593999997E+02  0.45594000000E+02  0.51100000000E-03 0.  1.
    9900012    2    1    2    0    0 -0.17089279748E+02 -0.38993412883E+01  0.65901659674E+01  0.72461584640E+02  0.70000018687E+02 0.  0.
        -12    1    1    2    0    0  0.17089279748E+02  0.38993412883E+01 -0.65901659674E+01  0.18726415360E+02  0.00000000000E+00 0.  1.
         11    1    3    3    0    0  0.24621757549E+01 -0.57297576987E+01 -0.58497409470E+01  0.85505498152E+01  0.51100000000E-03 0. -1.
        -11    1    3    3    0    0 -0.16308360784E+02 -0.25400102179E+02 -0.61182852729E+01  0.30798721355E+02  0.51100000000E-03 0.  1.
         12    1    3    3    0    0 -0.32430947188E+01  0.27230518590E+02  0.18558192187E+02  0.33112313469E+02  0.00000000000E+00 0. -1.
</event>
<event>
 7    1  0.2604986E-013  0.7246156E+02  0.7816164E-02  0.1226708E+00
        -11   -1    0    0    0    0  0.00000000000E+00  0.00000000000E+00  0.45593999997E+02  0.45594000000E+02  0.51100000000E-03 0.  1.
         11   -1    0    0    0    0 -0.00000000000E+00 -0.00000000000E+00 -0.45593999997E+02  0.45594000000E+02  0.51100000000E-03 0. -1.
    9900012    2    1    2    0    0 -0.10842231264E+02 -0.75574497880E+01 -0.13266894688E+02  0.72461560916E+02  0.69999987783E+02 0.  0.
        -12    1    1    2    0    0  0.10842231264E+02  0.75574497880E+01  0.13266894688E+02  0.18726439084E+02  0.00000000000E+00 0.  1.
         11    1    3    3    0    0 -0.17027900111E+02 -0.10843679066E+02  0.21219944487E+01  0.20298709776E+02  0.51100000000E-03 0. -1.
        -11    1    3    3    0    0 -0.97791137613E+01  0.80608181776E+01  0.13685308785E+02  0.18651957872E+02  0.51100000000E-03 0.  1.
         12    1    3    3    0    0  0.15964782608E+02 -0.47745888992E+01 -0.29074197922E+02  0.33510893269E+02  0.00000000000E+00 0. -1.
</event>
<event>
 7    1  0.2604986E-013  0.7246160E+02  0.7816164E-02  0.1226708E+00
        -11   -1    0    0    0    0  0.00000000000E+00  0.00000000000E+00  0.45593999997E+02  0.45594000000E+02  0.51100000000E-03 0. -1.
         11   -1    0    0    0    0 -0.00000000000E+00 -0.00000000000E+00 -0.45593999997E+02  0.45594000000E+02  0.51100000000E-03 0.  1.
    9900012    2    1    2    0    0  0.11314237308E+02 -0.13474528323E+02 -0.64111812355E+01  0.72461598203E+02  0.70000036357E+02 0.  0.
        -12    1    1    2    0    0 -0.11314237308E+02  0.13474528323E+02  0.64111812355E+01  0.18726401797E+02  0.00000000000E+00 0.  1.
         11    1    3    3    0    0  0.37217885065E+01 -0.13656476721E+02 -0.96566593007E+01  0.17134822299E+02  0.51100000000E-03 0. -1.
        -11    1    3    3    0    0 -0.71548663319E-01  0.16628839176E+02 -0.19889377495E+02  0.25925098822E+02  0.51100000000E-03 0.  1.
        -12    1    3    3    0    0  0.76639974653E+01 -0.16446890778E+02  0.23134855560E+02  0.29401677082E+02  0.00000000000E+00 0.  1.
</event>
<event>
 7    1  0.2604986E-013  0.7246156E+02  0.7816164E-02  0.1226708E+00
        -11   -1    0    0    0    0  0.00000000000E+00  0.00000000000E+00  0.45593999997E+02  0.45594000000E+02  0.51100000000E-03 0. -1.
         11   -1    0    0    0    0 -0.00000000000E+00 -0.00000000000E+00 -0.45593999997E+02  0.45594000000E+02  0.51100000000E-03 0.  1.
    9900012    2    1    2    0    0 -0.15384039648E+02 -0.68141316197E+01 -0.82206173832E+01  0.72461558379E+02  0.69999984478E+02 0.  0.
        -12    1    1    2    0    0  0.15384039648E+02  0.68141316197E+01  0.82206173832E+01  0.18726441621E+02  0.00000000000E+00 0.  1.
         11    1    3    3    0    0 -0.17514754642E+02 -0.27556164038E+01  0.21905612898E+01  0.17865010802E+02  0.51100000000E-03 0. -1.
        -11    1    3    3    0    0  0.15079271392E+02 -0.23563262868E+02 -0.13357104455E+02  0.31000387455E+02  0.51100000000E-03 0.  1.
         12    1    3    3    0    0 -0.12948556399E+02  0.19504747652E+02  0.29459257817E+01  0.23596160122E+02  0.00000000000E+00 0. -1.
</event>
<event>
 7    1  0.2604986E-013  0.7246155E+02  0.7816164E-02  0.1226708E+00
        -11   -1    0    0    0    0  0.00000000000E+00  0.00000000000E+00  0.45593999997E+02  0.45594000000E+02  0.51100000000E-03 0.  1.
         11   -1    0    0    0    0 -0.00000000000E+00 -0.00000000000E+00 -0.45593999997E+02  0.45594000000E+02  0.51100000000E-03 0. -1.
    9900012    2    1    2    0    0 -0.80816270559E+01 -0.16261097381E+02  0.45764695043E+01  0.72461546598E+02  0.69999969131E+02 0.  0.
        -12    1    1    2    0    0  0.80816270559E+01  0.16261097381E+02 -0.45764695043E+01  0.18726453402E+02  0.00000000000E+00 0.  1.
         11    1    3    3    0    0 -0.65755528982E+01 -0.94712917621E+01 -0.22267029285E+02  0.25075164147E+02  0.51100000000E-03 0. -1.
        -11    1    3    3    0    0 -0.25741622149E+01  0.96171033612E+00 -0.96653683188E+01  0.10048409968E+02  0.51100000000E-03 0.  1.
        -12    1    3    3    0    0  0.10680880571E+01 -0.77515159548E+01  0.36508867108E+02  0.37337972484E+02  0.00000000000E+00 0.  1.
</event>
<event>
 7    1  0.2604986E-013  0.7246159E+02  0.7816164E-02  0.1226708E+00
        -11   -1    0    0    0    0  0.00000000000E+00  0.00000000000E+00  0.45593999997E+02  0.45594000000E+02  0.51100000000E-03 0.  1.
         11   -1    0    0    0    0 -0.00000000000E+00 -0.00000000000E+00 -0.45593999997E+02  0.45594000000E+02  0.51100000000E-03 0. -1.
    9900012    2    1    2    0    0  0.16276865359E+02  0.32985813571E+01 -0.86522452186E+01  0.72461592651E+02  0.70000029124E+02 0.  0.
        -12    1    1    2    0    0 -0.16276865359E+02 -0.32985813571E+01  0.86522452186E+01  0.18726407349E+02  0.00000000000E+00 0.  1.
         11    1    3    3    0    0  0.35876989084E+01 -0.13693404026E+02  0.24450807100E+02  0.28252838183E+02  0.51100000000E-03 0.  1.
        -11    1    3    3    0    0  0.89555012661E+01  0.36347910665E+01 -0.16115731027E+01  0.97984629994E+01  0.51100000000E-03 0. -1.
        -12    1    3    3    0    0  0.37336651844E+01  0.13357194317E+02 -0.31491479216E+02  0.34410291468E+02  0.00000000000E+00 0.  1.
</event>
<event>
 7    1  0.2604986E-013  0.7246156E+02  0.7816164E-02  0.1226708E+00
        -11   -1    0    0    0    0  0.00000000000E+00  0.00000000000E+00  0.45593999997E+02  0.45594000000E+02  0.51100000000E-03 0.  1.
         11   -1    0    0    0    0 -0.00000000000E+00 -0.00000000000E+00 -0.45593999997E+02  0.45594000000E+02  0.51100000000E-03 0. -1.
    9900012    2    1    2    0    0 -0.13198094118E+02  0.12352661901E+02 -0.48889354962E+01  0.72461557875E+02  0.69999983821E+02 0.  0.
        -12    1    1    2    0    0  0.13198094118E+02 -0.12352661901E+02  0.48889354962E+01  0.18726442125E+02  0.00000000000E+00 0.  1.
         11    1    3    3    0    0  0.57103435177E+01 -0.18989939340E+01 -0.54873644939E+01  0.81440389490E+01  0.51100000000E-03 0. -1.
        -11    1    3    3    0    0  0.17001540101E+02  0.19877273603E+02  0.77338085411E+01  0.27275816514E+02  0.51100000000E-03 0.  1.
         12    1    3    3    0    0 -0.35909977737E+02 -0.56256177680E+01 -0.71353795434E+01  0.37041702412E+02  0.00000000000E+00 0. -1.
</event>
<event>
 7    1  0.2604986E-013  0.7246158E+02  0.7816164E-02  0.1226708E+00
        -11   -1    0    0    0    0  0.00000000000E+00  0.00000000000E+00  0.45593999997E+02  0.45594000000E+02  0.51100000000E-03 0.  1.
         11   -1    0    0    0    0 -0.00000000000E+00 -0.00000000000E+00 -0.45593999997E+02  0.45594000000E+02  0.51100000000E-03 0. -1.
    9900012    2    1    2    0    0  0.10738314493E+02  0.12600173523E+02 -0.87523209133E+01  0.72461577695E+02  0.70000009641E+02 0.  0.
        -12    1    1    2    0    0 -0.10738314493E+02 -0.12600173523E+02  0.87523209133E+01  0.18726422305E+02  0.00000000000E+00 0.  1.
         11    1    3    3    0    0 -0.60705553971E+01  0.10386056794E+02 -0.10325740720E+02  0.15853792614E+02  0.51100000000E-03 0. -1.
        -11    1    3    3    0    0  0.19210672337E+02 -0.86991475133E+00 -0.23990600688E+02  0.30746635668E+02  0.51100000000E-03 0.  1.
        -12    1    3    3    0    0 -0.24018024460E+01  0.30840314803E+01  0.25564020494E+02  0.25861149413E+02  0.00000000000E+00 0.  1.
</event>
<event>
 7    1  0.2604986E-013  0.7246137E+02  0.7816164E-02  0.1226709E+00
        -11   -1    0    0    0    0  0.00000000000E+00  0.00000000000E+00  0.45593999997E+02  0.45594000000E+02  0.51100000000E-03 0. -1.
         11   -1    0    0    0    0 -0.00000000000E+00 -0.00000000000E+00 -0.45593999997E+02  0.45594000000E+02  0.51100000000E-03 0.  1.
    9900012    2    1    2    0    0 -0.14273505221E+02  0.12083946479E+02  0.96530316908E+00  0.72461373929E+02  0.69999744197E+02 0.  0.
        -12    1    1    2    0    0  0.14273505221E+02 -0.12083946479E+02 -0.96530316908E+00  0.18726626071E+02  0.00000000000E+00 0.  1.
         11    1    3    3    0    0 -0.10316589227E+02  0.26303925975E+02  0.21091257603E+02  0.35258611466E+02  0.51100000000E-03 0. -1.
        -11    1    3    3    0    0 -0.14820028971E+02 -0.97354991704E+01 -0.57636431893E+01  0.18644913136E+02  0.51100000000E-03 0.  1.
        -12    1    3    3    0    0  0.10863112976E+02 -0.44844803263E+01 -0.14362311245E+02  0.18557849326E+02  0.00000000000E+00 0.  1.
</event>
<event>
 7    1  0.2604986E-013  0.7246155E+02  0.7816164E-02  0.1226708E+00
        -11   -1    0    0    0    0  0.00000000000E+00  0.00000000000E+00  0.45593999997E+02  0.45594000000E+02  0.51100000000E-03 0.  1.
         11   -1    0    0    0    0 -0.00000000000E+00 -0.00000000000E+00 -0.45593999997E+02  0.45594000000E+02  0.51100000000E-03 0. -1.
    9900012    2    1    2    0    0  0.16945043003E+02  0.43909990168E+01 -0.66531728972E+01  0.72461546403E+02  0.69999968877E+02 0.  0.
        -12    1    1    2    0    0 -0.16945043003E+02 -0.43909990168E+01  0.66531728972E+01  0.18726453597E+02  0.00000000000E+00 0.  1.
         11    1    3    3    0    0  0.76385340997E+01 -0.24764857850E+02 -0.17461303857E+02  0.31249680321E+02  0.51100000000E-03 0. -1.
        -11    1    3    3    0    0 -0.76334693801E+01  0.54913043162E+01 -0.16633529362E+01  0.95493989927E+01  0.51100000000E-03 0.  1.
        -12    1    3    3    0    0  0.16939978283E+02  0.23664552550E+02  0.12471483896E+02  0.31662467089E+02  0.00000000000E+00 0.  1.
</event>
<event>
 7    1  0.2604986E-013  0.7246162E+02  0.7816164E-02  0.1226708E+00
        -11   -1    0    0    0    0  0.00000000000E+00  0.00000000000E+00  0.45593999997E+02  0.45594000000E+02  0.51100000000E-03 0. -1.
         11   -1    0    0    0    0 -0.00000000000E+00 -0.00000000000E+00 -0.45593999997E+02  0.45594000000E+02  0.51100000000E-03 0.  1.
    9900012    2    1    2    0    0 -0.25071467987E+01  0.18161727132E+01  0.18468699748E+02  0.72461624516E+02  0.70000070634E+02 0.  0.
        -12    1    1    2    0    0  0.25071467987E+01 -0.18161727132E+01 -0.18468699748E+02  0.18726375484E+02  0.00000000000E+00 0.  1.
         11    1    3    3    0    0 -0.13519593104E+02  0.11401575641E+02 -0.26458721150E+01  0.17882280736E+02  0.51100000000E-03 0. -1.
        -11    1    3    3    0    0 -0.64749165102E+01 -0.21359806575E+02 -0.30320593232E+01  0.22524636839E+02  0.51100000000E-03 0.  1.
        -12    1    3    3    0    0  0.17487362816E+02  0.11774403647E+02  0.24146631186E+02  0.32054706941E+02  0.00000000000E+00 0.  1.
</event>
<event>
 7    1  0.2604986E-013  0.7246160E+02  0.7816164E-02  0.1226708E+00
        -11   -1    0    0    0    0  0.00000000000E+00  0.00000000000E+00  0.45593999997E+02  0.45594000000E+02  0.51100000000E-03 0.  1.
         11   -1    0    0    0    0 -0.00000000000E+00 -0.00000000000E+00 -0.45593999997E+02  0.45594000000E+02  0.51100000000E-03 0. -1.
    9900012    2    1    2    0    0  0.14829481257E+02 -0.91381409216E+01  0.68745062819E+01  0.72461602309E+02  0.70000041705E+02 0.  0.
        -12    1    1    2    0    0 -0.14829481257E+02  0.91381409216E+01 -0.68745062819E+01  0.18726397691E+02  0.00000000000E+00 0.  1.
         11    1    3    3    0    0  0.26192831193E+01 -0.23626787455E+02 -0.18389961884E+02  0.30054557522E+02  0.51100000000E-03 0. -1.
        -11    1    3    3    0    0  0.93674720527E+01 -0.67331889940E+01  0.14232401131E+02  0.18320660711E+02  0.51100000000E-03 0.  1.
        -12    1    3    3    0    0  0.28427260852E+01  0.21221835528E+02  0.11032067035E+02  0.24086384075E+02  0.00000000000E+00 0.  1.
</event>
<event>
 7    1  0.2604986E-013  0.7246156E+02  0.7816164E-02  0.1226708E+00
        -11   -1    0    0    0    0  0.00000000000E+00  0.00000000000E+00  0.45593999997E+02  0.45594000000E+02  0.51100000000E-03 0.  1.
         11   -1    0    0    0    0 -0.00000000000E+00 -0.00000000000E+00 -0.45593999997E+02  0.45594000000E+02  0.51100000000E-03 0. -1.
    9900012    2    1    2    0    0 -0.43681213540E+01  0.18183951201E+02  0.97101350089E+00  0.72461563268E+02  0.69999990848E+02 0.  0.
        -12    1    1    2    0    0  0.43681213540E+01 -0.18183951201E+02 -0.97101350089E+00  0.18726436732E+02  0.00000000000E+00 0.  1.
         11    1    3    3    0    0 -0.37032445923E+01 -0.48622025843E+01  0.27952946671E+01  0.67207668475E+01  0.51100000000E-03 0. -1.
        -11    1    3    3    0    0 -0.22682760125E+02 -0.10379888501E+02  0.40968512318E+01  0.25279119496E+02  0.51100000000E-03 0.  1.
         12    1    3    3    0    0  0.22017883363E+02  0.33426042286E+02 -0.59211323980E+01  0.40461676925E+02  0.00000000000E+00 0. -1.
</event>
<event>
 7    1  0.2604986E-013  0.7246158E+02  0.7816164E-02  0.1226708E+00
        -11   -1    0    0    0    0  0.00000000000E+00  0.00000000000E+00  0.45593999997E+02  0.45594000000E+02  0.51100000000E-03 0. -1.
         11   -1    0    0    0    0 -0.00000000000E+00 -0.00000000000E+00 -0.45593999997E+02  0.45594000000E+02  0.51100000000E-03 0.  1.
    9900012    2    1    2    0    0 -0.15861595801E+01  0.12669873353E+02  0.13698070090E+02  0.72461582372E+02  0.70000015733E+02 0.  0.
        -12    1    1    2    0    0  0.15861595801E+01 -0.12669873353E+02 -0.13698070090E+02  0.18726417628E+02  0.00000000000E+00 0.  1.
         11    1    3    3    0    0  0.14415411799E+02  0.38209530977E+01 -0.22394254755E+02  0.26905509216E+02  0.51100000000E-03 0.  1.
        -11    1    3    3    0    0  0.69231821784E+00  0.58812075750E+01  0.27508157008E+00  0.59282018510E+01  0.51100000000E-03 0. -1.
         12    1    3    3    0    0 -0.16693889597E+02  0.29677126805E+01  0.35817243274E+02  0.39627871305E+02  0.00000000000E+00 0. -1.
</event>
<event>
 7    1  0.2604986E-013  0.7246144E+02  0.7816164E-02  0.1226708E+00
        -11   -1    0    0    0    0  0.00000000000E+00  0.00000000000E+00  0.45593999997E+02  0.45594000000E+02  0.51100000000E-03 0. -1.
         11   -1    0    0    0    0 -0.00000000000E+00 -0.00000000000E+00 -0.45593999997E+02  0.45594000000E+02  0.51100000000E-03 0.  1.
    9900012    2    1    2    0    0  0.14939938615E+02 -0.10473342528E+02  0.42179932713E+01  0.72461437668E+02  0.69999827229E+02 0.  0.
        -12    1    1    2    0    0 -0.14939938615E+02  0.10473342528E+02 -0.42179932713E+01  0.18726562332E+02  0.00000000000E+00 0.  1.
         11    1    3    3    0    0 -0.62486873153E+01  0.79623008889E+00 -0.35789729207E+01  0.72449377462E+01  0.51100000000E-03 0. -1.
        -11    1    3    3    0    0  0.13809133601E+02 -0.33979911785E+02 -0.66937540299E+01  0.37284486304E+02  0.51100000000E-03 0.  1.
         12    1    3    3    0    0  0.73794923297E+01  0.22710339168E+02  0.14490720222E+02  0.27932013617E+02  0.00000000000E+00 0. -1.
</event>
<event>
 7    1  0.2604986E-013  0.7246159E+02  0.7816164E-02  0.1226708E+00
        -11   -1    0    0    0    0  0.00000000000E+00  0.00000000000E+00  0.45593999997E+02  0.45594000000E+02  0.51100000000E-03 0.  1.
         11   -1    0    0    0    0 -0.00000000000E+00 -0.00000000000E+00 -0.45593999997E+02  0.45594000000E+02  0.51100000000E-03 0. -1.
    9900012    2    1    2    0    0 -0.13581818088E+01  0.18596169686E+02 -0.17367586861E+01  0.72461587755E+02  0.70000022746E+02 0.  0.
        -12    1    1    2    0    0  0.13581818088E+01 -0.18596169686E+02  0.17367586861E+01  0.18726412245E+02  0.00000000000E+00 0.  1.
         11    1    3    3    0    0  0.16174046443E+02  0.10979100849E+02 -0.67803914580E+01  0.20690919321E+02  0.51100000000E-03 0. -1.
        -11    1    3    3    0    0  0.12345025474E+02  0.77884782264E+01 -0.10605573459E+02  0.18042678174E+02  0.51100000000E-03 0.  1.
        -12    1    3    3    0    0 -0.29877253725E+02 -0.17140938861E+00  0.15649206231E+02  0.33727990260E+02  0.00000000000E+00 0.  1.
</event>
<event>
 7    1  0.2604986E-013  0.7246163E+02  0.7816164E-02  0.1226708E+00
        -11   -1    0    0    0    0  0.00000000000E+00  0.00000000000E+00  0.45593999997E+02  0.45594000000E+02  0.51100000000E-03 0. -1.
         11   -1    0    0    0    0 -0.00000000000E+00 -0.00000000000E+00 -0.45593999997E+02  0.45594000000E+02  0.51100000000E-03 0.  1.
    9900012    2    1    2    0    0 -0.44364267621E+01 -0.17031137565E+02 -0.63980927167E+01  0.72461625028E+02  0.70000071301E+02 0.  0.
        -12    1    1    2    0    0  0.44364267621E+01  0.17031137565E+02  0.63980927167E+01  0.18726374972E+02  0.00000000000E+00 0.  1.
         11    1    3    3    0    0  0.14321547763E+02 -0.35929608168E+00  0.12365693896E+02  0.18924751248E+02  0.51100000000E-03 0. -1.
        -11    1    3    3    0    0 -0.40443823506E+01  0.37170996404E+01 -0.26630715001E+02  0.27191337592E+02  0.51100000000E-03 0.  1.
         12    1    3    3    0    0 -0.14713592175E+02 -0.20388941123E+02  0.78669283882E+01  0.26345536189E+02  0.00000000000E+00 0. -1.
</event>
<event>
 7    1  0.2604986E-013  0.7246154E+02  0.7816164E-02  0.1226708E+00
        -11   -1    0    0    0    0  0.00000000000E+00  0.00000000000E+00  0.45593999997E+02  0.45594000000E+02  0.51100000000E-03 0.  1.
         11   -1    0    0    0    0 -0.00000000000E+00 -0.00000000000E+00 -0.45593999997E+02  0.45594000000E+02  0.51100000000E-03 0. -1.
    9900012    2    1    2    0    0  0.28008671653E+01 -0.14477588156E+02  0.11542742686E+02  0.72461539458E+02  0.69999959830E+02 0.  0.
        -12    1    1    2    0    0 -0.28008671653E+01  0.14477588156E+02 -0.11542742686E+02  0.18726460542E+02  0.00000000000E+00 0.  1.
         11    1    3    3    0    0  0.14869249248E+02  0.62498401834E+01  0.78808177769E+01  0.17951667461E+02  0.51100000000E-03 0. -1.
        -11    1    3    3    0    0 -0.77829910038E+01  0.14891008406E+02 -0.51393837313E+01  0.17570724109E+02  0.51100000000E-03 0.  1.
        -12    1    3    3    0    0 -0.42853910794E+01 -0.35618436746E+02  0.88013086407E+01  0.36939147888E+02  0.00000000000E+00 0.  1.
</event>
<event>
 7    1  0.2604986E-013  0.7246156E+02  0.7816164E-02  0.1226708E+00
        -11   -1    0    0    0    0  0.00000000000E+00  0.00000000000E+00  0.45593999997E+02  0.45594000000E+02  0.51100000000E-03 0.  1.
         11   -1    0    0    0    0 -0.00000000000E+00 -0.00000000000E+00 -0.45593999997E+02  0.45594000000E+02  0.51100000000E-03 0. -1.
    9900012    2    1    2    0    0 -0.17698095101E+02 -0.57098228606E+01  0.22034153008E+01  0.72461556496E+02  0.69999982026E+02 0.  0.
        -12    1    1    2    0    0  0.17698095101E+02  0.57098228606E+01 -0.22034153008E+01  0.18726443504E+02  0.00000000000E+00 0.  1.
         11    1    3    3    0    0 -0.31933958518E+01  0.12481873509E+02  0.90140783412E+00  0.12915397001E+02  0.51100000000E-03 0. -1.
        -11    1    3    3    0    0 -0.33849077729E+02 -0.17023589193E+02  0.85744624517E+01  0.38846931136E+02  0.51100000000E-03 0.  1.
         12    1    3    3    0    0  0.19344378480E+02 -0.11681071762E+01 -0.72724549850E+01  0.20699228359E+02  0.00000000000E+00 0. -1.
</event>
<event>
 7    1  0.2604986E-013  0.7246155E+02  0.7816164E-02  0.1226708E+00
        -11   -1    0    0    0    0  0.00000000000E+00  0.00000000000E+00  0.45593999997E+02  0.45594000000E+02  0.51100000000E-03 0. -1.
         11   -1    0    0    0    0 -0.00000000000E+00 -0.00000000000E+00 -0.45593999997E+02  0.45594000000E+02  0.51100000000E-03 0.  1.
    9900012    2    1    2    0    0  0.90432710486E+01  0.46688997190E+01  0.15719434515E+02  0.72461548192E+02  0.69999971208E+02 0.  0.
        -12    1    1    2    0    0 -0.90432710486E+01 -0.46688997190E+01 -0.15719434515E+02  0.18726451808E+02  0.00000000000E+00 0.  1.
         11    1    3    3    0    0 -0.13461276754E+02 -0.26398132014E+01  0.15524997162E+02  0.20717145623E+02  0.51100000000E-03 0. -1.
        -11    1    3    3    0    0  0.11762205942E+02 -0.38685644214E+01  0.21848429739E+02  0.25113127277E+02  0.51100000000E-03 0.  1.
        -12    1    3    3    0    0  0.10742341861E+02  0.11177277342E+02 -0.21653992386E+02  0.26631275293E+02  0.00000000000E+00 0.  1.
</event>
<event>
 7    1  0.2604986E-013  0.7246158E+02  0.7816164E-02  0.1226708E+00
        -11   -1    0    0    0    0  0.00000000000E+00  0.00000000000E+00  0.45593999997E+02  0.45594000000E+02  0.51100000000E-03 0. -1.
         11   -1    0    0    0    0 -0.00000000000E+00 -0.00000000000E+00 -0.45593999997E+02  0.45594000000E+02  0.51100000000E-03 0.  1.
    9900012    2    1    2    0    0  0.11301634573E+02  0.10663410899E+02  0.10451956659E+02  0.72461583524E+02  0.70000017234E+02 0.  0.
        -12    1    1    2    0    0 -0.11301634573E+02 -0.10663410899E+02 -0.10451956659E+02  0.18726416476E+02  0.00000000000E+00 0.  1.
         11    1    3    3    0    0  0.23121156808E+02 -0.59030663347E+01  0.79134522517E+01  0.25140740066E+02  0.51100000000E-03 0. -1.
        -11    1    3    3    0    0 -0.17185145394E+01 -0.14450567725E+02 -0.48654766773E+00  0.14560526388E+02  0.51100000000E-03 0.  1.
         12    1    3    3    0    0 -0.10101007695E+02  0.31017044959E+02  0.30250520754E+01  0.32760317070E+02  0.00000000000E+00 0. -1.
</event>
<event>
 7    1  0.2604986E-013  0.7246082E+02  0.7816164E-02  0.1226710E+00
        -11   -1    0    0    0    0  0.00000000000E+00  0.00000000000E+00  0.45593999997E+02  0.45594000000E+02  0.51100000000E-03 0.  1.
         11   -1    0    0    0    0 -0.00000000000E+00 -0.00000000000E+00 -0.45593999997E+02  0.45594000000E+02  0.51100000000E-03 0. -1.
    9900012    2    1    2    0    0 -0.10585598925E+02 -0.60102963758E+01 -0.14231254287E+02  0.72460822805E+02  0.69999026250E+02 0.  0.
        -12    1    1    2    0    0  0.10585598925E+02  0.60102963758E+01  0.14231254287E+02  0.18727177195E+02  0.00000000000E+00 0.  1.
         11    1    3    3    0    0  0.41216805490E+00 -0.56268348062E+01 -0.56006892418E+01  0.79497718638E+01  0.51100000000E-03 0. -1.
        -11    1    3    3    0    0 -0.35926283730E+02  0.11660008904E+01  0.46138562862E+01  0.36240103350E+02  0.51100000000E-03 0.  1.
         12    1    3    3    0    0  0.24928516751E+02 -0.15494624601E+01 -0.13244421331E+02  0.28270947591E+02  0.00000000000E+00 0. -1.
</event>
<event>
 7    1  0.2604986E-013  0.7246156E+02  0.7816164E-02  0.1226708E+00
        -11   -1    0    0    0    0  0.00000000000E+00  0.00000000000E+00  0.45593999997E+02  0.45594000000E+02  0.51100000000E-03 0. -1.
         11   -1    0    0    0    0 -0.00000000000E+00 -0.00000000000E+00 -0.45593999997E+02  0.45594000000E+02  0.51100000000E-03 0.  1.
    9900012    2    1    2    0    0  0.80292162491E+01 -0.45964743515E+01  0.16281384762E+02  0.72461564680E+02  0.69999992686E+02 0.  0.
        -12    1    1    2    0    0 -0.80292162491E+01  0.45964743515E+01 -0.16281384762E+02  0.18726435320E+02  0.00000000000E+00 0.  1.
         11    1    3    3    0    0 -0.35756434347E+01  0.15204010967E+02  0.32036135187E+02  0.35640722964E+02  0.51100000000E-03 0. -1.
        -11    1    3    3    0    0 -0.61141251257E+01 -0.59880216936E+01  0.12442281151E+01  0.86479496830E+01  0.51100000000E-03 0.  1.
        -12    1    3    3    0    0  0.17718984810E+02 -0.13812463625E+02 -0.16998978540E+02  0.28172892033E+02  0.00000000000E+00 0.  1.
</event>
<event>
 7    1  0.2604986E-013  0.7246162E+02  0.7816164E-02  0.1226708E+00
        -11   -1    0    0    0    0  0.00000000000E+00  0.00000000000E+00  0.45593999997E+02  0.45594000000E+02  0.51100000000E-03 0.  1.
         11   -1    0    0    0    0 -0.00000000000E+00 -0.00000000000E+00 -0.45593999997E+02  0.45594000000E+02  0.51100000000E-03 0. -1.
    9900012    2    1    2    0    0  0.15860024630E+02  0.75290394372E+01 -0.65154082907E+01  0.72461618574E+02  0.70000062894E+02 0.  0.
        -12    1    1    2    0    0 -0.15860024630E+02 -0.75290394372E+01  0.65154082907E+01  0.18726381426E+02  0.00000000000E+00 0.  1.
         11    1    3    3    0    0 -0.18433127176E+02 -0.22014802505E+01 -0.13913110798E+01  0.18616187568E+02  0.51100000000E-03 0. -1.
        -11    1    3    3    0    0 -0.55239766352E+01 -0.58558415093E+01 -0.75242424165E+01  0.11019048137E+02  0.51100000000E-03 0.  1.
         12    1    3    3    0    0  0.39817128441E+02  0.15586361197E+02  0.24001452056E+01  0.42826382869E+02  0.00000000000E+00 0. -1.
</event>
<event>
 7    1  0.2604986E-013  0.7246157E+02  0.7816164E-02  0.1226708E+00
        -11   -1    0    0    0    0  0.00000000000E+00  0.00000000000E+00  0.45593999997E+02  0.45594000000E+02  0.51100000000E-03 0.  1.
         11   -1    0    0    0    0 -0.00000000000E+00 -0.00000000000E+00 -0.45593999997E+02  0.45594000000E+02  0.51100000000E-03 0. -1.
    9900012    2    1    2    0    0 -0.14106773305E+02  0.59990778098E+01 -0.10755888384E+02  0.72461571547E+02  0.70000001632E+02 0.  0.
        -12    1    1    2    0    0  0.14106773305E+02 -0.59990778098E+01  0.10755888384E+02  0.18726428453E+02  0.00000000000E+00 0.  1.
         11    1    3    3    0    0  0.12767723167E+02  0.98185682836E+01 -0.42332463691E+01  0.16653510534E+02  0.51100000000E-03 0.  1.
        -11    1    3    3    0    0 -0.20896365083E+02 -0.11251943805E+02  0.17810098500E+02  0.29672612320E+02  0.51100000000E-03 0. -1.
         12    1    3    3    0    0 -0.59781313897E+01  0.74324533312E+01 -0.24332740515E+02  0.26135448693E+02  0.00000000000E+00 0. -1.
</event>
<event>
 7    1  0.2604986E-013  0.7246159E+02  0.7816164E-02  0.1226708E+00
        -11   -1    0    0    0    0  0.00000000000E+00  0.00000000000E+00  0.45593999997E+02  0.45594000000E+02  0.51100000000E-03 0.  1.
         11   -1    0    0    0    0 -0.00000000000E+00 -0.00000000000E+00 -0.45593999997E+02  0.45594000000E+02  0.51100000000E-03 0. -1.
    9900012    2    1    2    0    0 -0.17918792755E+01 -0.79739935943E+01 -0.16848826455E+02  0.72461591960E+02  0.70000028224E+02 0.  0.
        -12    1    1    2    0    0  0.17918792755E+01  0.79739935943E+01  0.16848826455E+02  0.18726408040E+02  0.00000000000E+00 0.  1.
         11    1    3    3    0    0 -0.15549782119E+02  0.85800106056E+01  0.53495296026E+01  0.18548039604E+02  0.51100000000E-03 0. -1.
        -11    1    3    3    0    0 -0.18263536646E+01  0.14336497964E+02 -0.51518167043E+01  0.15343140396E+02  0.51100000000E-03 0.  1.
        -12    1    3    3    0    0  0.15584256508E+02 -0.30890502164E+02 -0.17046539353E+02  0.38570411960E+02  0.00000000000E+00 0.  1.
</event>
<event>
 7    1  0.2604986E-013  0.7246155E+02  0.7816164E-02  0.1226708E+00
        -11   -1    0    0    0    0  0.00000000000E+00  0.00000000000E+00  0.45593999997E+02  0.45594000000E+02  0.51100000000E-03 0. -1.
         11   -1    0    0    0    0 -0.00000000000E+00 -0.00000000000E+00 -0.45593999997E+02  0.45594000000E+02  0.51100000000E-03 0.  1.
    9900012    2    1    2    0    0 -0.12570167306E+02  0.13697503914E+02 -0.22470707885E+01  0.72461546874E+02  0.69999969490E+02 0.  0.
        -12    1    1    2    0    0  0.12570167306E+02 -0.13697503914E+02  0.22470707885E+01  0.18726453126E+02  0.00000000000E+00 0.  1.
         11    1    3    3    0    0  0.46601318490E+01 -0.83958493297E+01 -0.19568370113E+01  0.97998125578E+01  0.51100000000E-03 0. -1.
        -11    1    3    3    0    0 -0.22876907032E+02 -0.59185544767E+01  0.17138269179E+02  0.29190793637E+02  0.51100000000E-03 0.  1.
         12    1    3    3    0    0  0.56466078766E+01  0.28011907720E+02 -0.17428502956E+02  0.33470940679E+02  0.00000000000E+00 0. -1.
</event>
<event>
 7    1  0.2604986E-013  0.7246155E+02  0.7816164E-02  0.1226708E+00
        -11   -1    0    0    0    0  0.00000000000E+00  0.00000000000E+00  0.45593999997E+02  0.45594000000E+02  0.51100000000E-03 0.  1.
         11   -1    0    0    0    0 -0.00000000000E+00 -0.00000000000E+00 -0.45593999997E+02  0.45594000000E+02  0.51100000000E-03 0. -1.
    9900012    2    1    2    0    0  0.73460419647E+01 -0.15392281010E+02 -0.77326108584E+01  0.72461550312E+02  0.69999973969E+02 0.  0.
        -12    1    1    2    0    0 -0.73460419647E+01  0.15392281010E+02  0.77326108584E+01  0.18726449688E+02  0.00000000000E+00 0.  1.
         11    1    3    3    0    0 -0.89397988899E+01 -0.58492988319E+01  0.16347115612E+00  0.10684616235E+02  0.51100000000E-03 0. -1.
        -11    1    3    3    0    0 -0.10555329020E+02 -0.16306075026E+02 -0.23111866289E+02  0.30190419293E+02  0.51100000000E-03 0.  1.
        -12    1    3    3    0    0  0.26841169874E+02  0.67630928484E+01  0.15215784274E+02  0.31586514784E+02  0.00000000000E+00 0.  1.
</event>
<event>
 7    1  0.2604986E-013  0.7246155E+02  0.7816164E-02  0.1226708E+00
        -11   -1    0    0    0    0  0.00000000000E+00  0.00000000000E+00  0.45593999997E+02  0.45594000000E+02  0.51100000000E-03 0.  1.
         11   -1    0    0    0    0 -0.00000000000E+00 -0.00000000000E+00 -0.45593999997E+02  0.45594000000E+02  0.51100000000E-03 0. -1.
    9900012    2    1    2    0    0 -0.59327535638E+01  0.10684915800E+02 -0.14188547246E+02  0.72461551766E+02  0.69999975864E+02 0.  0.
        -12    1    1    2    0    0  0.59327535638E+01 -0.10684915800E+02  0.14188547246E+02  0.18726448234E+02  0.00000000000E+00 0.  1.
         11    1    3    3    0    0  0.14480053987E+02 -0.19097084987E+02 -0.32424553616E+01  0.24184377923E+02  0.51100000000E-03 0. -1.
        -11    1    3    3    0    0 -0.22179019625E+01 -0.51853128792E+01  0.30950202170E+01  0.64331725591E+01  0.51100000000E-03 0.  1.
        -12    1    3    3    0    0 -0.18194905588E+02  0.34967313667E+02 -0.14041112101E+02  0.41844001284E+02  0.00000000000E+00 0.  1.
</event>
<event>
 7    1  0.2604986E-013  0.7246157E+02  0.7816164E-02  0.1226708E+00
        -11   -1    0    0    0    0  0.00000000000E+00  0.00000000000E+00  0.45593999997E+02  0.45594000000E+02  0.51100000000E-03 0.  1.
         11   -1    0    0    0    0 -0.00000000000E+00 -0.00000000000E+00 -0.45593999997E+02  0.45594000000E+02  0.51100000000E-03 0. -1.
    9900012    2    1    2    0    0 -0.21441603703E+01  0.11708218500E+02 -0.14456810699E+02  0.72461570022E+02  0.69999999645E+02 0.  0.
        -12    1    1    2    0    0  0.21441603703E+01 -0.11708218500E+02  0.14456810699E+02  0.18726429978E+02  0.00000000000E+00 0.  1.
         11    1    3    3    0    0  0.23680915783E+00  0.19196018766E+02  0.52988237817E+01  0.19915339535E+02  0.51100000000E-03 0. -1.
        -11    1    3    3    0    0 -0.23550605795E+02 -0.32098078720E+01 -0.75504403811E+00  0.23780327829E+02  0.51100000000E-03 0.  1.
         12    1    3    3    0    0  0.21169636267E+02 -0.42779923944E+01 -0.19000590443E+02  0.28765902659E+02  0.00000000000E+00 0. -1.
</event>
<event>
 7    1  0.2604986E-013  0.7246156E+02  0.7816164E-02  0.1226708E+00
        -11   -1    0    0    0    0  0.00000000000E+00  0.00000000000E+00  0.45593999997E+02  0.45594000000E+02  0.51100000000E-03 0. -1.
         11   -1    0    0    0    0 -0.00000000000E+00 -0.00000000000E+00 -0.45593999997E+02  0.45594000000E+02  0.51100000000E-03 0.  1.
    9900012    2    1    2    0    0  0.98995283743E+01 -0.11638751475E+02  0.10826749121E+02  0.72461556278E+02  0.69999981742E+02 0.  0.
        -12    1    1    2    0    0 -0.98995283743E+01  0.11638751475E+02 -0.10826749121E+02  0.18726443722E+02  0.00000000000E+00 0.  1.
         11    1    3    3    0    0 -0.34051077477E+01  0.18889766693E+01  0.26115728986E+02  0.26404436983E+02  0.51100000000E-03 0. -1.
        -11    1    3    3    0    0  0.25354624526E+02 -0.11567556348E+02 -0.18934385832E+01  0.27932963585E+02  0.51100000000E-03 0.  1.
         12    1    3    3    0    0 -0.12049988404E+02 -0.19601717964E+01 -0.13395541282E+02  0.18124155711E+02  0.00000000000E+00 0. -1.
</event>
<event>
 7    1  0.2604986E-013  0.7246160E+02  0.7816164E-02  0.1226708E+00
        -11   -1    0    0    0    0  0.00000000000E+00  0.00000000000E+00  0.45593999997E+02  0.45594000000E+02  0.51100000000E-03 0.  1.
         11   -1    0    0    0    0 -0.00000000000E+00 -0.00000000000E+00 -0.45593999997E+02  0.45594000000E+02  0.51100000000E-03 0. -1.
    9900012    2    1    2    0    0 -0.72505083926E+01 -0.12882399434E+02 -0.11495739656E+02  0.72461598387E+02  0.70000036595E+02 0.  0.
        -12    1    1    2    0    0  0.72505083926E+01  0.12882399434E+02  0.11495739656E+02  0.18726401613E+02  0.00000000000E+00 0.  1.
         11    1    3    3    0    0 -0.66605421827E+01  0.99199524544E-01  0.22536075239E+01  0.70321696400E+01  0.51100000000E-03 0. -1.
        -11    1    3    3    0    0 -0.26996798084E+02  0.76992194560E+01  0.24523259287E+01  0.28180116922E+02  0.51100000000E-03 0.  1.
         12    1    3    3    0    0  0.26406831874E+02 -0.20680818415E+02 -0.16201673109E+02  0.37249311825E+02  0.00000000000E+00 0. -1.
</event>
<event>
 7    1  0.2604986E-013  0.7246167E+02  0.7816164E-02  0.1226708E+00
        -11   -1    0    0    0    0  0.00000000000E+00  0.00000000000E+00  0.45593999997E+02  0.45594000000E+02  0.51100000000E-03 0. -1.
         11   -1    0    0    0    0 -0.00000000000E+00 -0.00000000000E+00 -0.45593999997E+02  0.45594000000E+02  0.51100000000E-03 0.  1.
    9900012    2    1    2    0    0  0.71707620280E+01  0.22718205938E+01  0.17149180805E+02  0.72461670965E+02  0.70000131142E+02 0.  0.
        -12    1    1    2    0    0 -0.71707620280E+01 -0.22718205938E+01 -0.17149180805E+02  0.18726329035E+02  0.00000000000E+00 0.  1.
         11    1    3    3    0    0 -0.44120141192E+01  0.19870748588E+02  0.10084560901E+02  0.22715873015E+02  0.51100000000E-03 0. -1.
        -11    1    3    3    0    0  0.22206272770E+02 -0.18652630265E+02 -0.90816318525E+01  0.30389392944E+02  0.51100000000E-03 0.  1.
         12    1    3    3    0    0 -0.10623496622E+02  0.10537022715E+01  0.16146251756E+02  0.19356405005E+02  0.00000000000E+00 0. -1.
</event>
<event>
 7    1  0.2604986E-013  0.7246154E+02  0.7816164E-02  0.1226708E+00
        -11   -1    0    0    0    0  0.00000000000E+00  0.00000000000E+00  0.45593999997E+02  0.45594000000E+02  0.51100000000E-03 0.  1.
         11   -1    0    0    0    0 -0.00000000000E+00 -0.00000000000E+00 -0.45593999997E+02  0.45594000000E+02  0.51100000000E-03 0. -1.
    9900012    2    1    2    0    0  0.97013849872E+01 -0.11992873840E+02 -0.10617646322E+02  0.72461539923E+02  0.69999960436E+02 0.  0.
        -12    1    1    2    0    0 -0.97013849872E+01  0.11992873840E+02  0.10617646322E+02  0.18726460077E+02  0.00000000000E+00 0.  1.
         11    1    3    3    0    0  0.26868558657E+02 -0.21537808832E+02  0.42857728478E+01  0.34701073510E+02  0.51100000000E-03 0.  1.
        -11    1    3    3    0    0  0.79201484617E+01  0.31716023883E+01 -0.16849098300E+01  0.86963633066E+01  0.51100000000E-03 0. -1.
        -12    1    3    3    0    0 -0.25087322131E+02  0.63733326042E+01 -0.13218509340E+02  0.29064103106E+02  0.00000000000E+00 0.  1.
</event>
<event>
 7    1  0.2604986E-013  0.7246152E+02  0.7816164E-02  0.1226708E+00
        -11   -1    0    0    0    0  0.00000000000E+00  0.00000000000E+00  0.45593999997E+02  0.45594000000E+02  0.51100000000E-03 0. -1.
         11   -1    0    0    0    0 -0.00000000000E+00 -0.00000000000E+00 -0.45593999997E+02  0.45594000000E+02  0.51100000000E-03 0.  1.
    9900012    2    1    2    0    0  0.52299481791E+01 -0.13603789899E+02  0.11758639629E+02  0.72461519725E+02  0.69999934124E+02 0.  0.
        -12    1    1    2    0    0 -0.52299481791E+01  0.13603789899E+02 -0.11758639629E+02  0.18726480275E+02  0.00000000000E+00 0.  1.
         11    1    3    3    0    0 -0.67358105457E+01  0.23514900910E+00 -0.20129983775E+02  0.21228346281E+02  0.51100000000E-03 0. -1.
        -11    1    3    3    0    0 -0.54092257585E+01 -0.11633699904E+01 -0.56891416250E+01  0.79359615505E+01  0.51100000000E-03 0.  1.
         12    1    3    3    0    0  0.17374984483E+02 -0.12675568918E+02  0.37577765029E+02  0.43297211894E+02  0.00000000000E+00 0. -1.
</event>
<event>
 7    1  0.2604986E-013  0.7246154E+02  0.7816164E-02  0.1226708E+00
        -11   -1    0    0    0    0  0.00000000000E+00  0.00000000000E+00  0.45593999997E+02  0.45594000000E+02  0.51100000000E-03 0. -1.
         11   -1    0    0    0    0 -0.00000000000E+00 -0.00000000000E+00 -0.45593999997E+02  0.45594000000E+02  0.51100000000E-03 0.  1.
    9900012    2    1    2    0    0  0.99332953017E+01  0.66930396201E+00  0.15860706539E+02  0.72461539169E+02  0.69999959453E+02 0.  0.
        -12    1    1    2    0    0 -0.99332953017E+01 -0.66930396201E+00 -0.15860706539E+02  0.18726460831E+02  0.00000000000E+00 0.  1.
         11    1    3    3    0    0  0.95956175687E+01  0.68184758466E+01  0.89494195580E+01  0.14787143067E+02  0.51100000000E-03 0. -1.
        -11    1    3    3    0    0 -0.25675206245E+02  0.89385542861E+01  0.33901764922E+01  0.27397212730E+02  0.51100000000E-03 0.  1.
         12    1    3    3    0    0  0.26012883978E+02 -0.15087726171E+02  0.35211104887E+01  0.30277183372E+02  0.00000000000E+00 0. -1.
</event>
<event>
 7    1  0.2604986E-013  0.7246158E+02  0.7816164E-02  0.1226708E+00
        -11   -1    0    0    0    0  0.00000000000E+00  0.00000000000E+00  0.45593999997E+02  0.45594000000E+02  0.51100000000E-03 0. -1.
         11   -1    0    0    0    0 -0.00000000000E+00 -0.00000000000E+00 -0.45593999997E+02  0.45594000000E+02  0.51100000000E-03 0.  1.
    9900012    2    1    2    0    0 -0.12308655457E+02 -0.12764761277E+02  0.60196865365E+01  0.72461581346E+02  0.70000014396E+02 0.  0.
        -12    1    1    2    0    0  0.12308655457E+02  0.12764761277E+02 -0.60196865365E+01  0.18726418654E+02  0.00000000000E+00 0.  1.
         11    1    3    3    0    0  0.47253716259E+01 -0.94623444953E+01  0.20585934680E+02  0.23144023144E+02  0.51100000000E-03 0. -1.
        -11    1    3    3    0    0 -0.93687444449E+00 -0.18908569654E+02 -0.18596888108E+02  0.26537821833E+02  0.51100000000E-03 0.  1.
        -12    1    3    3    0    0 -0.16097152638E+02  0.15606152872E+02  0.40306399636E+01  0.22779736369E+02  0.00000000000E+00 0.  1.
</event>
<event>
 7    1  0.2604986E-013  0.7246157E+02  0.7816164E-02  0.1226708E+00
        -11   -1    0    0    0    0  0.00000000000E+00  0.00000000000E+00  0.45593999997E+02  0.45594000000E+02  0.51100000000E-03 0. -1.
         11   -1    0    0    0    0 -0.00000000000E+00 -0.00000000000E+00 -0.45593999997E+02  0.45594000000E+02  0.51100000000E-03 0.  1.
    9900012    2    1    2    0    0  0.19910120135E+01  0.18280611389E+02  0.35403817784E+01  0.72461569888E+02  0.69999999471E+02 0.  0.
        -12    1    1    2    0    0 -0.19910120135E+01 -0.18280611389E+02 -0.35403817784E+01  0.18726430112E+02  0.00000000000E+00 0.  1.
         11    1    3    3    0    0  0.42424058687E+01  0.21958481153E+02  0.65862081713E+01  0.23314181101E+02  0.51100000000E-03 0. -1.
        -11    1    3    3    0    0  0.17024783434E+02  0.61976392590E+00  0.14771716032E+02  0.22548413538E+02  0.51100000000E-03 0.  1.
        -12    1    3    3    0    0 -0.19276177290E+02 -0.42976336893E+01 -0.17817542425E+02  0.26598975249E+02  0.00000000000E+00 0.  1.
</event>
<event>
 7    1  0.2604986E-013  0.7246156E+02  0.7816164E-02  0.1226708E+00
        -11   -1    0    0    0    0  0.00000000000E+00  0.00000000000E+00  0.45593999997E+02  0.45594000000E+02  0.51100000000E-03 0.  1.
         11   -1    0    0    0    0 -0.00000000000E+00 -0.00000000000E+00 -0.45593999997E+02  0.45594000000E+02  0.51100000000E-03 0. -1.
    9900012    2    1    2    0    0 -0.22428821065E+01  0.17892459867E+02  0.50506233726E+01  0.72461563161E+02  0.69999990708E+02 0.  0.
        -12    1    1    2    0    0  0.22428821065E+01 -0.17892459867E+02 -0.50506233726E+01  0.18726436839E+02  0.00000000000E+00 0.  1.
         11    1    3    3    0    0  0.24806680504E+02  0.13905340516E+02 -0.89429778815E+00  0.28452234733E+02  0.51100000000E-03 0. -1.
        -11    1    3    3    0    0 -0.23153466603E+01 -0.96282162755E+01  0.11560830398E+02  0.15222226465E+02  0.51100000000E-03 0.  1.
        -12    1    3    3    0    0 -0.24734215950E+02  0.13615335626E+02 -0.56159092371E+01  0.28787101963E+02  0.00000000000E+00 0.  1.
</event>
<event>
 7    1  0.2604986E-013  0.7246158E+02  0.7816164E-02  0.1226708E+00
        -11   -1    0    0    0    0  0.00000000000E+00  0.00000000000E+00  0.45593999997E+02  0.45594000000E+02  0.51100000000E-03 0.  1.
         11   -1    0    0    0    0 -0.00000000000E+00 -0.00000000000E+00 -0.45593999997E+02  0.45594000000E+02  0.51100000000E-03 0. -1.
    9900012    2    1    2    0    0 -0.10314453632E+02 -0.15147676802E+02  0.38521069129E+01  0.72461580324E+02  0.70000013065E+02 0.  0.
        -12    1    1    2    0    0  0.10314453632E+02  0.15147676802E+02 -0.38521069129E+01  0.18726419676E+02  0.00000000000E+00 0.  1.
         11    1    3    3    0    0 -0.52052010974E+01 -0.19490682678E+01  0.14116794842E+02  0.15171581409E+02  0.51100000000E-03 0.  1.
        -11    1    3    3    0    0 -0.29650806051E+02 -0.91006748466E+01 -0.20339096043E+01  0.31082621683E+02  0.51100000000E-03 0. -1.
         12    1    3    3    0    0  0.24541553517E+02 -0.40979336877E+01 -0.82307783246E+01  0.26207377232E+02  0.00000000000E+00 0. -1.
</event>
<event>
 7    1  0.2604986E-013  0.7246147E+02  0.7816164E-02  0.1226708E+00
        -11   -1    0    0    0    0  0.00000000000E+00  0.00000000000E+00  0.45593999997E+02  0.45594000000E+02  0.51100000000E-03 0.  1.
         11   -1    0    0    0    0 -0.00000000000E+00 -0.00000000000E+00 -0.45593999997E+02  0.45594000000E+02  0.51100000000E-03 0. -1.
    9900012    2    1    2    0    0  0.17102182755E+02 -0.50335938899E+01 -0.57324730168E+01  0.72461468839E+02  0.69999867835E+02 0.  0.
        -12    1    1    2    0    0 -0.17102182755E+02  0.50335938899E+01  0.57324730168E+01  0.18726531161E+02  0.00000000000E+00 0.  1.
         11    1    3    3    0    0  0.81108046944E+01 -0.78104624179E+01 -0.16958655786E+02  0.20356435894E+02  0.51100000000E-03 0. -1.
        -11    1    3    3    0    0  0.15032800343E+02  0.10299161405E+02 -0.15353617670E+02  0.23828373583E+02  0.51100000000E-03 0.  1.
        -12    1    3    3    0    0 -0.60414222821E+01 -0.75222928769E+01  0.26579800439E+02  0.28276659362E+02  0.00000000000E+00 0.  1.
</event>
<event>
 7    1  0.2604986E-013  0.7246157E+02  0.7816164E-02  0.1226708E+00
        -11   -1    0    0    0    0  0.00000000000E+00  0.00000000000E+00  0.45593999997E+02  0.45594000000E+02  0.51100000000E-03 0. -1.
         11   -1    0    0    0    0 -0.00000000000E+00 -0.00000000000E+00 -0.45593999997E+02  0.45594000000E+02  0.51100000000E-03 0.  1.
    9900012    2    1    2    0    0 -0.16683320975E+02 -0.75000969439E+01  0.40117944231E+01  0.72461570884E+02  0.70000000768E+02 0.  0.
        -12    1    1    2    0    0  0.16683320975E+02  0.75000969439E+01 -0.40117944231E+01  0.18726429116E+02  0.00000000000E+00 0.  1.
         11    1    3    3    0    0  0.20050692478E+01 -0.36547345857E+01  0.31477816342E+02  0.31752642559E+02  0.51100000000E-03 0. -1.
        -11    1    3    3    0    0 -0.78733434759E+00 -0.17990675962E+01  0.39962834288E+01  0.44527318687E+01  0.51100000000E-03 0.  1.
        -12    1    3    3    0    0 -0.17901055876E+02 -0.20462947620E+01 -0.31462305347E+02  0.36256196456E+02  0.00000000000E+00 0.  1.
</event>
<event>
 7    1  0.2604986E-013  0.7246160E+02  0.7816164E-02  0.1226708E+00
        -11   -1    0    0    0    0  0.00000000000E+00  0.00000000000E+00  0.45593999997E+02  0.45594000000E+02  0.51100000000E-03 0. -1.
         11   -1    0    0    0    0 -0.00000000000E+00 -0.00000000000E+00 -0.45593999997E+02  0.45594000000E+02  0.51100000000E-03 0.  1.
    9900012    2    1    2    0    0 -0.75006619171E+01 -0.11167209729E+02 -0.13027341557E+02  0.72461598040E+02  0.70000036144E+02 0.  0.
        -12    1    1    2    0    0  0.75006619171E+01  0.11167209729E+02  0.13027341557E+02  0.18726401960E+02  0.00000000000E+00 0.  1.
         11    1    3    3    0    0 -0.31865698497E+01  0.18253122071E+02 -0.70031341650E+01  0.19808447216E+02  0.51100000000E-03 0. -1.
        -11    1    3    3    0    0 -0.13761722699E+02 -0.22155716941E+02 -0.21020409313E+02  0.33498035954E+02  0.51100000000E-03 0.  1.
        -12    1    3    3    0    0  0.94476306315E+01 -0.72646148583E+01  0.14996201921E+02  0.19155114869E+02  0.00000000000E+00 0.  1.
</event>
<event>
 7    1  0.2604986E-013  0.7246158E+02  0.7816164E-02  0.1226708E+00
        -11   -1    0    0    0    0  0.00000000000E+00  0.00000000000E+00  0.45593999997E+02  0.45594000000E+02  0.51100000000E-03 0.  1.
         11   -1    0    0    0    0 -0.00000000000E+00 -0.00000000000E+00 -0.45593999997E+02  0.45594000000E+02  0.51100000000E-03 0. -1.
    9900012    2    1    2    0    0  0.13332401368E+02  0.74452374079E+01 -0.10839486542E+02  0.72461576028E+02  0.70000007469E+02 0.  0.
        -12    1    1    2    0    0 -0.13332401368E+02 -0.74452374079E+01  0.10839486542E+02  0.18726423972E+02  0.00000000000E+00 0.  1.
         11    1    3    3    0    0  0.63776855737E+01 -0.13088513061E+02 -0.15698233699E+02  0.21410712014E+02  0.51100000000E-03 0. -1.
        -11    1    3    3    0    0  0.12199391566E+02  0.14863319567E+02 -0.18356792973E+02  0.26584116905E+02  0.51100000000E-03 0.  1.
        -12    1    3    3    0    0 -0.52446757719E+01  0.56704309024E+01  0.23215540130E+02  0.24466747109E+02  0.00000000000E+00 0.  1.
</event>
<event>
 7    1  0.2604986E-013  0.7246159E+02  0.7816164E-02  0.1226708E+00
        -11   -1    0    0    0    0  0.00000000000E+00  0.00000000000E+00  0.45593999997E+02  0.45594000000E+02  0.51100000000E-03 0. -1.
         11   -1    0    0    0    0 -0.00000000000E+00 -0.00000000000E+00 -0.45593999997E+02  0.45594000000E+02  0.51100000000E-03 0.  1.
    9900012    2    1    2    0    0 -0.10433972156E+02  0.12630468416E+02  0.90709446093E+01  0.72461587010E+02  0.70000021775E+02 0.  0.
        -12    1    1    2    0    0  0.10433972156E+02 -0.12630468416E+02 -0.90709446093E+01  0.18726412990E+02  0.00000000000E+00 0.  1.
         11    1    3    3    0    0  0.11919700068E+02 -0.30411634782E+01  0.16337794432E+02  0.20451196840E+02  0.51100000000E-03 0. -1.
        -11    1    3    3    0    0  0.34581380592E+01 -0.51494038206E-01 -0.19205391260E+02  0.19514313316E+02  0.51100000000E-03 0.  1.
         12    1    3    3    0    0 -0.25811810284E+02  0.15723125933E+02  0.11938541437E+02  0.32496076854E+02  0.00000000000E+00 0. -1.
</event>
<event>
 7    1  0.2604986E-013  0.7246158E+02  0.7816164E-02  0.1226708E+00
        -11   -1    0    0    0    0  0.00000000000E+00  0.00000000000E+00  0.45593999997E+02  0.45594000000E+02  0.51100000000E-03 0.  1.
         11   -1    0    0    0    0 -0.00000000000E+00 -0.00000000000E+00 -0.45593999997E+02  0.45594000000E+02  0.51100000000E-03 0. -1.
    9900012    2    1    2    0    0  0.14368852225E+02 -0.11454595794E+02 -0.36065450033E+01  0.72461578934E+02  0.70000011255E+02 0.  0.
        -12    1    1    2    0    0 -0.14368852225E+02  0.11454595794E+02  0.36065450033E+01  0.18726421066E+02  0.00000000000E+00 0.  1.
         11    1    3    3    0    0  0.17135338379E+02 -0.19114120116E+02 -0.11877654243E+02  0.28285121173E+02  0.51100000000E-03 0. -1.
        -11    1    3    3    0    0  0.19418619158E+02  0.83163905347E+01  0.27281918990E+01  0.21299956639E+02  0.51100000000E-03 0.  1.
        -12    1    3    3    0    0 -0.22185105312E+02 -0.65686621260E+00  0.55429173408E+01  0.22876501122E+02  0.00000000000E+00 0.  1.
</event>
<event>
 7    1  0.2604986E-013  0.7246145E+02  0.7816164E-02  0.1226708E+00
        -11   -1    0    0    0    0  0.00000000000E+00  0.00000000000E+00  0.45593999997E+02  0.45594000000E+02  0.51100000000E-03 0. -1.
         11   -1    0    0    0    0 -0.00000000000E+00 -0.00000000000E+00 -0.45593999997E+02  0.45594000000E+02  0.51100000000E-03 0.  1.
    9900012    2    1    2    0    0 -0.17098313816E+02 -0.56772030831E+01  0.51088716820E+01  0.72461453600E+02  0.69999847984E+02 0.  0.
        -12    1    1    2    0    0  0.17098313816E+02  0.56772030831E+01 -0.51088716820E+01  0.18726546400E+02  0.00000000000E+00 0.  1.
         11    1    3    3    0    0 -0.74222033716E+01 -0.17016178490E+01 -0.17411812710E+02  0.19004100302E+02  0.51100000000E-03 0. -1.
        -11    1    3    3    0    0  0.13652321905E+02  0.31007080576E+01 -0.66016268916E+01  0.15478428917E+02  0.51100000000E-03 0.  1.
         12    1    3    3    0    0 -0.23328432350E+02 -0.70762932917E+01  0.29122311284E+02  0.37978924381E+02  0.00000000000E+00 0. -1.
</event>
<event>
 7    1  0.2604986E-013  0.7246155E+02  0.7816164E-02  0.1226708E+00
        -11   -1    0    0    0    0  0.00000000000E+00  0.00000000000E+00  0.45593999997E+02  0.45594000000E+02  0.51100000000E-03 0. -1.
         11   -1    0    0    0    0 -0.00000000000E+00 -0.00000000000E+00 -0.45593999997E+02  0.45594000000E+02  0.51100000000E-03 0.  1.
    9900012    2    1    2    0    0 -0.15960362620E+01  0.11672184085E+02  0.14556530122E+02  0.72461553935E+02  0.69999978688E+02 0.  0.
        -12    1    1    2    0    0  0.15960362620E+01 -0.11672184085E+02 -0.14556530122E+02  0.18726446065E+02  0.00000000000E+00 0.  1.
         11    1    3    3    0    0  0.20293425858E+01 -0.10895057110E+02 -0.97115425885E+01  0.14735486434E+02  0.51100000000E-03 0.  1.
        -11    1    3    3    0    0 -0.45578246504E+01 -0.14549977945E+02  0.72275976191E+01  0.16873464118E+02  0.51100000000E-03 0. -1.
         12    1    3    3    0    0  0.93244580265E+00  0.37117219139E+02  0.17040475091E+02  0.40852603382E+02  0.00000000000E+00 0. -1.
</event>
<event>
 7    1  0.2604986E-013  0.7246163E+02  0.7816164E-02  0.1226708E+00
        -11   -1    0    0    0    0  0.00000000000E+00  0.00000000000E+00  0.45593999997E+02  0.45594000000E+02  0.51100000000E-03 0. -1.
         11   -1    0    0    0    0 -0.00000000000E+00 -0.00000000000E+00 -0.45593999997E+02  0.45594000000E+02  0.51100000000E-03 0.  1.
    9900012    2    1    2    0    0  0.15795192210E+02 -0.98259316791E+01  0.21540005761E+01  0.72461634929E+02  0.70000084198E+02 0.  0.
        -12    1    1    2    0    0 -0.15795192210E+02  0.98259316791E+01 -0.21540005761E+01  0.18726365071E+02  0.00000000000E+00 0.  1.
         11    1    3    3    0    0 -0.31924251762E+01  0.64451165910E+01  0.81185730643E+01  0.10846305142E+02  0.51100000000E-03 0. -1.
        -11    1    3    3    0    0 -0.28414527857E+00 -0.37432860758E+01 -0.28900775702E+02  0.29143571601E+02  0.51100000000E-03 0.  1.
         12    1    3    3    0    0  0.19271762664E+02 -0.12527762194E+02  0.22936203214E+02  0.32471758186E+02  0.00000000000E+00 0. -1.
</event>
<event>
 7    1  0.2604986E-013  0.7246155E+02  0.7816164E-02  0.1226708E+00
        -11   -1    0    0    0    0  0.00000000000E+00  0.00000000000E+00  0.45593999997E+02  0.45594000000E+02  0.51100000000E-03 0.  1.
         11   -1    0    0    0    0 -0.00000000000E+00 -0.00000000000E+00 -0.45593999997E+02  0.45594000000E+02  0.51100000000E-03 0. -1.
    9900012    2    1    2    0    0 -0.10257843023E+02 -0.10953607240E+02  0.11201559050E+02  0.72461553989E+02  0.69999978759E+02 0.  0.
        -12    1    1    2    0    0  0.10257843023E+02  0.10953607240E+02 -0.11201559050E+02  0.18726446011E+02  0.00000000000E+00 0.  1.
         11    1    3    3    0    0 -0.24856865753E+02 -0.75058732878E+01 -0.19473208763E+01  0.26038317298E+02  0.51100000000E-03 0. -1.
        -11    1    3    3    0    0 -0.63229936993E+01  0.11743123320E+02  0.15515396339E+02  0.20459929581E+02  0.51100000000E-03 0.  1.
         12    1    3    3    0    0  0.20922016430E+02 -0.15190857272E+02 -0.23665164122E+01  0.25963307110E+02  0.00000000000E+00 0. -1.
</event>
<event>
 7    1  0.2604986E-013  0.7246154E+02  0.7816164E-02  0.1226708E+00
        -11   -1    0    0    0    0  0.00000000000E+00  0.00000000000E+00  0.45593999997E+02  0.45594000000E+02  0.51100000000E-03 0.  1.
         11   -1    0    0    0    0 -0.00000000000E+00 -0.00000000000E+00 -0.45593999997E+02  0.45594000000E+02  0.51100000000E-03 0. -1.
    9900012    2    1    2    0    0  0.27382133255E+01 -0.17552022561E+02  0.59252981455E+01  0.72461535670E+02  0.69999954895E+02 0.  0.
        -12    1    1    2    0    0 -0.27382133255E+01  0.17552022561E+02 -0.59252981455E+01  0.18726464330E+02  0.00000000000E+00 0.  1.
         11    1    3    3    0    0 -0.23112114873E+02 -0.20570558200E+02 -0.13956868217E+02  0.33942773741E+02  0.51100000000E-03 0. -1.
        -11    1    3    3    0    0  0.23436835970E+01  0.47486549922E+01  0.12886725206E+02  0.13932345956E+02  0.51100000000E-03 0.  1.
        -12    1    3    3    0    0  0.23506644601E+02 -0.17301193532E+01  0.69954411563E+01  0.24586415972E+02  0.00000000000E+00 0.  1.
</event>
<event>
 7    1  0.2604986E-013  0.7246160E+02  0.7816164E-02  0.1226708E+00
        -11   -1    0    0    0    0  0.00000000000E+00  0.00000000000E+00  0.45593999997E+02  0.45594000000E+02  0.51100000000E-03 0.  1.
         11   -1    0    0    0    0 -0.00000000000E+00 -0.00000000000E+00 -0.45593999997E+02  0.45594000000E+02  0.51100000000E-03 0. -1.
    9900012    2    1    2    0    0  0.14091396455E+02  0.12709909223E+01 -0.12267650774E+02  0.72461598117E+02  0.70000036244E+02 0.  0.
        -12    1    1    2    0    0 -0.14091396455E+02 -0.12709909223E+01  0.12267650774E+02  0.18726401883E+02  0.00000000000E+00 0.  1.
         11    1    3    3    0    0  0.37103538330E+01  0.10685853111E+02 -0.29281502947E+02  0.31390453921E+02  0.51100000000E-03 0. -1.
        -11    1    3    3    0    0  0.11792608402E+02  0.11466738820E+02  0.72016785251E+01  0.17955942914E+02  0.51100000000E-03 0.  1.
        -12    1    3    3    0    0 -0.14115657799E+01 -0.20881601009E+02  0.98121736472E+01  0.23115201282E+02  0.00000000000E+00 0.  1.
</event>
<event>
 7    1  0.2604986E-013  0.7246164E+02  0.7816164E-02  0.1226708E+00
        -11   -1    0    0    0    0  0.00000000000E+00  0.00000000000E+00  0.45593999997E+02  0.45594000000E+02  0.51100000000E-03 0. -1.
         11   -1    0    0    0    0 -0.00000000000E+00 -0.00000000000E+00 -0.45593999997E+02  0.45594000000E+02  0.51100000000E-03 0.  1.
    9900012    2    1    2    0    0  0.13289994038E+02 -0.72611310121E+01  0.11014923775E+02  0.72461641280E+02  0.70000092473E+02 0.  0.
        -12    1    1    2    0    0 -0.13289994038E+02  0.72611310121E+01 -0.11014923775E+02  0.18726358720E+02  0.00000000000E+00 0.  1.
         11    1    3    3    0    0  0.29093879784E+02  0.60216867443E+01  0.52519513416E+01  0.30171137620E+02  0.51100000000E-03 0. -1.
        -11    1    3    3    0    0  0.95465914900E+01  0.48690976685E+01  0.14090377792E+01  0.10808834762E+02  0.51100000000E-03 0.  1.
        -12    1    3    3    0    0 -0.25350477236E+02 -0.18151915425E+02  0.43539346547E+01  0.31481668899E+02  0.00000000000E+00 0.  1.
</event>
<event>
 7    1  0.2604986E-013  0.7246153E+02  0.7816164E-02  0.1226708E+00
        -11   -1    0    0    0    0  0.00000000000E+00  0.00000000000E+00  0.45593999997E+02  0.45594000000E+02  0.51100000000E-03 0. -1.
         11   -1    0    0    0    0 -0.00000000000E+00 -0.00000000000E+00 -0.45593999997E+02  0.45594000000E+02  0.51100000000E-03 0.  1.
    9900012    2    1    2    0    0 -0.13769405359E+02  0.41125821962E+01  0.12007117212E+02  0.72461528896E+02  0.69999946071E+02 0.  0.
        -12    1    1    2    0    0  0.13769405359E+02 -0.41125821962E+01 -0.12007117212E+02  0.18726471104E+02  0.00000000000E+00 0.  1.
         11    1    3    3    0    0  0.13203637364E+02  0.92417265264E+01 -0.14668000864E+02  0.21792104039E+02  0.51100000000E-03 0. -1.
        -11    1    3    3    0    0 -0.20002950500E+02  0.97603922530E+01  0.39247665175E+01  0.22600599065E+02  0.51100000000E-03 0.  1.
         12    1    3    3    0    0 -0.69700922233E+01 -0.14889536583E+02  0.22750351559E+02  0.28068825792E+02  0.00000000000E+00 0. -1.
</event>
<event>
 7    1  0.2604986E-013  0.7246164E+02  0.7816164E-02  0.1226708E+00
        -11   -1    0    0    0    0  0.00000000000E+00  0.00000000000E+00  0.45593999997E+02  0.45594000000E+02  0.51100000000E-03 0.  1.
         11   -1    0    0    0    0 -0.00000000000E+00 -0.00000000000E+00 -0.45593999997E+02  0.45594000000E+02  0.51100000000E-03 0. -1.
    9900012    2    1    2    0    0  0.58024388064E+01  0.23442083221E+00 -0.17803183591E+02  0.72461639030E+02  0.70000089540E+02 0.  0.
        -12    1    1    2    0    0 -0.58024388064E+01 -0.23442083221E+00  0.17803183591E+02  0.18726360970E+02  0.00000000000E+00 0.  1.
         11    1    3    3    0    0 -0.18014158993E+02 -0.10811061347E+02 -0.21180336896E+02  0.29832794756E+02  0.51100000000E-03 0. -1.
        -11    1    3    3    0    0 -0.84640835763E+01  0.71847875622E+00  0.18995958455E+01  0.87043315164E+01  0.51100000000E-03 0.  1.
         12    1    3    3    0    0  0.32280681376E+02  0.10327003423E+02  0.14775574599E+01  0.33924512757E+02  0.00000000000E+00 0. -1.
</event>
<event>
 7    1  0.2604986E-013  0.7246160E+02  0.7816164E-02  0.1226708E+00
        -11   -1    0    0    0    0  0.00000000000E+00  0.00000000000E+00  0.45593999997E+02  0.45594000000E+02  0.51100000000E-03 0.  1.
         11   -1    0    0    0    0 -0.00000000000E+00 -0.00000000000E+00 -0.45593999997E+02  0.45594000000E+02  0.51100000000E-03 0. -1.
    9900012    2    1    2    0    0  0.54391100008E+01  0.17641806600E+02 -0.31402148857E+01  0.72461595988E+02  0.70000033470E+02 0.  0.
        -12    1    1    2    0    0 -0.54391100008E+01 -0.17641806600E+02  0.31402148857E+01  0.18726404012E+02  0.00000000000E+00 0.  1.
         11    1    3    3    0    0  0.31827149505E+02 -0.11681087535E+01  0.86584383241E+01  0.33004552386E+02  0.51100000000E-03 0. -1.
        -11    1    3    3    0    0  0.26830854513E+01  0.50385051082E+00  0.83222874251E+00  0.28540178376E+01  0.51100000000E-03 0.  1.
        -12    1    3    3    0    0 -0.29071124956E+02  0.18306064843E+02 -0.12630881952E+02  0.36603025764E+02  0.00000000000E+00 0.  1.
</event>
<event>
 7    1  0.2604986E-013  0.7246158E+02  0.7816164E-02  0.1226708E+00
        -11   -1    0    0    0    0  0.00000000000E+00  0.00000000000E+00  0.45593999997E+02  0.45594000000E+02  0.51100000000E-03 0.  1.
         11   -1    0    0    0    0 -0.00000000000E+00 -0.00000000000E+00 -0.45593999997E+02  0.45594000000E+02  0.51100000000E-03 0. -1.
    9900012    2    1    2    0    0  0.73281324148E+01 -0.15071369659E+02  0.83564950202E+01  0.72461582374E+02  0.70000015736E+02 0.  0.
        -12    1    1    2    0    0 -0.73281324148E+01  0.15071369659E+02 -0.83564950202E+01  0.18726417626E+02  0.00000000000E+00 0.  1.
         11    1    3    3    0    0 -0.11145763576E+02 -0.13882146480E+02 -0.17647787048E+02  0.25067636995E+02  0.51100000000E-03 0. -1.
        -11    1    3    3    0    0  0.15344072279E+01 -0.72208782328E+01 -0.67665514969E+01  0.10014075465E+02  0.51100000000E-03 0.  1.
        -12    1    3    3    0    0  0.16939488763E+02  0.60316550535E+01  0.32770833565E+02  0.37379869914E+02  0.00000000000E+00 0.  1.
</event>
<event>
 7    1  0.2604986E-013  0.7246156E+02  0.7816164E-02  0.1226708E+00
        -11   -1    0    0    0    0  0.00000000000E+00  0.00000000000E+00  0.45593999997E+02  0.45594000000E+02  0.51100000000E-03 0.  1.
         11   -1    0    0    0    0 -0.00000000000E+00 -0.00000000000E+00 -0.45593999997E+02  0.45594000000E+02  0.51100000000E-03 0. -1.
    9900012    2    1    2    0    0  0.17840882081E+02 -0.30115755395E+01 -0.48283589814E+01  0.72461555833E+02  0.69999981162E+02 0.  0.
        -12    1    1    2    0    0 -0.17840882081E+02  0.30115755395E+01  0.48283589814E+01  0.18726444167E+02  0.00000000000E+00 0.  1.
         11    1    3    3    0    0  0.14369247540E+01 -0.28624105599E+01 -0.15339937233E+02  0.15670731366E+02  0.51100000000E-03 0. -1.
        -11    1    3    3    0    0  0.48838579135E+01  0.25748328702E+02 -0.93134681767E+00  0.26223956724E+02  0.51100000000E-03 0.  1.
        -12    1    3    3    0    0  0.11520099414E+02 -0.25897493682E+02  0.11442925070E+02  0.30566867744E+02  0.00000000000E+00 0.  1.
</event>
<event>
 7    1  0.2604986E-013  0.7246166E+02  0.7816164E-02  0.1226708E+00
        -11   -1    0    0    0    0  0.00000000000E+00  0.00000000000E+00  0.45593999997E+02  0.45594000000E+02  0.51100000000E-03 0.  1.
         11   -1    0    0    0    0 -0.00000000000E+00 -0.00000000000E+00 -0.45593999997E+02  0.45594000000E+02  0.51100000000E-03 0. -1.
    9900012    2    1    2    0    0  0.18620225338E+02 -0.14273461545E+01  0.13877305249E+01  0.72461657466E+02  0.70000113557E+02 0.  0.
        -12    1    1    2    0    0 -0.18620225338E+02  0.14273461545E+01 -0.13877305249E+01  0.18726342534E+02  0.00000000000E+00 0.  1.
         11    1    3    3    0    0  0.97787349674E+01 -0.66763472598E+01  0.84317670846E+00  0.11870476718E+02  0.51100000000E-03 0. -1.
        -11    1    3    3    0    0  0.13138159674E+02 -0.12531586646E+02 -0.23928635418E+02  0.30037168586E+02  0.51100000000E-03 0.  1.
        -12    1    3    3    0    0 -0.42966693031E+01  0.17780587751E+02  0.24473189234E+02  0.30554012161E+02  0.00000000000E+00 0.  1.
</event>
<event>
 7    1  0.2604986E-013  0.7246158E+02  0.7816164E-02  0.1226708E+00
        -11   -1    0    0    0    0  0.00000000000E+00  0.00000000000E+00  0.45593999997E+02  0.45594000000E+02  0.51100000000E-03 0.  1.
         11   -1    0    0    0    0 -0.00000000000E+00 -0.00000000000E+00 -0.45593999997E+02  0.45594000000E+02  0.51100000000E-03 0. -1.
    9900012    2    1    2    0    0 -0.25506672686E+01 -0.71872164346E+01 -0.17103123447E+02  0.72461579754E+02  0.70000012323E+02 0.  0.
        -12    1    1    2    0    0  0.25506672686E+01  0.71872164346E+01  0.17103123447E+02  0.18726420246E+02  0.00000000000E+00 0.  1.
         11    1    3    3    0    0  0.87864849926E+01  0.15866208113E+02 -0.63528057853E+01  0.19217102279E+02  0.51100000000E-03 0. -1.
        -11    1    3    3    0    0  0.14098051406E+02 -0.60719179409E+01 -0.16046619850E+02  0.22206243487E+02  0.51100000000E-03 0.  1.
        -12    1    3    3    0    0 -0.25435203667E+02 -0.16981506607E+02  0.52963021889E+01  0.31038233988E+02  0.00000000000E+00 0.  1.
</event>
<event>
 7    1  0.2604986E-013  0.7246220E+02  0.7816164E-02  0.1226706E+00
        -11   -1    0    0    0    0  0.00000000000E+00  0.00000000000E+00  0.45593999997E+02  0.45594000000E+02  0.51100000000E-03 0.  1.
         11   -1    0    0    0    0 -0.00000000000E+00 -0.00000000000E+00 -0.45593999997E+02  0.45594000000E+02  0.51100000000E-03 0. -1.
    9900012    2    1    2    0    0  0.35756511655E+01  0.15381370974E+02 -0.10063981924E+02  0.72462199978E+02  0.70000820275E+02 0.  0.
        -12    1    1    2    0    0 -0.35756511655E+01 -0.15381370974E+02  0.10063981924E+02  0.18725800022E+02  0.00000000000E+00 0.  1.
         11    1    3    3    0    0  0.12993905429E+01 -0.44556305419E+01 -0.45877435954E+00  0.46638539303E+01  0.51100000000E-03 0. -1.
        -11    1    3    3    0    0 -0.10337857063E+02 -0.21440363412E+02 -0.55908163669E+01  0.24450310832E+02  0.51100000000E-03 0.  1.
         12    1    3    3    0    0  0.12614117686E+02  0.41277364928E+02 -0.40143911974E+01  0.43348035215E+02  0.00000000000E+00 0. -1.
</event>
<event>
 7    1  0.2604986E-013  0.7246146E+02  0.7816164E-02  0.1226708E+00
        -11   -1    0    0    0    0  0.00000000000E+00  0.00000000000E+00  0.45593999997E+02  0.45594000000E+02  0.51100000000E-03 0. -1.
         11   -1    0    0    0    0 -0.00000000000E+00 -0.00000000000E+00 -0.45593999997E+02  0.45594000000E+02  0.51100000000E-03 0.  1.
    9900012    2    1    2    0    0  0.50574316794E+01 -0.17993005153E+02  0.11651643983E+01  0.72461455800E+02  0.69999850849E+02 0.  0.
        -12    1    1    2    0    0 -0.50574316794E+01  0.17993005153E+02 -0.11651643983E+01  0.18726544200E+02  0.00000000000E+00 0.  1.
         11    1    3    3    0    0 -0.70592997215E+01 -0.12563408401E+02  0.12605674341E+02  0.19146173745E+02  0.51100000000E-03 0. -1.
        -11    1    3    3    0    0 -0.35528188234E+01 -0.23592205837E+02 -0.16228300500E+02  0.28854331308E+02  0.51100000000E-03 0.  1.
         12    1    3    3    0    0  0.15669550224E+02  0.18162609086E+02  0.47877905571E+01  0.24460950747E+02  0.00000000000E+00 0. -1.
</event>
<event>
 7    1  0.2604986E-013  0.7246148E+02  0.7816164E-02  0.1226708E+00
        -11   -1    0    0    0    0  0.00000000000E+00  0.00000000000E+00  0.45593999997E+02  0.45594000000E+02  0.51100000000E-03 0. -1.
         11   -1    0    0    0    0 -0.00000000000E+00 -0.00000000000E+00 -0.45593999997E+02  0.45594000000E+02  0.51100000000E-03 0.  1.
    9900012    2    1    2    0    0  0.16490554854E+02  0.72375703398E+01  0.51343681804E+01  0.72461479757E+02  0.69999882058E+02 0.  0.
        -12    1    1    2    0    0 -0.16490554854E+02 -0.72375703398E+01 -0.51343681804E+01  0.18726520243E+02  0.00000000000E+00 0.  1.
         11    1    3    3    0    0  0.15086019235E+02 -0.28732605787E+01 -0.15228179767E+02  0.21627322118E+02  0.51100000000E-03 0. -1.
        -11    1    3    3    0    0 -0.14540088521E+02  0.35255609760E+01 -0.85012866141E+01  0.17208010598E+02  0.51100000000E-03 0.  1.
         12    1    3    3    0    0  0.15944624140E+02  0.65852699426E+01  0.28863834562E+02  0.33626147041E+02  0.00000000000E+00 0. -1.
</event>
<event>
 7    1  0.2604986E-013  0.7246155E+02  0.7816164E-02  0.1226708E+00
        -11   -1    0    0    0    0  0.00000000000E+00  0.00000000000E+00  0.45593999997E+02  0.45594000000E+02  0.51100000000E-03 0.  1.
         11   -1    0    0    0    0 -0.00000000000E+00 -0.00000000000E+00 -0.45593999997E+02  0.45594000000E+02  0.51100000000E-03 0. -1.
    9900012    2    1    2    0    0  0.10989797912E+02  0.13937729369E+02 -0.59702501595E+01  0.72461552257E+02  0.69999976503E+02 0.  0.
        -12    1    1    2    0    0 -0.10989797912E+02 -0.13937729369E+02  0.59702501595E+01  0.18726447743E+02  0.00000000000E+00 0.  1.
         11    1    3    3    0    0 -0.75348096571E+01  0.64455045279E+01 -0.18215584512E+01  0.10081466195E+02  0.51100000000E-03 0. -1.
        -11    1    3    3    0    0 -0.10030109216E+02 -0.17568582202E+01 -0.24219147688E+02  0.26272737898E+02  0.51100000000E-03 0.  1.
        -12    1    3    3    0    0  0.28554716786E+02  0.92490830612E+01  0.20070455979E+02  0.36107348163E+02  0.00000000000E+00 0.  1.
</event>
<event>
 7    1  0.2604986E-013  0.7246157E+02  0.7816164E-02  0.1226708E+00
        -11   -1    0    0    0    0  0.00000000000E+00  0.00000000000E+00  0.45593999997E+02  0.45594000000E+02  0.51100000000E-03 0. -1.
         11   -1    0    0    0    0 -0.00000000000E+00 -0.00000000000E+00 -0.45593999997E+02  0.45594000000E+02  0.51100000000E-03 0.  1.
    9900012    2    1    2    0    0  0.49107557795E+01 -0.18049947797E+02  0.87362575355E+00  0.72461565215E+02  0.69999993383E+02 0.  0.
        -12    1    1    2    0    0 -0.49107557795E+01  0.18049947797E+02 -0.87362575355E+00  0.18726434785E+02  0.00000000000E+00 0.  1.
         11    1    3    3    0    0  0.18295069279E+02  0.58189547993E+01  0.49791260138E+01  0.19833342910E+02  0.51100000000E-03 0. -1.
        -11    1    3    3    0    0  0.14719085454E+02  0.11703411111E+01 -0.23132156670E+01  0.14945639561E+02  0.51100000000E-03 0.  1.
         12    1    3    3    0    0 -0.28103398953E+02 -0.25039243707E+02 -0.17922845933E+01  0.37682582743E+02  0.00000000000E+00 0. -1.
</event>
<event>
 7    1  0.2604986E-013  0.7246157E+02  0.7816164E-02  0.1226708E+00
        -11   -1    0    0    0    0  0.00000000000E+00  0.00000000000E+00  0.45593999997E+02  0.45594000000E+02  0.51100000000E-03 0.  1.
         11   -1    0    0    0    0 -0.00000000000E+00 -0.00000000000E+00 -0.45593999997E+02  0.45594000000E+02  0.51100000000E-03 0. -1.
    9900012    2    1    2    0    0 -0.41334210714E+01 -0.14155984263E+02 -0.11541329644E+02  0.72461565471E+02  0.69999993717E+02 0.  0.
        -12    1    1    2    0    0  0.41334210714E+01  0.14155984263E+02  0.11541329644E+02  0.18726434529E+02  0.00000000000E+00 0.  1.
         11    1    3    3    0    0 -0.16347367392E+02 -0.93723113483E+01 -0.26210120454E+02  0.32280753633E+02  0.51100000000E-03 0. -1.
        -11    1    3    3    0    0 -0.82234418992E+01 -0.40260665481E+01 -0.61243261320E+01  0.11015515392E+02  0.51100000000E-03 0.  1.
        -12    1    3    3    0    0  0.20437388220E+02 -0.75760636654E+00  0.20793116942E+02  0.29165296446E+02  0.00000000000E+00 0.  1.
</event>
<event>
 7    1  0.2604986E-013  0.7246156E+02  0.7816164E-02  0.1226708E+00
        -11   -1    0    0    0    0  0.00000000000E+00  0.00000000000E+00  0.45593999997E+02  0.45594000000E+02  0.51100000000E-03 0.  1.
         11   -1    0    0    0    0 -0.00000000000E+00 -0.00000000000E+00 -0.45593999997E+02  0.45594000000E+02  0.51100000000E-03 0. -1.
    9900012    2    1    2    0    0  0.15995467722E+02  0.80929805229E+01  0.54155515827E+01  0.72461560927E+02  0.69999987798E+02 0.  0.
        -12    1    1    2    0    0 -0.15995467722E+02 -0.80929805229E+01 -0.54155515827E+01  0.18726439073E+02  0.00000000000E+00 0.  1.
         11    1    3    3    0    0 -0.66393711425E+01 -0.59968739288E-01 -0.42756740661E+01  0.78972295394E+01  0.51100000000E-03 0. -1.
        -11    1    3    3    0    0 -0.20305125675E+02  0.38808931892E+01  0.36244386335E+01  0.20987996957E+02  0.51100000000E-03 0.  1.
         12    1    3    3    0    0  0.42939964539E+02  0.42720560730E+01  0.60667870153E+01  0.43576334431E+02  0.00000000000E+00 0. -1.
</event>
<event>
 7    1  0.2604986E-013  0.7246137E+02  0.7816164E-02  0.1226709E+00
        -11   -1    0    0    0    0  0.00000000000E+00  0.00000000000E+00  0.45593999997E+02  0.45594000000E+02  0.51100000000E-03 0. -1.
         11   -1    0    0    0    0 -0.00000000000E+00 -0.00000000000E+00 -0.45593999997E+02  0.45594000000E+02  0.51100000000E-03 0.  1.
    9900012    2    1    2    0    0  0.94699736740E+01 -0.15956224408E+02 -0.25308684459E+01  0.72461366725E+02  0.69999734812E+02 0.  0.
        -12    1    1    2    0    0 -0.94699736740E+01  0.15956224408E+02  0.25308684459E+01  0.18726633275E+02  0.00000000000E+00 0.  1.
         11    1    3    3    0    0  0.17513186505E+02 -0.10335202608E+02  0.65587864348E+00  0.20345964995E+02  0.51100000000E-03 0. -1.
        -11    1    3    3    0    0  0.17029245063E+02 -0.91060403906E+01 -0.14736433442E+02  0.24291513536E+02  0.51100000000E-03 0.  1.
        -12    1    3    3    0    0 -0.25072457894E+02  0.34850185912E+01  0.11549686352E+02  0.27823888195E+02  0.00000000000E+00 0.  1.
</event>
<event>
 7    1  0.2604986E-013  0.7246155E+02  0.7816164E-02  0.1226708E+00
        -11   -1    0    0    0    0  0.00000000000E+00  0.00000000000E+00  0.45593999997E+02  0.45594000000E+02  0.51100000000E-03 0.  1.
         11   -1    0    0    0    0 -0.00000000000E+00 -0.00000000000E+00 -0.45593999997E+02  0.45594000000E+02  0.51100000000E-03 0. -1.
    9900012    2    1    2    0    0  0.29334493027E+01 -0.65170867474E+01 -0.17309027145E+02  0.72461549049E+02  0.69999972324E+02 0.  0.
        -12    1    1    2    0    0 -0.29334493027E+01  0.65170867474E+01  0.17309027145E+02  0.18726450951E+02  0.00000000000E+00 0.  1.
         11    1    3    3    0    0  0.32273286456E+01 -0.98622073625E+01 -0.55394859957E+01  0.11762852103E+02  0.51100000000E-03 0. -1.
        -11    1    3    3    0    0  0.14811349659E+02 -0.19692803821E+02  0.89628384206E+01  0.26220508650E+02  0.51100000000E-03 0.  1.
         12    1    3    3    0    0 -0.15105229002E+02  0.23037924436E+02 -0.20732379570E+02  0.34478188296E+02  0.00000000000E+00 0. -1.
</event>
<event>
 7    1  0.2604986E-013  0.7246158E+02  0.7816164E-02  0.1226708E+00
        -11   -1    0    0    0    0  0.00000000000E+00  0.00000000000E+00  0.45593999997E+02  0.45594000000E+02  0.51100000000E-03 0.  1.
         11   -1    0    0    0    0 -0.00000000000E+00 -0.00000000000E+00 -0.45593999997E+02  0.45594000000E+02  0.51100000000E-03 0. -1.
    9900012    2    1    2    0    0 -0.13380743657E+02  0.70007390548E+01  0.11073574424E+02  0.72461582867E+02  0.70000016378E+02 0.  0.
        -12    1    1    2    0    0  0.13380743657E+02 -0.70007390548E+01 -0.11073574424E+02  0.18726417133E+02  0.00000000000E+00 0.  1.
         11    1    3    3    0    0 -0.25646348423E+02  0.10845642946E+02 -0.66956857130E+01  0.28639053157E+02  0.51100000000E-03 0. -1.
        -11    1    3    3    0    0 -0.17967996699E+01  0.14909359946E+02  0.10968912427E+01  0.15057246552E+02  0.51100000000E-03 0.  1.
        -12    1    3    3    0    0  0.14062404436E+02 -0.18754263837E+02  0.16672368895E+02  0.28765283158E+02  0.00000000000E+00 0.  1.
</event>
<event>
 7    1  0.2604986E-013  0.7246147E+02  0.7816164E-02  0.1226708E+00
        -11   -1    0    0    0    0  0.00000000000E+00  0.00000000000E+00  0.45593999997E+02  0.45594000000E+02  0.51100000000E-03 0.  1.
         11   -1    0    0    0    0 -0.00000000000E+00 -0.00000000000E+00 -0.45593999997E+02  0.45594000000E+02  0.51100000000E-03 0. -1.
    9900012    2    1    2    0    0  0.17504415945E+02  0.44624165172E+01 -0.49360989018E+01  0.72461473063E+02  0.69999873339E+02 0.  0.
        -12    1    1    2    0    0 -0.17504415945E+02 -0.44624165172E+01  0.49360989018E+01  0.18726526937E+02  0.00000000000E+00 0.  1.
         11    1    3    3    0    0 -0.49124423856E-02  0.61690761343E+00 -0.17127339635E+02  0.17138446907E+02  0.51100000000E-03 0. -1.
        -11    1    3    3    0    0 -0.24553947013E+01 -0.25843269755E+01 -0.18117280141E+02  0.18464656754E+02  0.51100000000E-03 0.  1.
        -12    1    3    3    0    0  0.19964723088E+02  0.64298358793E+01  0.30308520875E+02  0.36858369403E+02  0.00000000000E+00 0.  1.
</event>
<event>
 7    1  0.2604986E-013  0.7246156E+02  0.7816164E-02  0.1226708E+00
        -11   -1    0    0    0    0  0.00000000000E+00  0.00000000000E+00  0.45593999997E+02  0.45594000000E+02  0.51100000000E-03 0.  1.
         11   -1    0    0    0    0 -0.00000000000E+00 -0.00000000000E+00 -0.45593999997E+02  0.45594000000E+02  0.51100000000E-03 0. -1.
    9900012    2    1    2    0    0  0.12205145409E+02 -0.49472789815E+00 -0.14193982104E+02  0.72461562588E+02  0.69999989961E+02 0.  0.
        -12    1    1    2    0    0 -0.12205145409E+02  0.49472789815E+00  0.14193982104E+02  0.18726437412E+02  0.00000000000E+00 0.  1.
         11    1    3    3    0    0  0.36845189650E+01 -0.79808594405E+01 -0.19086642612E+02  0.21013560476E+02  0.51100000000E-03 0. -1.
        -11    1    3    3    0    0 -0.46894903679E+01 -0.61606084679E+01 -0.19238985872E+02  0.20738442426E+02  0.51100000000E-03 0.  1.
        -12    1    3    3    0    0  0.13210116812E+02  0.13646740010E+02  0.24131646380E+02  0.30709559686E+02  0.00000000000E+00 0.  1.
</event>
<event>
 7    1  0.2604986E-013  0.7246157E+02  0.7816164E-02  0.1226708E+00
        -11   -1    0    0    0    0  0.00000000000E+00  0.00000000000E+00  0.45593999997E+02  0.45594000000E+02  0.51100000000E-03 0. -1.
         11   -1    0    0    0    0 -0.00000000000E+00 -0.00000000000E+00 -0.45593999997E+02  0.45594000000E+02  0.51100000000E-03 0.  1.
    9900012    2    1    2    0    0 -0.61516626095E+01  0.17242597200E+02  0.39406865553E+01  0.72461571574E+02  0.70000001667E+02 0.  0.
        -12    1    1    2    0    0  0.61516626095E+01 -0.17242597200E+02 -0.39406865553E+01  0.18726428426E+02  0.00000000000E+00 0.  1.
         11    1    3    3    0    0 -0.10062926416E+02 -0.22117892408E+00 -0.85686739708E+01  0.13218683068E+02  0.51100000000E-03 0. -1.
        -11    1    3    3    0    0 -0.85634683580E+01 -0.16468220580E+02 -0.47824743929E+01  0.19167872625E+02  0.51100000000E-03 0.  1.
         12    1    3    3    0    0  0.12474732165E+02  0.33931996705E+02  0.17291834919E+02  0.40075015880E+02  0.00000000000E+00 0. -1.
</event>
<event>
 7    1  0.2604986E-013  0.7246155E+02  0.7816164E-02  0.1226708E+00
        -11   -1    0    0    0    0  0.00000000000E+00  0.00000000000E+00  0.45593999997E+02  0.45594000000E+02  0.51100000000E-03 0.  1.
         11   -1    0    0    0    0 -0.00000000000E+00 -0.00000000000E+00 -0.45593999997E+02  0.45594000000E+02  0.51100000000E-03 0. -1.
    9900012    2    1    2    0    0  0.11124564498E+02  0.68609258994E+01 -0.13410877223E+02  0.72461551662E+02  0.69999975728E+02 0.  0.
        -12    1    1    2    0    0 -0.11124564498E+02 -0.68609258994E+01  0.13410877223E+02  0.18726448338E+02  0.00000000000E+00 0.  1.
         11    1    3    3    0    0  0.22702916010E+02  0.68396684769E+01 -0.18401443498E+02  0.30013606636E+02  0.51100000000E-03 0. -1.
        -11    1    3    3    0    0 -0.14031369838E+02 -0.52141229081E+00 -0.16011587691E+02  0.21296059517E+02  0.51100000000E-03 0.  1.
        -12    1    3    3    0    0  0.24530183262E+01  0.54266971329E+00  0.21002153967E+02  0.21151885509E+02  0.00000000000E+00 0.  1.
</event>
<event>
 7    1  0.2604986E-013  0.7246159E+02  0.7816164E-02  0.1226708E+00
        -11   -1    0    0    0    0  0.00000000000E+00  0.00000000000E+00  0.45593999997E+02  0.45594000000E+02  0.51100000000E-03 0.  1.
         11   -1    0    0    0    0 -0.00000000000E+00 -0.00000000000E+00 -0.45593999997E+02  0.45594000000E+02  0.51100000000E-03 0. -1.
    9900012    2    1    2    0    0  0.21176401466E+01  0.18366354047E+02 -0.29784362171E+01  0.72461589691E+02  0.70000025268E+02 0.  0.
        -12    1    1    2    0    0 -0.21176401466E+01 -0.18366354047E+02  0.29784362171E+01  0.18726410309E+02  0.00000000000E+00 0.  1.
         11    1    3    3    0    0 -0.16258639598E+02  0.24368615327E+02 -0.42733415314E+00  0.29297702798E+02  0.51100000000E-03 0. -1.
        -11    1    3    3    0    0 -0.26601687060E+01  0.33904802472E+01  0.14096373580E+02  0.14740407125E+02  0.51100000000E-03 0.  1.
         12    1    3    3    0    0  0.21036448450E+02 -0.93927415275E+01 -0.16647475644E+02  0.28423479768E+02  0.00000000000E+00 0. -1.
</event>
<event>
 7    1  0.2604986E-013  0.7246146E+02  0.7816164E-02  0.1226708E+00
        -11   -1    0    0    0    0  0.00000000000E+00  0.00000000000E+00  0.45593999997E+02  0.45594000000E+02  0.51100000000E-03 0.  1.
         11   -1    0    0    0    0 -0.00000000000E+00 -0.00000000000E+00 -0.45593999997E+02  0.45594000000E+02  0.51100000000E-03 0. -1.
    9900012    2    1    2    0    0  0.11626960848E+02 -0.99372352431E+01 -0.10805012527E+02  0.72461463787E+02  0.69999861254E+02 0.  0.
        -12    1    1    2    0    0 -0.11626960848E+02  0.99372352431E+01  0.10805012527E+02  0.18726536213E+02  0.00000000000E+00 0.  1.
         11    1    3    3    0    0  0.44750157864E+01  0.38977156483E+01 -0.29134783428E+02  0.29733038177E+02  0.51100000000E-03 0. -1.
        -11    1    3    3    0    0  0.10601469242E+02 -0.13711779768E+02 -0.58581877058E+01  0.18295420683E+02  0.51100000000E-03 0.  1.
        -12    1    3    3    0    0 -0.34495241809E+01 -0.12317112374E+00  0.24187958607E+02  0.24433004928E+02  0.00000000000E+00 0.  1.
</event>
<event>
 7    1  0.2604986E-013  0.7246154E+02  0.7816164E-02  0.1226708E+00
        -11   -1    0    0    0    0  0.00000000000E+00  0.00000000000E+00  0.45593999997E+02  0.45594000000E+02  0.51100000000E-03 0.  1.
         11   -1    0    0    0    0 -0.00000000000E+00 -0.00000000000E+00 -0.45593999997E+02  0.45594000000E+02  0.51100000000E-03 0. -1.
    9900012    2    1    2    0    0  0.14146907704E+02  0.74097050709E-02 -0.12269685871E+02  0.72461541609E+02  0.69999962633E+02 0.  0.
        -12    1    1    2    0    0 -0.14146907704E+02 -0.74097050709E-02  0.12269685871E+02  0.18726458391E+02  0.00000000000E+00 0.  1.
         11    1    3    3    0    0  0.75782271364E+01 -0.44260605227E+01 -0.20215276286E+02  0.22038079178E+02  0.51100000000E-03 0. -1.
        -11    1    3    3    0    0  0.20596684607E+02 -0.12631099004E+02  0.13456804369E+02  0.27655987832E+02  0.51100000000E-03 0.  1.
         12    1    3    3    0    0 -0.14028004040E+02  0.17064569232E+02 -0.55112139536E+01  0.22767474600E+02  0.00000000000E+00 0. -1.
</event>
<event>
 7    1  0.2604986E-013  0.7246157E+02  0.7816164E-02  0.1226708E+00
        -11   -1    0    0    0    0  0.00000000000E+00  0.00000000000E+00  0.45593999997E+02  0.45594000000E+02  0.51100000000E-03 0.  1.
         11   -1    0    0    0    0 -0.00000000000E+00 -0.00000000000E+00 -0.45593999997E+02  0.45594000000E+02  0.51100000000E-03 0. -1.
    9900012    2    1    2    0    0 -0.43514478747E+01 -0.21217182957E+01 -0.18089841692E+02  0.72461570560E+02  0.70000000346E+02 0.  0.
        -12    1    1    2    0    0  0.43514478747E+01  0.21217182957E+01  0.18089841692E+02  0.18726429440E+02  0.00000000000E+00 0.  1.
         11    1    3    3    0    0 -0.15700048136E+01  0.33420344571E+01 -0.31386578880E+02  0.31603029023E+02  0.51100000000E-03 0. -1.
        -11    1    3    3    0    0  0.16833115676E+02  0.72109186055E+00  0.96046901259E+00  0.16875907615E+02  0.51100000000E-03 0.  1.
        -12    1    3    3    0    0 -0.19614558737E+02 -0.61848446134E+01  0.12336268175E+02  0.23982633922E+02  0.00000000000E+00 0.  1.
</event>
<event>
 7    1  0.2604986E-013  0.7246161E+02  0.7816164E-02  0.1226708E+00
        -11   -1    0    0    0    0  0.00000000000E+00  0.00000000000E+00  0.45593999997E+02  0.45594000000E+02  0.51100000000E-03 0. -1.
         11   -1    0    0    0    0 -0.00000000000E+00 -0.00000000000E+00 -0.45593999997E+02  0.45594000000E+02  0.51100000000E-03 0.  1.
    9900012    2    1    2    0    0 -0.23722896755E+01  0.16350508532E+02  0.88153808830E+01  0.72461606122E+02  0.70000046672E+02 0.  0.
        -12    1    1    2    0    0  0.23722896755E+01 -0.16350508532E+02 -0.88153808830E+01  0.18726393878E+02  0.00000000000E+00 0.  1.
         11    1    3    3    0    0  0.28111699395E+01  0.24514779762E+02  0.24406109271E+02  0.34706415448E+02  0.51100000000E-03 0. -1.
        -11    1    3    3    0    0  0.24413151759E+01 -0.12020360797E+01  0.98923433311E+01  0.10259793729E+02  0.51100000000E-03 0.  1.
        -12    1    3    3    0    0 -0.76247747910E+01 -0.69622351497E+01 -0.25483071720E+02  0.27495396945E+02  0.00000000000E+00 0.  1.
</event>
<event>
 7    1  0.2604986E-013  0.7246161E+02  0.7816164E-02  0.1226708E+00
        -11   -1    0    0    0    0  0.00000000000E+00  0.00000000000E+00  0.45593999997E+02  0.45594000000E+02  0.51100000000E-03 0.  1.
         11   -1    0    0    0    0 -0.00000000000E+00 -0.00000000000E+00 -0.45593999997E+02  0.45594000000E+02  0.51100000000E-03 0. -1.
    9900012    2    1    2    0    0  0.69241476835E+01  0.29067952791E+01 -0.17154718049E+02  0.72461611366E+02  0.70000053503E+02 0.  0.
        -12    1    1    2    0    0 -0.69241476835E+01 -0.29067952791E+01  0.17154718049E+02  0.18726388634E+02  0.00000000000E+00 0.  1.
         11    1    3    3    0    0 -0.10624054791E+02 -0.25210197019E+02 -0.10480253443E+02  0.29296079711E+02  0.51100000000E-03 0. -1.
        -11    1    3    3    0    0  0.87830623114E+01  0.87201096716E+00 -0.11125378102E+02  0.14201289549E+02  0.51100000000E-03 0.  1.
        -12    1    3    3    0    0  0.87651401626E+01  0.27244981331E+02  0.44509134955E+01  0.28964242106E+02  0.00000000000E+00 0.  1.
</event>
<event>
 7    1  0.2604986E-013  0.7246158E+02  0.7816164E-02  0.1226708E+00
        -11   -1    0    0    0    0  0.00000000000E+00  0.00000000000E+00  0.45593999997E+02  0.45594000000E+02  0.51100000000E-03 0.  1.
         11   -1    0    0    0    0 -0.00000000000E+00 -0.00000000000E+00 -0.45593999997E+02  0.45594000000E+02  0.51100000000E-03 0. -1.
    9900012    2    1    2    0    0  0.86907089151E+01 -0.33836244022E+01 -0.16238891893E+02  0.72461576277E+02  0.70000007794E+02 0.  0.
        -12    1    1    2    0    0 -0.86907089151E+01  0.33836244022E+01  0.16238891893E+02  0.18726423723E+02  0.00000000000E+00 0.  1.
         11    1    3    3    0    0 -0.51684368360E+00  0.11909910776E+02 -0.23182790836E+02  0.26068273692E+02  0.51100000000E-03 0. -1.
        -11    1    3    3    0    0  0.10286491090E+02  0.28084900972E+01 -0.14697836901E+02  0.18158356902E+02  0.51100000000E-03 0.  1.
        -12    1    3    3    0    0 -0.10789384909E+01 -0.18102025276E+02  0.21641735844E+02  0.28234945682E+02  0.00000000000E+00 0.  1.
</event>
<event>
 7    1  0.2604986E-013  0.7246156E+02  0.7816164E-02  0.1226708E+00
        -11   -1    0    0    0    0  0.00000000000E+00  0.00000000000E+00  0.45593999997E+02  0.45594000000E+02  0.51100000000E-03 0.  1.
         11   -1    0    0    0    0 -0.00000000000E+00 -0.00000000000E+00 -0.45593999997E+02  0.45594000000E+02  0.51100000000E-03 0. -1.
    9900012    2    1    2    0    0  0.16882253181E+02  0.60346221018E+01 -0.54085370759E+01  0.72461563882E+02  0.69999991647E+02 0.  0.
        -12    1    1    2    0    0 -0.16882253181E+02 -0.60346221018E+01  0.54085370759E+01  0.18726436118E+02  0.00000000000E+00 0.  1.
         11    1    3    3    0    0 -0.98884243282E+01  0.10409792830E+02 -0.25104370527E+02  0.28920133856E+02  0.51100000000E-03 0. -1.
        -11    1    3    3    0    0  0.61553981977E+01  0.10471251730E+02  0.11808474631E+02  0.16940369333E+02  0.51100000000E-03 0.  1.
        -12    1    3    3    0    0  0.20615279311E+02 -0.14846422458E+02  0.78873588204E+01  0.26601060694E+02  0.00000000000E+00 0.  1.
</event>
<event>
 7    1  0.2604986E-013  0.7246162E+02  0.7816164E-02  0.1226708E+00
        -11   -1    0    0    0    0  0.00000000000E+00  0.00000000000E+00  0.45593999997E+02  0.45594000000E+02  0.51100000000E-03 0.  1.
         11   -1    0    0    0    0 -0.00000000000E+00 -0.00000000000E+00 -0.45593999997E+02  0.45594000000E+02  0.51100000000E-03 0. -1.
    9900012    2    1    2    0    0 -0.80087972359E+01  0.60690676621E+01 -0.15801992683E+02  0.72461617856E+02  0.70000061957E+02 0.  0.
        -12    1    1    2    0    0  0.80087972359E+01 -0.60690676621E+01  0.15801992683E+02  0.18726382144E+02  0.00000000000E+00 0.  1.
         11    1    3    3    0    0  0.21917205522E+01 -0.10512278083E+01 -0.12558607108E+02  0.12791689945E+02  0.51100000000E-03 0. -1.
        -11    1    3    3    0    0 -0.29982959302E+02 -0.16533406011E+01 -0.16528348666E+02  0.34276780676E+02  0.51100000000E-03 0.  1.
         12    1    3    3    0    0  0.19782441514E+02  0.87736360715E+01  0.13284963091E+02  0.25393147235E+02  0.00000000000E+00 0. -1.
</event>
<event>
 7    1  0.2604986E-013  0.7246166E+02  0.7816164E-02  0.1226708E+00
        -11   -1    0    0    0    0  0.00000000000E+00  0.00000000000E+00  0.45593999997E+02  0.45594000000E+02  0.51100000000E-03 0.  1.
         11   -1    0    0    0    0 -0.00000000000E+00 -0.00000000000E+00 -0.45593999997E+02  0.45594000000E+02  0.51100000000E-03 0. -1.
    9900012    2    1    2    0    0  0.14506908652E+02 -0.10971092993E+02  0.44565139653E+01  0.72461660346E+02  0.70000117309E+02 0.  0.
        -12    1    1    2    0    0 -0.14506908652E+02  0.10971092993E+02 -0.44565139653E+01  0.18726339654E+02  0.00000000000E+00 0.  1.
         11    1    3    3    0    0  0.30872001270E+02 -0.25480802557E+02 -0.25919972710E+01  0.40113217416E+02  0.51100000000E-03 0. -1.
        -11    1    3    3    0    0 -0.18863611613E+01 -0.44118107365E+01  0.70439329253E+01  0.85228764935E+01  0.51100000000E-03 0.  1.
        -12    1    3    3    0    0 -0.14478731456E+02  0.18921520301E+02  0.45783110157E-02  0.23825566437E+02  0.00000000000E+00 0.  1.
</event>
<event>
 7    1  0.2604986E-013  0.7246153E+02  0.7816164E-02  0.1226708E+00
        -11   -1    0    0    0    0  0.00000000000E+00  0.00000000000E+00  0.45593999997E+02  0.45594000000E+02  0.51100000000E-03 0. -1.
         11   -1    0    0    0    0 -0.00000000000E+00 -0.00000000000E+00 -0.45593999997E+02  0.45594000000E+02  0.51100000000E-03 0.  1.
    9900012    2    1    2    0    0 -0.52526102490E+01  0.14306504699E+02  0.10881845554E+02  0.72461533334E+02  0.69999951852E+02 0.  0.
        -12    1    1    2    0    0  0.52526102490E+01 -0.14306504699E+02 -0.10881845554E+02  0.18726466666E+02  0.00000000000E+00 0.  1.
         11    1    3    3    0    0 -0.19010350137E+02  0.59561661873E+01  0.11976399581E+02  0.23244428906E+02  0.51100000000E-03 0. -1.
        -11    1    3    3    0    0  0.24210361820E+01 -0.13034472312E+02  0.15100795372E+02  0.20094598921E+02  0.51100000000E-03 0.  1.
         12    1    3    3    0    0  0.11336703706E+02  0.21384810824E+02 -0.16195349400E+02  0.29122505508E+02  0.00000000000E+00 0. -1.
</event>
<event>
 7    1  0.2604986E-013  0.7246156E+02  0.7816164E-02  0.1226708E+00
        -11   -1    0    0    0    0  0.00000000000E+00  0.00000000000E+00  0.45593999997E+02  0.45594000000E+02  0.51100000000E-03 0. -1.
         11   -1    0    0    0    0 -0.00000000000E+00 -0.00000000000E+00 -0.45593999997E+02  0.45594000000E+02  0.51100000000E-03 0.  1.
    9900012    2    1    2    0    0 -0.45610749871E+01  0.69460459826E+01  0.16781797786E+02  0.72461556217E+02  0.69999981662E+02 0.  0.
        -12    1    1    2    0    0  0.45610749871E+01 -0.69460459826E+01 -0.16781797786E+02  0.18726443783E+02  0.00000000000E+00 0.  1.
         11    1    3    3    0    0 -0.22218025089E+02 -0.10771414581E+02  0.17277106089E+00  0.24691979691E+02  0.51100000000E-03 0. -1.
        -11    1    3    3    0    0  0.12954803591E+02 -0.62602463911E+01 -0.49175596600E+01  0.15205262715E+02  0.51100000000E-03 0.  1.
        -12    1    3    3    0    0  0.47021465107E+01  0.23977706955E+02  0.21526586385E+02  0.32564313811E+02  0.00000000000E+00 0.  1.
</event>
<event>
 7    1  0.2604986E-013  0.7246159E+02  0.7816164E-02  0.1226708E+00
        -11   -1    0    0    0    0  0.00000000000E+00  0.00000000000E+00  0.45593999997E+02  0.45594000000E+02  0.51100000000E-03 0. -1.
         11   -1    0    0    0    0 -0.00000000000E+00 -0.00000000000E+00 -0.45593999997E+02  0.45594000000E+02  0.51100000000E-03 0.  1.
    9900012    2    1    2    0    0 -0.12170896670E+02 -0.43765174856E+01  0.13542290497E+02  0.72461594500E+02  0.70000031532E+02 0.  0.
        -12    1    1    2    0    0  0.12170896670E+02  0.43765174856E+01 -0.13542290497E+02  0.18726405500E+02  0.00000000000E+00 0.  1.
         11    1    3    3    0    0 -0.44767044607E+01  0.11591594088E+02 -0.16765191435E+02  0.20868099589E+02  0.51100000000E-03 0.  1.
        -11    1    3    3    0    0  0.14032187532E+02 -0.13502662178E+02  0.17911444767E+02  0.26458345124E+02  0.51100000000E-03 0. -1.
         12    1    3    3    0    0 -0.21726379742E+02 -0.24654493951E+01  0.12396037165E+02  0.25135149787E+02  0.00000000000E+00 0. -1.
</event>
<event>
 7    1  0.2604986E-013  0.7246159E+02  0.7816164E-02  0.1226708E+00
        -11   -1    0    0    0    0  0.00000000000E+00  0.00000000000E+00  0.45593999997E+02  0.45594000000E+02  0.51100000000E-03 0.  1.
         11   -1    0    0    0    0 -0.00000000000E+00 -0.00000000000E+00 -0.45593999997E+02  0.45594000000E+02  0.51100000000E-03 0. -1.
    9900012    2    1    2    0    0  0.21103372266E+01 -0.18449651699E+02  0.24156517652E+01  0.72461586984E+02  0.70000021741E+02 0.  0.
        -12    1    1    2    0    0 -0.21103372266E+01  0.18449651699E+02 -0.24156517652E+01  0.18726413016E+02  0.00000000000E+00 0.  1.
         11    1    3    3    0    0  0.15125492361E+02  0.42241683876E+01 -0.89739534491E+01  0.18087453068E+02  0.51100000000E-03 0. -1.
        -11    1    3    3    0    0  0.42628942847E+01  0.12881649886E+02  0.41162672357E+01  0.14179309845E+02  0.51100000000E-03 0.  1.
         12    1    3    3    0    0 -0.17278049419E+02 -0.35555469972E+02  0.72733379786E+01  0.40194824070E+02  0.00000000000E+00 0. -1.
</event>
<event>
 7    1  0.2604986E-013  0.7246156E+02  0.7816164E-02  0.1226708E+00
        -11   -1    0    0    0    0  0.00000000000E+00  0.00000000000E+00  0.45593999997E+02  0.45594000000E+02  0.51100000000E-03 0.  1.
         11   -1    0    0    0    0 -0.00000000000E+00 -0.00000000000E+00 -0.45593999997E+02  0.45594000000E+02  0.51100000000E-03 0. -1.
    9900012    2    1    2    0    0  0.18518788044E+01  0.16858752834E+02 -0.79393096088E+01  0.72461557752E+02  0.69999983661E+02 0.  0.
        -12    1    1    2    0    0 -0.18518788044E+01 -0.16858752834E+02  0.79393096088E+01  0.18726442248E+02  0.00000000000E+00 0.  1.
         11    1    3    3    0    0  0.54480504240E+01 -0.22082711899E+02  0.10261117963E+02  0.24952313727E+02  0.51100000000E-03 0.  1.
        -11    1    3    3    0    0 -0.11701465776E+02  0.18590325578E+02 -0.85455708149E+01  0.23570135494E+02  0.51100000000E-03 0. -1.
        -12    1    3    3    0    0  0.81052941560E+01  0.20351139155E+02 -0.96548567566E+01  0.23939108531E+02  0.00000000000E+00 0.  1.
</event>
<event>
 7    1  0.2604986E-013  0.7246156E+02  0.7816164E-02  0.1226708E+00
        -11   -1    0    0    0    0  0.00000000000E+00  0.00000000000E+00  0.45593999997E+02  0.45594000000E+02  0.51100000000E-03 0.  1.
         11   -1    0    0    0    0 -0.00000000000E+00 -0.00000000000E+00 -0.45593999997E+02  0.45594000000E+02  0.51100000000E-03 0. -1.
    9900012    2    1    2    0    0 -0.14335695574E+00 -0.93595860292E+01 -0.16219031210E+02  0.72461564802E+02  0.69999992845E+02 0.  0.
        -12    1    1    2    0    0  0.14335695574E+00  0.93595860292E+01  0.16219031210E+02  0.18726435198E+02  0.00000000000E+00 0.  1.
         11    1    3    3    0    0  0.28365114887E+01 -0.26591776145E+02 -0.28577441017E+02  0.39138708350E+02  0.51100000000E-03 0. -1.
        -11    1    3    3    0    0  0.94213609210E+01  0.71165572397E+00  0.75979830301E+01  0.12124266652E+02  0.51100000000E-03 0.  1.
        -12    1    3    3    0    0 -0.12401229365E+02  0.16520534392E+02  0.47604267770E+01  0.21198589799E+02  0.00000000000E+00 0.  1.
</event>
<event>
 7    1  0.2604986E-013  0.7246152E+02  0.7816164E-02  0.1226708E+00
        -11   -1    0    0    0    0  0.00000000000E+00  0.00000000000E+00  0.45593999997E+02  0.45594000000E+02  0.51100000000E-03 0. -1.
         11   -1    0    0    0    0 -0.00000000000E+00 -0.00000000000E+00 -0.45593999997E+02  0.45594000000E+02  0.51100000000E-03 0.  1.
    9900012    2    1    2    0    0  0.68814005435E+01 -0.43756148614E-01  0.17416243604E+02  0.72461517968E+02  0.69999931835E+02 0.  0.
        -12    1    1    2    0    0 -0.68814005435E+01  0.43756148614E-01 -0.17416243604E+02  0.18726482032E+02  0.00000000000E+00 0.  1.
         11    1    3    3    0    0  0.27163746923E+01  0.94290700007E+00 -0.25172771681E+01  0.38215768580E+01  0.51100000000E-03 0. -1.
        -11    1    3    3    0    0 -0.65815970358E+01  0.28096145531E+02 -0.44471098788E+01  0.29197390291E+02  0.51100000000E-03 0.  1.
         12    1    3    3    0    0  0.10746622887E+02 -0.29082808680E+02  0.24380630650E+02  0.39442550819E+02  0.00000000000E+00 0. -1.
</event>
<event>
 7    1  0.2604986E-013  0.7246155E+02  0.7816164E-02  0.1226708E+00
        -11   -1    0    0    0    0  0.00000000000E+00  0.00000000000E+00  0.45593999997E+02  0.45594000000E+02  0.51100000000E-03 0. -1.
         11   -1    0    0    0    0 -0.00000000000E+00 -0.00000000000E+00 -0.45593999997E+02  0.45594000000E+02  0.51100000000E-03 0.  1.
    9900012    2    1    2    0    0  0.36047598291E+01 -0.64414614295E+01  0.17210264827E+02  0.72461549878E+02  0.69999973404E+02 0.  0.
        -12    1    1    2    0    0 -0.36047598291E+01  0.64414614295E+01 -0.17210264827E+02  0.18726450122E+02  0.00000000000E+00 0.  1.
         11    1    3    3    0    0  0.87632824145E+01 -0.21767062980E+02 -0.10298977405E+02  0.25625555317E+02  0.51100000000E-03 0. -1.
        -11    1    3    3    0    0 -0.19199509653E+02  0.35100693254E+01  0.15214132859E+02  0.24746951257E+02  0.51100000000E-03 0.  1.
        -12    1    3    3    0    0  0.14040987068E+02  0.11815532225E+02  0.12295109372E+02  0.22089043304E+02  0.00000000000E+00 0.  1.
</event>
<event>
 7    1  0.2604986E-013  0.7246160E+02  0.7816164E-02  0.1226708E+00
        -11   -1    0    0    0    0  0.00000000000E+00  0.00000000000E+00  0.45593999997E+02  0.45594000000E+02  0.51100000000E-03 0. -1.
         11   -1    0    0    0    0 -0.00000000000E+00 -0.00000000000E+00 -0.45593999997E+02  0.45594000000E+02  0.51100000000E-03 0.  1.
    9900012    2    1    2    0    0 -0.16189366045E+02 -0.83513812766E+01  0.43401390599E+01  0.72461602876E+02  0.70000042444E+02 0.  0.
        -12    1    1    2    0    0  0.16189366045E+02  0.83513812766E+01 -0.43401390599E+01  0.18726397124E+02  0.00000000000E+00 0.  1.
         11    1    3    3    0    0  0.11041516146E+02  0.66883709500E+01  0.12493451818E+02  0.17964846878E+02  0.51100000000E-03 0. -1.
        -11    1    3    3    0    0 -0.72815762566E-01 -0.19968766495E+02  0.91017579391E+01  0.21945362501E+02  0.51100000000E-03 0.  1.
         12    1    3    3    0    0 -0.27158066429E+02  0.49290142682E+01 -0.17255070697E+02  0.32551393497E+02  0.00000000000E+00 0. -1.
</event>
<event>
 7    1  0.2604986E-013  0.7246157E+02  0.7816164E-02  0.1226708E+00
        -11   -1    0    0    0    0  0.00000000000E+00  0.00000000000E+00  0.45593999997E+02  0.45594000000E+02  0.51100000000E-03 0.  1.
         11   -1    0    0    0    0 -0.00000000000E+00 -0.00000000000E+00 -0.45593999997E+02  0.45594000000E+02  0.51100000000E-03 0. -1.
    9900012    2    1    2    0    0  0.15472456899E+02 -0.29562683586E+01 -0.10126335979E+02  0.72461571471E+02  0.70000001533E+02 0.  0.
        -12    1    1    2    0    0 -0.15472456899E+02  0.29562683586E+01  0.10126335979E+02  0.18726428529E+02  0.00000000000E+00 0.  1.
         11    1    3    3    0    0 -0.99056142714E+01  0.15419833938E+02  0.52324529570E+01  0.19059670432E+02  0.51100000000E-03 0. -1.
        -11    1    3    3    0    0 -0.93969260685E+01  0.44693912790E+00 -0.96021549806E+01  0.13442594789E+02  0.51100000000E-03 0.  1.
        -12    1    3    3    0    0  0.34774997239E+02 -0.18823041425E+02 -0.57566339549E+01  0.39959306250E+02  0.00000000000E+00 0.  1.
</event>
<event>
 7    1  0.2604986E-013  0.7246154E+02  0.7816164E-02  0.1226708E+00
        -11   -1    0    0    0    0  0.00000000000E+00  0.00000000000E+00  0.45593999997E+02  0.45594000000E+02  0.51100000000E-03 0.  1.
         11   -1    0    0    0    0 -0.00000000000E+00 -0.00000000000E+00 -0.45593999997E+02  0.45594000000E+02  0.51100000000E-03 0. -1.
    9900012    2    1    2    0    0 -0.42840082886E+01  0.68335761084E+01 -0.16900585767E+02  0.72461540411E+02  0.69999961072E+02 0.  0.
        -12    1    1    2    0    0  0.42840082886E+01 -0.68335761084E+01  0.16900585767E+02  0.18726459589E+02  0.00000000000E+00 0.  1.
         11    1    3    3    0    0  0.18624251169E+02  0.16767949178E+02  0.19736443468E+01  0.25138061252E+02  0.51100000000E-03 0. -1.
        -11    1    3    3    0    0  0.70622878626E+01 -0.29147881560E+01 -0.14287512438E+02  0.16202003326E+02  0.51100000000E-03 0.  1.
        -12    1    3    3    0    0 -0.29970547320E+02 -0.70195849132E+01 -0.45867176765E+01  0.31121475834E+02  0.00000000000E+00 0.  1.
</event>
<event>
 7    1  0.2604986E-013  0.7246157E+02  0.7816164E-02  0.1226708E+00
        -11   -1    0    0    0    0  0.00000000000E+00  0.00000000000E+00  0.45593999997E+02  0.45594000000E+02  0.51100000000E-03 0. -1.
         11   -1    0    0    0    0 -0.00000000000E+00 -0.00000000000E+00 -0.45593999997E+02  0.45594000000E+02  0.51100000000E-03 0.  1.
    9900012    2    1    2    0    0  0.17285041082E+02 -0.16299200796E+01  0.70178273032E+01  0.72461569888E+02  0.69999999471E+02 0.  0.
        -12    1    1    2    0    0 -0.17285041082E+02  0.16299200796E+01 -0.70178273032E+01  0.18726430112E+02  0.00000000000E+00 0.  1.
         11    1    3    3    0    0  0.24245169044E+02  0.91003899027E+01  0.17605522389E+02  0.31314529171E+02  0.51100000000E-03 0. -1.
        -11    1    3    3    0    0 -0.10521891304E+02 -0.11859199418E+02  0.10962689827E+02  0.19275149181E+02  0.51100000000E-03 0.  1.
        -12    1    3    3    0    0  0.35617633420E+01  0.11288894354E+01 -0.21550384913E+02  0.21871891536E+02  0.00000000000E+00 0.  1.
</event>
<event>
 7    1  0.2604986E-013  0.7246161E+02  0.7816164E-02  0.1226708E+00
        -11   -1    0    0    0    0  0.00000000000E+00  0.00000000000E+00  0.45593999997E+02  0.45594000000E+02  0.51100000000E-03 0. -1.
         11   -1    0    0    0    0 -0.00000000000E+00 -0.00000000000E+00 -0.45593999997E+02  0.45594000000E+02  0.51100000000E-03 0.  1.
    9900012    2    1    2    0    0  0.20636928457E+01  0.18308744949E+02 -0.33479386745E+01  0.72461610515E+02  0.70000052395E+02 0.  0.
        -12    1    1    2    0    0 -0.20636928457E+01 -0.18308744949E+02  0.33479386745E+01  0.18726389485E+02  0.00000000000E+00 0.  1.
         11    1    3    3    0    0 -0.12413985846E+01  0.95521834702E+00 -0.83041705025E+01  0.84506071103E+01  0.51100000000E-03 0. -1.
        -11    1    3    3    0    0  0.13884197038E+02 -0.15438439574E+02  0.17689778101E+02  0.27277180818E+02  0.51100000000E-03 0.  1.
         12    1    3    3    0    0 -0.10579105608E+02  0.32791966176E+02 -0.12733546273E+02  0.36733822587E+02  0.00000000000E+00 0. -1.
</event>
<event>
 7    1  0.2604986E-013  0.7246158E+02  0.7816164E-02  0.1226708E+00
        -11   -1    0    0    0    0  0.00000000000E+00  0.00000000000E+00  0.45593999997E+02  0.45594000000E+02  0.51100000000E-03 0. -1.
         11   -1    0    0    0    0 -0.00000000000E+00 -0.00000000000E+00 -0.45593999997E+02  0.45594000000E+02  0.51100000000E-03 0.  1.
    9900012    2    1    2    0    0  0.27919891949E+01  0.93672294352E+01  0.15973057091E+02  0.72461581662E+02  0.70000014808E+02 0.  0.
        -12    1    1    2    0    0 -0.27919891949E+01 -0.93672294352E+01 -0.15973057091E+02  0.18726418338E+02  0.00000000000E+00 0.  1.
         11    1    3    3    0    0 -0.15850092549E+02 -0.25878851552E+01  0.17504938418E+02  0.23755956152E+02  0.51100000000E-03 0. -1.
        -11    1    3    3    0    0  0.81972490753E+01 -0.27783397530E+01  0.19289882276E+02  0.21142696675E+02  0.51100000000E-03 0.  1.
        -12    1    3    3    0    0  0.10444832669E+02  0.14733454343E+02 -0.20821763604E+02  0.27562928835E+02  0.00000000000E+00 0.  1.
</event>
<event>
 7    1  0.2604986E-013  0.7246157E+02  0.7816164E-02  0.1226708E+00
        -11   -1    0    0    0    0  0.00000000000E+00  0.00000000000E+00  0.45593999997E+02  0.45594000000E+02  0.51100000000E-03 0.  1.
         11   -1    0    0    0    0 -0.00000000000E+00 -0.00000000000E+00 -0.45593999997E+02  0.45594000000E+02  0.51100000000E-03 0. -1.
    9900012    2    1    2    0    0  0.64582916606E+01 -0.11196611277E+02 -0.13550110726E+02  0.72461571191E+02  0.70000001168E+02 0.  0.
        -12    1    1    2    0    0 -0.64582916606E+01  0.11196611277E+02  0.13550110726E+02  0.18726428809E+02  0.00000000000E+00 0.  1.
         11    1    3    3    0    0  0.19286582258E+01  0.10188967353E+02 -0.15602646155E+02  0.18734389384E+02  0.51100000000E-03 0. -1.
        -11    1    3    3    0    0  0.82453115841E+01  0.12733583216E+02 -0.90387181158E+01  0.17658644627E+02  0.51100000000E-03 0.  1.
        -12    1    3    3    0    0 -0.37156781493E+01 -0.34119161845E+02  0.11091253546E+02  0.36068537181E+02  0.00000000000E+00 0.  1.
</event>
<event>
 7    1  0.2604986E-013  0.7246178E+02  0.7816164E-02  0.1226707E+00
        -11   -1    0    0    0    0  0.00000000000E+00  0.00000000000E+00  0.45593999997E+02  0.45594000000E+02  0.51100000000E-03 0. -1.
         11   -1    0    0    0    0 -0.00000000000E+00 -0.00000000000E+00 -0.45593999997E+02  0.45594000000E+02  0.51100000000E-03 0.  1.
    9900012    2    1    2    0    0  0.13639985565E+01  0.18645597479E+02  0.10735259829E+01  0.72461781603E+02  0.70000275268E+02 0.  0.
        -12    1    1    2    0    0 -0.13639985565E+01 -0.18645597479E+02 -0.10735259829E+01  0.18726218397E+02  0.00000000000E+00 0.  1.
         11    1    3    3    0    0 -0.15133269664E+02 -0.18387392176E+02  0.61905257434E+01  0.24605581704E+02  0.51100000000E-03 0. -1.
        -11    1    3    3    0    0 -0.96230946407E+00  0.17550558424E+02  0.71329660318E+01  0.18969115561E+02  0.51100000000E-03 0.  1.
        -12    1    3    3    0    0  0.17459577684E+02  0.19482431232E+02 -0.12249965792E+02  0.28887084338E+02  0.00000000000E+00 0.  1.
</event>
<event>
 7    1  0.2604986E-013  0.7246176E+02  0.7816164E-02  0.1226708E+00
        -11   -1    0    0    0    0  0.00000000000E+00  0.00000000000E+00  0.45593999997E+02  0.45594000000E+02  0.51100000000E-03 0.  1.
         11   -1    0    0    0    0 -0.00000000000E+00 -0.00000000000E+00 -0.45593999997E+02  0.45594000000E+02  0.51100000000E-03 0. -1.
    9900012    2    1    2    0    0 -0.14756336584E+02 -0.79164472827E+00 -0.11501995243E+02  0.72461759978E+02  0.70000247098E+02 0.  0.
        -12    1    1    2    0    0  0.14756336584E+02  0.79164472827E+00  0.11501995243E+02  0.18726240022E+02  0.00000000000E+00 0.  1.
         11    1    3    3    0    0 -0.29515708552E+02 -0.13051592957E+02 -0.20212695170E+02  0.38079839500E+02  0.51100000000E-03 0. -1.
        -11    1    3    3    0    0  0.59529492816E+01 -0.48846786290E+00 -0.90305549375E+01  0.10827147766E+02  0.51100000000E-03 0.  1.
        -12    1    3    3    0    0  0.88064226864E+01  0.12748416092E+02  0.17741254864E+02  0.23554772712E+02  0.00000000000E+00 0.  1.
</event>
<event>
 7    1  0.3000449E-013  0.7246158E+02  0.7816164E-02  0.1226708E+00
        -11   -1    0    0    0    0  0.00000000000E+00  0.00000000000E+00  0.45593999997E+02  0.45594000000E+02  0.51100000000E-03 0.  1.
         11   -1    0    0    0    0 -0.00000000000E+00 -0.00000000000E+00 -0.45593999997E+02  0.45594000000E+02  0.51100000000E-03 0. -1.
    9900012    2    1    2    0    0  0.48858618430E-01  0.18165808112E+02 -0.45475064716E+01  0.72461580518E+02  0.70000013318E+02 0.  0.
        -12    1    1    2    0    0 -0.48858618430E-01 -0.18165808112E+02  0.45475064716E+01  0.18726419482E+02  0.00000000000E+00 0.  1.
         11    1    3    3    0    0 -0.38635858804E+01 -0.84264711216E+01  0.69865012312E+01  0.11607924497E+02  0.51100000000E-03 0. -1.
        -11    1    3    3    0    0  0.24518139621E+02  0.53980148808E+01  0.68754963604E+01  0.26029794190E+02  0.51100000000E-03 0.  1.
         12    1    3    3    0    0 -0.20605695122E+02  0.21194264352E+02 -0.18409504063E+02  0.34823861830E+02  0.00000000000E+00 0. -1.
</event>
<event>
 7    1  0.2604986E-013  0.7246154E+02  0.7816164E-02  0.1226708E+00
        -11   -1    0    0    0    0  0.00000000000E+00  0.00000000000E+00  0.45593999997E+02  0.45594000000E+02  0.51100000000E-03 0. -1.
         11   -1    0    0    0    0 -0.00000000000E+00 -0.00000000000E+00 -0.45593999997E+02  0.45594000000E+02  0.51100000000E-03 0.  1.
    9900012    2    1    2    0    0 -0.17122063181E+02 -0.54597931071E+01  0.52636458686E+01  0.72461538611E+02  0.69999958726E+02 0.  0.
        -12    1    1    2    0    0  0.17122063181E+02  0.54597931071E+01 -0.52636458686E+01  0.18726461389E+02  0.00000000000E+00 0.  1.
         11    1    3    3    0    0 -0.96109602280E+01  0.17475820981E+02 -0.24442641436E+01  0.20093513951E+02  0.51100000000E-03 0. -1.
        -11    1    3    3    0    0 -0.21339053381E+02 -0.13883897562E+01  0.14552626039E+02  0.25866227986E+02  0.51100000000E-03 0.  1.
        -12    1    3    3    0    0  0.13827950429E+02 -0.21547224331E+02 -0.68447160264E+01  0.26501796674E+02  0.00000000000E+00 0.  1.
</event>
<event>
 7    1  0.2604986E-013  0.7246160E+02  0.7816164E-02  0.1226708E+00
        -11   -1    0    0    0    0  0.00000000000E+00  0.00000000000E+00  0.45593999997E+02  0.45594000000E+02  0.51100000000E-03 0. -1.
         11   -1    0    0    0    0 -0.00000000000E+00 -0.00000000000E+00 -0.45593999997E+02  0.45594000000E+02  0.51100000000E-03 0.  1.
    9900012    2    1    2    0    0 -0.18044958208E+02  0.22723372318E+01  0.44602564204E+01  0.72461603642E+02  0.70000043441E+02 0.  0.
        -12    1    1    2    0    0  0.18044958208E+02 -0.22723372318E+01 -0.44602564204E+01  0.18726396358E+02  0.00000000000E+00 0.  1.
         11    1    3    3    0    0  0.23072737369E+02  0.27873794490E+00  0.14792518198E+02  0.27408894532E+02  0.51100000000E-03 0. -1.
        -11    1    3    3    0    0 -0.58848991313E+01 -0.52446926833E+01 -0.17777425044E+01  0.80807925231E+01  0.51100000000E-03 0.  1.
        -12    1    3    3    0    0 -0.35232796446E+02  0.72382919702E+01 -0.85545192735E+01  0.36971916587E+02  0.00000000000E+00 0.  1.
</event>
<event>
 7    1  0.2604986E-013  0.7246158E+02  0.7816164E-02  0.1226708E+00
        -11   -1    0    0    0    0  0.00000000000E+00  0.00000000000E+00  0.45593999997E+02  0.45594000000E+02  0.51100000000E-03 0. -1.
         11   -1    0    0    0    0 -0.00000000000E+00 -0.00000000000E+00 -0.45593999997E+02  0.45594000000E+02  0.51100000000E-03 0.  1.
    9900012    2    1    2    0    0 -0.15580183565E+02 -0.10063423297E+02 -0.25815190445E+01  0.72461578854E+02  0.70000011150E+02 0.  0.
        -12    1    1    2    0    0  0.15580183565E+02  0.10063423297E+02  0.25815190445E+01  0.18726421146E+02  0.00000000000E+00 0.  1.
         11    1    3    3    0    0  0.15095531683E+02 -0.18551303271E+01 -0.18563989260E+02  0.23998714191E+02  0.51100000000E-03 0. -1.
        -11    1    3    3    0    0  0.59783845621E+00  0.28961653203E+01 -0.73316546437E+01  0.79055894441E+01  0.51100000000E-03 0.  1.
         12    1    3    3    0    0 -0.31273553704E+02 -0.11104458290E+02  0.23314124859E+02  0.40557275219E+02  0.00000000000E+00 0. -1.
</event>
<event>
 7    1  0.2604986E-013  0.7246159E+02  0.7816164E-02  0.1226708E+00
        -11   -1    0    0    0    0  0.00000000000E+00  0.00000000000E+00  0.45593999997E+02  0.45594000000E+02  0.51100000000E-03 0. -1.
         11   -1    0    0    0    0 -0.00000000000E+00 -0.00000000000E+00 -0.45593999997E+02  0.45594000000E+02  0.51100000000E-03 0.  1.
    9900012    2    1    2    0    0 -0.17999011358E+02 -0.13524314758E+01  0.49884814429E+01  0.72461590097E+02  0.70000025797E+02 0.  0.
        -12    1    1    2    0    0  0.17999011358E+02  0.13524314758E+01 -0.49884814429E+01  0.18726409903E+02  0.00000000000E+00 0.  1.
         11    1    3    3    0    0 -0.14428537188E+02  0.12043132432E+01 -0.10644444149E+02  0.17970454843E+02  0.51100000000E-03 0. -1.
        -11    1    3    3    0    0  0.17588051868E+02  0.10134511208E+02 -0.65323205711E+01  0.21324143552E+02  0.51100000000E-03 0.  1.
         12    1    3    3    0    0 -0.21158526038E+02 -0.12691255927E+02  0.22165246163E+02  0.33166991702E+02  0.00000000000E+00 0. -1.
</event>
<event>
 7    1  0.2604986E-013  0.7246155E+02  0.7816164E-02  0.1226708E+00
        -11   -1    0    0    0    0  0.00000000000E+00  0.00000000000E+00  0.45593999997E+02  0.45594000000E+02  0.51100000000E-03 0.  1.
         11   -1    0    0    0    0 -0.00000000000E+00 -0.00000000000E+00 -0.45593999997E+02  0.45594000000E+02  0.51100000000E-03 0. -1.
    9900012    2    1    2    0    0  0.13084973483E+02 -0.13149745858E+02 -0.25587933896E+01  0.72461554240E+02  0.69999979086E+02 0.  0.
        -12    1    1    2    0    0 -0.13084973483E+02  0.13149745858E+02  0.25587933896E+01  0.18726445760E+02  0.00000000000E+00 0.  1.
         11    1    3    3    0    0  0.77815551674E+01 -0.16398705500E+01 -0.24133879867E+00  0.79561310272E+01  0.51100000000E-03 0. -1.
        -11    1    3    3    0    0  0.14454179992E+02 -0.23402120771E+02  0.22478433096E+02  0.35522704438E+02  0.51100000000E-03 0.  1.
         12    1    3    3    0    0 -0.91507616766E+01  0.11892245463E+02 -0.24795887687E+02  0.28982718775E+02  0.00000000000E+00 0. -1.
</event>
<event>
 7    1  0.2604986E-013  0.7246155E+02  0.7816164E-02  0.1226708E+00
        -11   -1    0    0    0    0  0.00000000000E+00  0.00000000000E+00  0.45593999997E+02  0.45594000000E+02  0.51100000000E-03 0.  1.
         11   -1    0    0    0    0 -0.00000000000E+00 -0.00000000000E+00 -0.45593999997E+02  0.45594000000E+02  0.51100000000E-03 0. -1.
    9900012    2    1    2    0    0 -0.12859914487E+02 -0.13010615901E+02  0.40033136173E+01  0.72461546875E+02  0.69999969492E+02 0.  0.
        -12    1    1    2    0    0  0.12859914487E+02  0.13010615901E+02 -0.40033136173E+01  0.18726453125E+02  0.00000000000E+00 0.  1.
         11    1    3    3    0    0  0.54157876940E+01 -0.57079465717E+01  0.32800266082E+01  0.85246692149E+01  0.51100000000E-03 0. -1.
        -11    1    3    3    0    0  0.11299172978E+02 -0.18163512955E+02  0.18042593952E+02  0.27984276114E+02  0.51100000000E-03 0.  1.
         12    1    3    3    0    0 -0.29574875159E+02  0.10860843626E+02 -0.17319306943E+02  0.35952601546E+02  0.00000000000E+00 0. -1.
</event>
<event>
 7    1  0.2604986E-013  0.7246157E+02  0.7816164E-02  0.1226708E+00
        -11   -1    0    0    0    0  0.00000000000E+00  0.00000000000E+00  0.45593999997E+02  0.45594000000E+02  0.51100000000E-03 0. -1.
         11   -1    0    0    0    0 -0.00000000000E+00 -0.00000000000E+00 -0.45593999997E+02  0.45594000000E+02  0.51100000000E-03 0.  1.
    9900012    2    1    2    0    0  0.12628782819E+02 -0.13728553823E+01 -0.13758935605E+02  0.72461569577E+02  0.69999999066E+02 0.  0.
        -12    1    1    2    0    0 -0.12628782819E+02  0.13728553823E+01  0.13758935605E+02  0.18726430423E+02  0.00000000000E+00 0.  1.
         11    1    3    3    0    0  0.33958201235E+02 -0.91265134507E+01  0.26454174515E+01  0.35262599346E+02  0.51100000000E-03 0. -1.
        -11    1    3    3    0    0 -0.50239973046E+01  0.11799157427E+02 -0.15852324514E+02  0.20390116666E+02  0.51100000000E-03 0.  1.
        -12    1    3    3    0    0 -0.16305421111E+02 -0.40454993584E+01 -0.55202854273E+00  0.16808853565E+02  0.00000000000E+00 0.  1.
</event>
<event>
 7    1  0.2604986E-013  0.7246148E+02  0.7816164E-02  0.1226708E+00
        -11   -1    0    0    0    0  0.00000000000E+00  0.00000000000E+00  0.45593999997E+02  0.45594000000E+02  0.51100000000E-03 0.  1.
         11   -1    0    0    0    0 -0.00000000000E+00 -0.00000000000E+00 -0.45593999997E+02  0.45594000000E+02  0.51100000000E-03 0. -1.
    9900012    2    1    2    0    0 -0.17303345493E+02 -0.32649316452E+01 -0.63731576325E+01  0.72461476508E+02  0.69999877825E+02 0.  0.
        -12    1    1    2    0    0  0.17303345493E+02  0.32649316452E+01  0.63731576325E+01  0.18726523492E+02  0.00000000000E+00 0.  1.
         11    1    3    3    0    0 -0.34440636163E+01  0.26151738861E+01 -0.13041290392E+02  0.13739576558E+02  0.51100000000E-03 0. -1.
        -11    1    3    3    0    0  0.16053138364E+02  0.13456445051E+02 -0.44386680441E+01  0.21412168013E+02  0.51100000000E-03 0.  1.
        -12    1    3    3    0    0 -0.29912420241E+02 -0.19336550582E+02  0.11106800803E+02  0.37309731937E+02  0.00000000000E+00 0.  1.
</event>
<event>
 7    1  0.2604986E-013  0.7246157E+02  0.7816164E-02  0.1226708E+00
        -11   -1    0    0    0    0  0.00000000000E+00  0.00000000000E+00  0.45593999997E+02  0.45594000000E+02  0.51100000000E-03 0. -1.
         11   -1    0    0    0    0 -0.00000000000E+00 -0.00000000000E+00 -0.45593999997E+02  0.45594000000E+02  0.51100000000E-03 0.  1.
    9900012    2    1    2    0    0  0.14768378854E+02 -0.99469492331E+00 -0.11471044116E+02  0.72461567209E+02  0.69999995981E+02 0.  0.
        -12    1    1    2    0    0 -0.14768378854E+02  0.99469492331E+00  0.11471044116E+02  0.18726432791E+02  0.00000000000E+00 0.  1.
         11    1    3    3    0    0  0.15729546607E+02 -0.25117320863E+02 -0.53467903163E+01  0.30114558120E+02  0.51100000000E-03 0. -1.
        -11    1    3    3    0    0  0.13502055039E+02  0.81443804858E+01  0.68491905373E+01  0.17191504735E+02  0.51100000000E-03 0.  1.
        -12    1    3    3    0    0 -0.14463222793E+02  0.15978245454E+02 -0.12973444337E+02  0.25155504354E+02  0.00000000000E+00 0.  1.
</event>
<event>
 7    1  0.2604986E-013  0.7246159E+02  0.7816164E-02  0.1226708E+00
        -11   -1    0    0    0    0  0.00000000000E+00  0.00000000000E+00  0.45593999997E+02  0.45594000000E+02  0.51100000000E-03 0.  1.
         11   -1    0    0    0    0 -0.00000000000E+00 -0.00000000000E+00 -0.45593999997E+02  0.45594000000E+02  0.51100000000E-03 0. -1.
    9900012    2    1    2    0    0  0.55148371542E+01 -0.18685722310E+01 -0.17798134727E+02  0.72461585747E+02  0.70000020130E+02 0.  0.
        -12    1    1    2    0    0 -0.55148371542E+01  0.18685722310E+01  0.17798134727E+02  0.18726414253E+02  0.00000000000E+00 0.  1.
         11    1    3    3    0    0  0.11192520194E+02  0.22635522964E+01 -0.51214962447E+01  0.12515027021E+02  0.51100000000E-03 0. -1.
        -11    1    3    3    0    0  0.13787705464E+02  0.20419409473E+02  0.31593511389E+01  0.24840181261E+02  0.51100000000E-03 0.  1.
        -12    1    3    3    0    0 -0.19465388504E+02 -0.24551534001E+02 -0.15835989621E+02  0.35106377465E+02  0.00000000000E+00 0.  1.
</event>
<event>
 7    1  0.2604986E-013  0.7246160E+02  0.7816164E-02  0.1226708E+00
        -11   -1    0    0    0    0  0.00000000000E+00  0.00000000000E+00  0.45593999997E+02  0.45594000000E+02  0.51100000000E-03 0. -1.
         11   -1    0    0    0    0 -0.00000000000E+00 -0.00000000000E+00 -0.45593999997E+02  0.45594000000E+02  0.51100000000E-03 0.  1.
    9900012    2    1    2    0    0  0.79131294805E+01  0.13028662536E+02  0.10877238661E+02  0.72461601881E+02  0.70000041147E+02 0.  0.
        -12    1    1    2    0    0 -0.79131294805E+01 -0.13028662536E+02 -0.10877238661E+02  0.18726398119E+02  0.00000000000E+00 0.  1.
         11    1    3    3    0    0  0.42503268712E+00  0.70205882958E+01  0.24047564418E+02  0.25055032777E+02  0.51100000000E-03 0. -1.
        -11    1    3    3    0    0 -0.18572138595E+02  0.32377129581E+01 -0.89239166560E+01  0.20857694167E+02  0.51100000000E-03 0.  1.
         12    1    3    3    0    0  0.26060235389E+02  0.27703612817E+01 -0.42464091007E+01  0.26548874937E+02  0.00000000000E+00 0. -1.
</event>
<event>
 7    1  0.2604986E-013  0.7246158E+02  0.7816164E-02  0.1226708E+00
        -11   -1    0    0    0    0  0.00000000000E+00  0.00000000000E+00  0.45593999997E+02  0.45594000000E+02  0.51100000000E-03 0. -1.
         11   -1    0    0    0    0 -0.00000000000E+00 -0.00000000000E+00 -0.45593999997E+02  0.45594000000E+02  0.51100000000E-03 0.  1.
    9900012    2    1    2    0    0 -0.89361881889E+01 -0.55471230131E+01  0.15493639006E+02  0.72461577952E+02  0.70000009975E+02 0.  0.
        -12    1    1    2    0    0  0.89361881889E+01  0.55471230131E+01 -0.15493639006E+02  0.18726422048E+02  0.00000000000E+00 0.  1.
         11    1    3    3    0    0 -0.92785865392E+01  0.15375391396E+02  0.44654149382E+00  0.17963691945E+02  0.51100000000E-03 0. -1.
        -11    1    3    3    0    0  0.77512452800E+00 -0.11516399679E+02 -0.17306191900E+02  0.20802224831E+02  0.51100000000E-03 0.  1.
         12    1    3    3    0    0 -0.43272617767E+00 -0.94061147301E+01  0.32353289412E+02  0.33695661175E+02  0.00000000000E+00 0. -1.
</event>
<event>
 7    1  0.2604986E-013  0.7246157E+02  0.7816164E-02  0.1226708E+00
        -11   -1    0    0    0    0  0.00000000000E+00  0.00000000000E+00  0.45593999997E+02  0.45594000000E+02  0.51100000000E-03 0.  1.
         11   -1    0    0    0    0 -0.00000000000E+00 -0.00000000000E+00 -0.45593999997E+02  0.45594000000E+02  0.51100000000E-03 0. -1.
    9900012    2    1    2    0    0 -0.16818915105E+02  0.16878009433E+01 -0.80594515252E+01  0.72461565843E+02  0.69999994202E+02 0.  0.
        -12    1    1    2    0    0  0.16818915105E+02 -0.16878009433E+01  0.80594515252E+01  0.18726434157E+02  0.00000000000E+00 0.  1.
         11    1    3    3    0    0  0.19504622808E+02  0.13323659541E+02 -0.11841288599E+02  0.26422837289E+02  0.51100000000E-03 0. -1.
        -11    1    3    3    0    0 -0.19667874188E+02  0.56518998748E+01 -0.39033181240E+01  0.20832790018E+02  0.51100000000E-03 0.  1.
        -12    1    3    3    0    0 -0.16655663725E+02 -0.17287758472E+02  0.76851551980E+01  0.25205938537E+02  0.00000000000E+00 0.  1.
</event>
<event>
 7    1  0.2604986E-013  0.7246150E+02  0.7816164E-02  0.1226708E+00
        -11   -1    0    0    0    0  0.00000000000E+00  0.00000000000E+00  0.45593999997E+02  0.45594000000E+02  0.51100000000E-03 0. -1.
         11   -1    0    0    0    0 -0.00000000000E+00 -0.00000000000E+00 -0.45593999997E+02  0.45594000000E+02  0.51100000000E-03 0.  1.
    9900012    2    1    2    0    0  0.12755145320E+02  0.91921936681E+01  0.10173082700E+02  0.72461500910E+02  0.69999909614E+02 0.  0.
        -12    1    1    2    0    0 -0.12755145320E+02 -0.91921936681E+01 -0.10173082700E+02  0.18726499090E+02  0.00000000000E+00 0.  1.
         11    1    3    3    0    0  0.20095382789E+02  0.13790078090E+02 -0.10808689336E+02  0.26661178305E+02  0.51100000000E-03 0. -1.
        -11    1    3    3    0    0  0.67667796637E+01  0.14796308140E+02  0.51581503001E+01  0.17068290962E+02  0.51100000000E-03 0.  1.
         12    1    3    3    0    0 -0.14107017133E+02 -0.19394192562E+02  0.15823621735E+02  0.28732031643E+02  0.00000000000E+00 0. -1.
</event>
<event>
 7    1  0.2604986E-013  0.7246159E+02  0.7816164E-02  0.1226708E+00
        -11   -1    0    0    0    0  0.00000000000E+00  0.00000000000E+00  0.45593999997E+02  0.45594000000E+02  0.51100000000E-03 0. -1.
         11   -1    0    0    0    0 -0.00000000000E+00 -0.00000000000E+00 -0.45593999997E+02  0.45594000000E+02  0.51100000000E-03 0.  1.
    9900012    2    1    2    0    0 -0.96025595908E+01 -0.72102184201E+01  0.14369483809E+02  0.72461589097E+02  0.70000024494E+02 0.  0.
        -12    1    1    2    0    0  0.96025595908E+01  0.72102184201E+01 -0.14369483809E+02  0.18726410903E+02  0.00000000000E+00 0.  1.
         11    1    3    3    0    0 -0.24221845643E+02 -0.29816795349E+02  0.93036404202E+01  0.39525900579E+02  0.51100000000E-03 0. -1.
        -11    1    3    3    0    0 -0.32148946044E+01  0.60869761025E+01 -0.27319178424E+01  0.74060921374E+01  0.51100000000E-03 0.  1.
        -12    1    3    3    0    0  0.17834180657E+02  0.16519600826E+02  0.77977612311E+01  0.25529596381E+02  0.00000000000E+00 0.  1.
</event>
<event>
 7    1  0.2604986E-013  0.7246156E+02  0.7816164E-02  0.1226708E+00
        -11   -1    0    0    0    0  0.00000000000E+00  0.00000000000E+00  0.45593999997E+02  0.45594000000E+02  0.51100000000E-03 0.  1.
         11   -1    0    0    0    0 -0.00000000000E+00 -0.00000000000E+00 -0.45593999997E+02  0.45594000000E+02  0.51100000000E-03 0. -1.
    9900012    2    1    2    0    0  0.95307314089E+01 -0.37935309975E+01 -0.15666964766E+02  0.72461561374E+02  0.69999988380E+02 0.  0.
        -12    1    1    2    0    0 -0.95307314089E+01  0.37935309975E+01  0.15666964766E+02  0.18726438626E+02  0.00000000000E+00 0.  1.
         11    1    3    3    0    0 -0.11049125644E+02  0.31498912461E+01 -0.12792512531E+02  0.17194573838E+02  0.51100000000E-03 0. -1.
        -11    1    3    3    0    0  0.17614415698E+02  0.18788797357E+02 -0.11164573370E+02  0.28070166464E+02  0.51100000000E-03 0.  1.
         12    1    3    3    0    0  0.29654413550E+01 -0.25732219601E+02  0.82901211354E+01  0.27196821072E+02  0.00000000000E+00 0. -1.
</event>
<event>
 7    1  0.2604986E-013  0.7246144E+02  0.7816164E-02  0.1226708E+00
        -11   -1    0    0    0    0  0.00000000000E+00  0.00000000000E+00  0.45593999997E+02  0.45594000000E+02  0.51100000000E-03 0.  1.
         11   -1    0    0    0    0 -0.00000000000E+00 -0.00000000000E+00 -0.45593999997E+02  0.45594000000E+02  0.51100000000E-03 0. -1.
    9900012    2    1    2    0    0 -0.18980800250E+01  0.10557673428E+02 -0.15349815312E+02  0.72461441157E+02  0.69999831775E+02 0.  0.
        -12    1    1    2    0    0  0.18980800250E+01 -0.10557673428E+02  0.15349815312E+02  0.18726558843E+02  0.00000000000E+00 0.  1.
         11    1    3    3    0    0 -0.59620181987E+01  0.16071690390E+02 -0.22459640343E+01  0.17288413684E+02  0.51100000000E-03 0. -1.
        -11    1    3    3    0    0 -0.20450493835E+02  0.49785949760E+01  0.65541670658E+01  0.22044641349E+02  0.51100000000E-03 0.  1.
         12    1    3    3    0    0  0.24514432009E+02 -0.10492611938E+02 -0.19658018343E+02  0.33128386124E+02  0.00000000000E+00 0. -1.
</event>
<event>
 7    1  0.2604986E-013  0.7246156E+02  0.7816164E-02  0.1226708E+00
        -11   -1    0    0    0    0  0.00000000000E+00  0.00000000000E+00  0.45593999997E+02  0.45594000000E+02  0.51100000000E-03 0.  1.
         11   -1    0    0    0    0 -0.00000000000E+00 -0.00000000000E+00 -0.45593999997E+02  0.45594000000E+02  0.51100000000E-03 0. -1.
    9900012    2    1    2    0    0  0.83569020952E+01  0.16495840495E+01 -0.16676947263E+02  0.72461561199E+02  0.69999988152E+02 0.  0.
        -12    1    1    2    0    0 -0.83569020952E+01 -0.16495840495E+01  0.16676947263E+02  0.18726438801E+02  0.00000000000E+00 0.  1.
         11    1    3    3    0    0  0.12943588504E+02  0.88735619767E+01  0.10168408125E+02  0.18699548378E+02  0.51100000000E-03 0. -1.
        -11    1    3    3    0    0 -0.19600906257E+02 -0.10227587951E+01  0.29286470978E+01  0.19844861696E+02  0.51100000000E-03 0.  1.
         12    1    3    3    0    0  0.15014219849E+02 -0.62012191321E+01 -0.29774002485E+02  0.33917151124E+02  0.00000000000E+00 0. -1.
</event>
<event>
 7    1  0.2604986E-013  0.7246153E+02  0.7816164E-02  0.1226708E+00
        -11   -1    0    0    0    0  0.00000000000E+00  0.00000000000E+00  0.45593999997E+02  0.45594000000E+02  0.51100000000E-03 0. -1.
         11   -1    0    0    0    0 -0.00000000000E+00 -0.00000000000E+00 -0.45593999997E+02  0.45594000000E+02  0.51100000000E-03 0.  1.
    9900012    2    1    2    0    0  0.41338518472E+01 -0.15224279673E+02  0.10090264066E+02  0.72461525383E+02  0.69999941495E+02 0.  0.
        -12    1    1    2    0    0 -0.41338518472E+01  0.15224279673E+02 -0.10090264066E+02  0.18726474617E+02  0.00000000000E+00 0.  1.
         11    1    3    3    0    0  0.17454580106E+01  0.33782753065E+00 -0.19802670904E+01  0.26612420254E+01  0.51100000000E-03 0. -1.
        -11    1    3    3    0    0  0.29979368435E+02 -0.79141475372E+01 -0.11135690428E+02  0.32945407336E+02  0.51100000000E-03 0.  1.
         12    1    3    3    0    0 -0.27590974598E+02 -0.76479596661E+01  0.23206221585E+02  0.36854876022E+02  0.00000000000E+00 0. -1.
</event>
<event>
 7    1  0.2604986E-013  0.7246126E+02  0.7816164E-02  0.1226709E+00
        -11   -1    0    0    0    0  0.00000000000E+00  0.00000000000E+00  0.45593999997E+02  0.45594000000E+02  0.51100000000E-03 0. -1.
         11   -1    0    0    0    0 -0.00000000000E+00 -0.00000000000E+00 -0.45593999997E+02  0.45594000000E+02  0.51100000000E-03 0.  1.
    9900012    2    1    2    0    0 -0.16385706597E+02 -0.81433605501E+01  0.39855891906E+01  0.72461264489E+02  0.69999601630E+02 0.  0.
        -12    1    1    2    0    0  0.16385706597E+02  0.81433605501E+01 -0.39855891906E+01  0.18726735511E+02  0.00000000000E+00 0.  1.
         11    1    3    3    0    0  0.17912103206E+01  0.11082703805E+01  0.22153985359E+01  0.30569083373E+01  0.51100000000E-03 0. -1.
        -11    1    3    3    0    0  0.22939662313E+02 -0.82176729170E+01  0.11793412130E+02  0.27071069892E+02  0.51100000000E-03 0.  1.
         12    1    3    3    0    0 -0.41116579230E+02 -0.10339580137E+01 -0.10023221475E+02  0.42333286259E+02  0.00000000000E+00 0. -1.
</event>
<event>
 7    1  0.2604986E-013  0.7246153E+02  0.7816164E-02  0.1226708E+00
        -11   -1    0    0    0    0  0.00000000000E+00  0.00000000000E+00  0.45593999997E+02  0.45594000000E+02  0.51100000000E-03 0.  1.
         11   -1    0    0    0    0 -0.00000000000E+00 -0.00000000000E+00 -0.45593999997E+02  0.45594000000E+02  0.51100000000E-03 0. -1.
    9900012    2    1    2    0    0 -0.68189882973E+01 -0.15162134154E+02 -0.86192585551E+01  0.72461533928E+02  0.69999952626E+02 0.  0.
        -12    1    1    2    0    0  0.68189882973E+01  0.15162134154E+02  0.86192585551E+01  0.18726466072E+02  0.00000000000E+00 0.  1.
         11    1    3    3    0    0  0.17612416137E+01 -0.35441359615E+01  0.63618657658E+01  0.74924100274E+01  0.51100000000E-03 0. -1.
        -11    1    3    3    0    0 -0.23299305740E+01  0.16385965694E+00  0.23822863267E+02  0.23937089233E+02  0.51100000000E-03 0.  1.
         12    1    3    3    0    0 -0.62502993370E+01 -0.11781857850E+02 -0.38803987588E+02  0.41032034667E+02  0.00000000000E+00 0. -1.
</event>
<event>
 7    1  0.2604986E-013  0.7246156E+02  0.7816164E-02  0.1226708E+00
        -11   -1    0    0    0    0  0.00000000000E+00  0.00000000000E+00  0.45593999997E+02  0.45594000000E+02  0.51100000000E-03 0. -1.
         11   -1    0    0    0    0 -0.00000000000E+00 -0.00000000000E+00 -0.45593999997E+02  0.45594000000E+02  0.51100000000E-03 0.  1.
    9900012    2    1    2    0    0 -0.32864149421E+01 -0.98754744257E+01  0.15567719790E+02  0.72461563666E+02  0.69999991366E+02 0.  0.
        -12    1    1    2    0    0  0.32864149421E+01  0.98754744257E+01 -0.15567719790E+02  0.18726436334E+02  0.00000000000E+00 0.  1.
         11    1    3    3    0    0 -0.27297515367E+01 -0.25452890731E+01  0.13243056442E+02  0.13758945603E+02  0.51100000000E-03 0. -1.
        -11    1    3    3    0    0  0.14704152669E+02  0.20891711054E+02  0.64649222206E+01  0.26352816093E+02  0.51100000000E-03 0.  1.
         12    1    3    3    0    0 -0.15260816074E+02 -0.28221896406E+02 -0.41402588724E+01  0.32349801971E+02  0.00000000000E+00 0. -1.
</event>
<event>
 7    1  0.2604986E-013  0.7246151E+02  0.7816164E-02  0.1226708E+00
        -11   -1    0    0    0    0  0.00000000000E+00  0.00000000000E+00  0.45593999997E+02  0.45594000000E+02  0.51100000000E-03 0. -1.
         11   -1    0    0    0    0 -0.00000000000E+00 -0.00000000000E+00 -0.45593999997E+02  0.45594000000E+02  0.51100000000E-03 0.  1.
    9900012    2    1    2    0    0 -0.17056210287E+02  0.52266983560E+01 -0.56963764583E+01  0.72461511012E+02  0.69999922774E+02 0.  0.
        -12    1    1    2    0    0  0.17056210287E+02 -0.52266983560E+01  0.56963764583E+01  0.18726488988E+02  0.00000000000E+00 0.  1.
         11    1    3    3    0    0 -0.72550595989E+01 -0.38150065010E+01 -0.26978375999E+00  0.82013991443E+01  0.51100000000E-03 0. -1.
        -11    1    3    3    0    0 -0.32878405704E+02  0.40640785512E-01  0.10847749844E+02  0.34621740139E+02  0.51100000000E-03 0.  1.
        -12    1    3    3    0    0  0.23077255017E+02  0.90010640715E+01 -0.16274342543E+02  0.29638371728E+02  0.00000000000E+00 0.  1.
</event>
<event>
 7    1  0.2604986E-013  0.7246156E+02  0.7816164E-02  0.1226708E+00
        -11   -1    0    0    0    0  0.00000000000E+00  0.00000000000E+00  0.45593999997E+02  0.45594000000E+02  0.51100000000E-03 0. -1.
         11   -1    0    0    0    0 -0.00000000000E+00 -0.00000000000E+00 -0.45593999997E+02  0.45594000000E+02  0.51100000000E-03 0.  1.
    9900012    2    1    2    0    0 -0.59664860590E+01 -0.17659913208E+02  0.17911312576E+01  0.72461557690E+02  0.69999983580E+02 0.  0.
        -12    1    1    2    0    0  0.59664860590E+01  0.17659913208E+02 -0.17911312576E+01  0.18726442310E+02  0.00000000000E+00 0.  1.
         11    1    3    3    0    0 -0.24650761101E+02 -0.21414281755E+02 -0.33386407734E+01  0.32823436877E+02  0.51100000000E-03 0. -1.
        -11    1    3    3    0    0  0.19604731799E+01 -0.57785455858E+01  0.16284169185E+02  0.17389916920E+02  0.51100000000E-03 0.  1.
        -12    1    3    3    0    0  0.16723801862E+02  0.95329141321E+01 -0.11154397154E+02  0.22248203893E+02  0.00000000000E+00 0.  1.
</event>
<event>
 7    1  0.2604986E-013  0.7246159E+02  0.7816164E-02  0.1226708E+00
        -11   -1    0    0    0    0  0.00000000000E+00  0.00000000000E+00  0.45593999997E+02  0.45594000000E+02  0.51100000000E-03 0.  1.
         11   -1    0    0    0    0 -0.00000000000E+00 -0.00000000000E+00 -0.45593999997E+02  0.45594000000E+02  0.51100000000E-03 0. -1.
    9900012    2    1    2    0    0  0.76903437026E+01  0.16341252668E+02 -0.49497899726E+01  0.72461592288E+02  0.70000028651E+02 0.  0.
        -12    1    1    2    0    0 -0.76903437026E+01 -0.16341252668E+02  0.49497899726E+01  0.18726407712E+02  0.00000000000E+00 0.  1.
         11    1    3    3    0    0  0.18044699837E+02 -0.97279812870E+01 -0.12331320731E+02  0.23922923805E+02  0.51100000000E-03 0. -1.
        -11    1    3    3    0    0  0.94589502204E+01 -0.17070273518E+01 -0.66071206485E+01  0.11663606868E+02  0.51100000000E-03 0.  1.
        -12    1    3    3    0    0 -0.19813306355E+02  0.27776261307E+02  0.13988651407E+02  0.36875061615E+02  0.00000000000E+00 0.  1.
</event>
<event>
 7    1  0.2604986E-013  0.7246163E+02  0.7816164E-02  0.1226708E+00
        -11   -1    0    0    0    0  0.00000000000E+00  0.00000000000E+00  0.45593999997E+02  0.45594000000E+02  0.51100000000E-03 0. -1.
         11   -1    0    0    0    0 -0.00000000000E+00 -0.00000000000E+00 -0.45593999997E+02  0.45594000000E+02  0.51100000000E-03 0.  1.
    9900012    2    1    2    0    0 -0.13699923544E+02 -0.45924760450E+01  0.11912109769E+02  0.72461625538E+02  0.70000071965E+02 0.  0.
        -12    1    1    2    0    0  0.13699923544E+02  0.45924760450E+01 -0.11912109769E+02  0.18726374462E+02  0.00000000000E+00 0.  1.
         11    1    3    3    0    0  0.31753931752E+01  0.60021761163E+01 -0.26025353016E+01  0.72720306797E+01  0.51100000000E-03 0. -1.
        -11    1    3    3    0    0 -0.18224959390E+01  0.14754618440E+02 -0.16628441941E+02  0.22305276021E+02  0.51100000000E-03 0.  1.
         12    1    3    3    0    0 -0.15052820780E+02 -0.25349270601E+02  0.31143087012E+02  0.42884318837E+02  0.00000000000E+00 0. -1.
</event>
<event>
 7    1  0.2604986E-013  0.7246157E+02  0.7816164E-02  0.1226708E+00
        -11   -1    0    0    0    0  0.00000000000E+00  0.00000000000E+00  0.45593999997E+02  0.45594000000E+02  0.51100000000E-03 0.  1.
         11   -1    0    0    0    0 -0.00000000000E+00 -0.00000000000E+00 -0.45593999997E+02  0.45594000000E+02  0.51100000000E-03 0. -1.
    9900012    2    1    2    0    0 -0.16373900777E+02 -0.81624860390E+01 -0.39935581195E+01  0.72461566505E+02  0.69999995064E+02 0.  0.
        -12    1    1    2    0    0  0.16373900777E+02  0.81624860390E+01  0.39935581195E+01  0.18726433495E+02  0.00000000000E+00 0.  1.
         11    1    3    3    0    0 -0.22967135152E+02 -0.36041370379E+01  0.95295391405E+00  0.23267729204E+02  0.51100000000E-03 0. -1.
        -11    1    3    3    0    0 -0.20530082081E+02  0.20633603602E+01 -0.51766714847E+01  0.21272979438E+02  0.51100000000E-03 0.  1.
        -12    1    3    3    0    0  0.27123316456E+02 -0.66217093613E+01  0.23015945116E+00  0.27920857864E+02  0.00000000000E+00 0.  1.
</event>
<event>
 7    1  0.2604986E-013  0.7246159E+02  0.7816164E-02  0.1226708E+00
        -11   -1    0    0    0    0  0.00000000000E+00  0.00000000000E+00  0.45593999997E+02  0.45594000000E+02  0.51100000000E-03 0.  1.
         11   -1    0    0    0    0 -0.00000000000E+00 -0.00000000000E+00 -0.45593999997E+02  0.45594000000E+02  0.51100000000E-03 0. -1.
    9900012    2    1    2    0    0  0.98155750256E+01 -0.15708173163E+02  0.27542776111E+01  0.72461594516E+02  0.70000031553E+02 0.  0.
        -12    1    1    2    0    0 -0.98155750256E+01  0.15708173163E+02 -0.27542776111E+01  0.18726405484E+02  0.00000000000E+00 0.  1.
         11    1    3    3    0    0  0.17126658361E+02  0.16626951684E+01 -0.12498385874E+02  0.21267266669E+02  0.51100000000E-03 0. -1.
        -11    1    3    3    0    0 -0.52787832692E+01  0.13458583638E+02 -0.37328085335E+01  0.14930937216E+02  0.51100000000E-03 0.  1.
        -12    1    3    3    0    0 -0.20323000664E+01 -0.30829451969E+02  0.18985472019E+02  0.36263390631E+02  0.00000000000E+00 0.  1.
</event>
<event>
 7    1  0.2604986E-013  0.7246085E+02  0.7816164E-02  0.1226710E+00
        -11   -1    0    0    0    0  0.00000000000E+00  0.00000000000E+00  0.45593999997E+02  0.45594000000E+02  0.51100000000E-03 0.  1.
         11   -1    0    0    0    0 -0.00000000000E+00 -0.00000000000E+00 -0.45593999997E+02  0.45594000000E+02  0.51100000000E-03 0. -1.
    9900012    2    1    2    0    0  0.30646492517E+01  0.18308454923E+02  0.24727664943E+01  0.72460849367E+02  0.69999060852E+02 0.  0.
        -12    1    1    2    0    0 -0.30646492517E+01 -0.18308454923E+02 -0.24727664943E+01  0.18727150633E+02  0.00000000000E+00 0.  1.
         11    1    3    3    0    0 -0.25001911978E+02 -0.12296795760E+01  0.21163785270E+02  0.32779773056E+02  0.51100000000E-03 0.  1.
        -11    1    3    3    0    0  0.14369994154E+02  0.12779461790E+02 -0.70685224959E+01  0.20488420782E+02  0.51100000000E-03 0. -1.
        -12    1    3    3    0    0  0.13696567076E+02  0.67586727095E+01 -0.11622496280E+02  0.19192655528E+02  0.00000000000E+00 0.  1.
</event>
<event>
 7    1  0.2604986E-013  0.7246156E+02  0.7816164E-02  0.1226708E+00
        -11   -1    0    0    0    0  0.00000000000E+00  0.00000000000E+00  0.45593999997E+02  0.45594000000E+02  0.51100000000E-03 0.  1.
         11   -1    0    0    0    0 -0.00000000000E+00 -0.00000000000E+00 -0.45593999997E+02  0.45594000000E+02  0.51100000000E-03 0. -1.
    9900012    2    1    2    0    0 -0.69003145922E+01  0.15906821859E+02 -0.70737579425E+01  0.72461564820E+02  0.69999992869E+02 0.  0.
        -12    1    1    2    0    0  0.69003145922E+01 -0.15906821859E+02  0.70737579425E+01  0.18726435180E+02  0.00000000000E+00 0.  1.
         11    1    3    3    0    0 -0.10503829386E+01  0.19056525817E+01  0.11213089794E+02  0.11422267685E+02  0.51100000000E-03 0. -1.
        -11    1    3    3    0    0 -0.83945750507E+01  0.25763850284E+02  0.11100992661E+02  0.29282706673E+02  0.51100000000E-03 0.  1.
         12    1    3    3    0    0  0.25446433972E+01 -0.11762681008E+02 -0.29387840398E+02  0.31756590462E+02  0.00000000000E+00 0. -1.
</event>
<event>
 7    1  0.2604986E-013  0.7246161E+02  0.7816164E-02  0.1226708E+00
        -11   -1    0    0    0    0  0.00000000000E+00  0.00000000000E+00  0.45593999997E+02  0.45594000000E+02  0.51100000000E-03 0.  1.
         11   -1    0    0    0    0 -0.00000000000E+00 -0.00000000000E+00 -0.45593999997E+02  0.45594000000E+02  0.51100000000E-03 0. -1.
    9900012    2    1    2    0    0  0.13882331397E+02  0.96196259183E+01 -0.80883569138E+01  0.72461605649E+02  0.70000046056E+02 0.  0.
        -12    1    1    2    0    0 -0.13882331397E+02 -0.96196259183E+01  0.80883569138E+01  0.18726394351E+02  0.00000000000E+00 0.  1.
         11    1    3    3    0    0 -0.13519483872E+02 -0.17186212030E+02 -0.15180216265E+02  0.26619190338E+02  0.51100000000E-03 0. -1.
        -11    1    3    3    0    0  0.62241385950E+01 -0.43437279915E+01  0.18541318397E+01  0.78131734432E+01  0.51100000000E-03 0.  1.
        -12    1    3    3    0    0  0.21177676675E+02  0.31149565940E+02  0.52377275116E+01  0.38029241868E+02  0.00000000000E+00 0.  1.
</event>
<event>
 7    1  0.2604986E-013  0.7246154E+02  0.7816164E-02  0.1226708E+00
        -11   -1    0    0    0    0  0.00000000000E+00  0.00000000000E+00  0.45593999997E+02  0.45594000000E+02  0.51100000000E-03 0.  1.
         11   -1    0    0    0    0 -0.00000000000E+00 -0.00000000000E+00 -0.45593999997E+02  0.45594000000E+02  0.51100000000E-03 0. -1.
    9900012    2    1    2    0    0 -0.17804001685E+01 -0.35371403703E+01 -0.18302985119E+02  0.72461536078E+02  0.69999955427E+02 0.  0.
        -12    1    1    2    0    0  0.17804001685E+01  0.35371403703E+01  0.18302985119E+02  0.18726463922E+02  0.00000000000E+00 0.  1.
         11    1    3    3    0    0  0.36547808772E+01  0.12611775913E+02  0.27048652027E+01  0.13406364569E+02  0.51100000000E-03 0. -1.
        -11    1    3    3    0    0  0.88935648869E+01 -0.10957511684E+02  0.14610529768E+02  0.20313299562E+02  0.51100000000E-03 0.  1.
         12    1    3    3    0    0 -0.14328745933E+02 -0.51914045990E+01 -0.35618380090E+02  0.38741871947E+02  0.00000000000E+00 0. -1.
</event>
<event>
 7    1  0.2604986E-013  0.7246158E+02  0.7816164E-02  0.1226708E+00
        -11   -1    0    0    0    0  0.00000000000E+00  0.00000000000E+00  0.45593999997E+02  0.45594000000E+02  0.51100000000E-03 0. -1.
         11   -1    0    0    0    0 -0.00000000000E+00 -0.00000000000E+00 -0.45593999997E+02  0.45594000000E+02  0.51100000000E-03 0.  1.
    9900012    2    1    2    0    0 -0.70419092536E+01  0.77180582384E+00  0.17334775801E+02  0.72461584907E+02  0.70000019036E+02 0.  0.
        -12    1    1    2    0    0  0.70419092536E+01 -0.77180582384E+00 -0.17334775801E+02  0.18726415093E+02  0.00000000000E+00 0.  1.
         11    1    3    3    0    0  0.10072614199E+00  0.24797354958E+01  0.10371552383E+02  0.10664348690E+02  0.51100000000E-03 0. -1.
        -11    1    3    3    0    0 -0.19156516440E+02  0.24978324047E+02  0.81190487073E+01  0.32508579583E+02  0.51100000000E-03 0.  1.
         12    1    3    3    0    0  0.12013881044E+02 -0.26686253719E+02 -0.11558252892E+01  0.29288656634E+02  0.00000000000E+00 0. -1.
</event>
<event>
 7    1  0.2604986E-013  0.7246166E+02  0.7816164E-02  0.1226708E+00
        -11   -1    0    0    0    0  0.00000000000E+00  0.00000000000E+00  0.45593999997E+02  0.45594000000E+02  0.51100000000E-03 0.  1.
         11   -1    0    0    0    0 -0.00000000000E+00 -0.00000000000E+00 -0.45593999997E+02  0.45594000000E+02  0.51100000000E-03 0. -1.
    9900012    2    1    2    0    0  0.72162394911E+01  0.91252181118E+01 -0.14674202871E+02  0.72461656313E+02  0.70000112055E+02 0.  0.
        -12    1    1    2    0    0 -0.72162394911E+01 -0.91252181118E+01  0.14674202871E+02  0.18726343687E+02  0.00000000000E+00 0.  1.
         11    1    3    3    0    0 -0.10981250192E+02  0.26551348333E+02 -0.22901608425E+02  0.36742966984E+02  0.51100000000E-03 0. -1.
        -11    1    3    3    0    0  0.92805406492E+01  0.50063534977E+01  0.14383097875E+01  0.10642403177E+02  0.51100000000E-03 0.  1.
        -12    1    3    3    0    0  0.89169490336E+01 -0.22432483719E+02  0.67890957659E+01  0.25076286152E+02  0.00000000000E+00 0.  1.
</event>
<event>
 7    1  0.2604986E-013  0.7246157E+02  0.7816164E-02  0.1226708E+00
        -11   -1    0    0    0    0  0.00000000000E+00  0.00000000000E+00  0.45593999997E+02  0.45594000000E+02  0.51100000000E-03 0. -1.
         11   -1    0    0    0    0 -0.00000000000E+00 -0.00000000000E+00 -0.45593999997E+02  0.45594000000E+02  0.51100000000E-03 0.  1.
    9900012    2    1    2    0    0 -0.71069740549E+01  0.12967361442E+02 -0.11489899382E+02  0.72461565988E+02  0.69999994391E+02 0.  0.
        -12    1    1    2    0    0  0.71069740549E+01 -0.12967361442E+02  0.11489899382E+02  0.18726434012E+02  0.00000000000E+00 0.  1.
         11    1    3    3    0    0 -0.16805143154E+02  0.31170926385E+02 -0.29433910725E+00  0.35413643189E+02  0.51100000000E-03 0. -1.
        -11    1    3    3    0    0  0.56112835204E+01 -0.97342292574E-01 -0.16756290328E+02  0.17671141562E+02  0.51100000000E-03 0.  1.
        -12    1    3    3    0    0  0.40868855785E+01 -0.18106222651E+02  0.55607300538E+01  0.19376781238E+02  0.00000000000E+00 0.  1.
</event>
<event>
 7    1  0.2604986E-013  0.7246155E+02  0.7816164E-02  0.1226708E+00
        -11   -1    0    0    0    0  0.00000000000E+00  0.00000000000E+00  0.45593999997E+02  0.45594000000E+02  0.51100000000E-03 0.  1.
         11   -1    0    0    0    0 -0.00000000000E+00 -0.00000000000E+00 -0.45593999997E+02  0.45594000000E+02  0.51100000000E-03 0. -1.
    9900012    2    1    2    0    0  0.52615131813E+01 -0.11830653309E+02 -0.13528931614E+02  0.72461551610E+02  0.69999975661E+02 0.  0.
        -12    1    1    2    0    0 -0.52615131813E+01  0.11830653309E+02  0.13528931614E+02  0.18726448390E+02  0.00000000000E+00 0.  1.
         11    1    3    3    0    0  0.15847615253E+02 -0.19131071039E+02  0.90317843106E+01  0.26433272903E+02  0.51100000000E-03 0. -1.
        -11    1    3    3    0    0  0.73354901855E+01 -0.50157307915E+01 -0.22598232087E+02  0.24282649471E+02  0.51100000000E-03 0.  1.
        -12    1    3    3    0    0 -0.17921592257E+02  0.12316148521E+02  0.37516162013E-01  0.21745629236E+02  0.00000000000E+00 0.  1.
</event>
<event>
 7    1  0.2604986E-013  0.7246155E+02  0.7816164E-02  0.1226708E+00
        -11   -1    0    0    0    0  0.00000000000E+00  0.00000000000E+00  0.45593999997E+02  0.45594000000E+02  0.51100000000E-03 0. -1.
         11   -1    0    0    0    0 -0.00000000000E+00 -0.00000000000E+00 -0.45593999997E+02  0.45594000000E+02  0.51100000000E-03 0.  1.
    9900012    2    1    2    0    0  0.58172482081E+01 -0.79118154644E+01  0.15944985461E+02  0.72461554475E+02  0.69999979392E+02 0.  0.
        -12    1    1    2    0    0 -0.58172482081E+01  0.79118154644E+01 -0.15944985461E+02  0.18726445525E+02  0.00000000000E+00 0.  1.
         11    1    3    3    0    0 -0.66558015322E+01  0.82477722341E+01 -0.31539620236E+01  0.11057708513E+02  0.51100000000E-03 0.  1.
        -11    1    3    3    0    0  0.32367990087E+02 -0.19848667074E+02  0.14573087795E+02  0.40669783071E+02  0.51100000000E-03 0. -1.
         12    1    3    3    0    0 -0.19894940346E+02  0.36890793757E+01  0.45258596898E+01  0.20734062891E+02  0.00000000000E+00 0. -1.
</event>
<event>
 7    1  0.2604986E-013  0.7246181E+02  0.7816164E-02  0.1226707E+00
        -11   -1    0    0    0    0  0.00000000000E+00  0.00000000000E+00  0.45593999997E+02  0.45594000000E+02  0.51100000000E-03 0.  1.
         11   -1    0    0    0    0 -0.00000000000E+00 -0.00000000000E+00 -0.45593999997E+02  0.45594000000E+02  0.51100000000E-03 0. -1.
    9900012    2    1    2    0    0 -0.26651111082E+01 -0.17784558726E+02 -0.52227196557E+01  0.72461811202E+02  0.70000313826E+02 0.  0.
        -12    1    1    2    0    0  0.26651111082E+01  0.17784558726E+02  0.52227196557E+01  0.18726188798E+02  0.00000000000E+00 0.  1.
         11    1    3    3    0    0 -0.41431666116E+01 -0.16477516823E+02 -0.22979665880E+02  0.28578653475E+02  0.51100000000E-03 0. -1.
        -11    1    3    3    0    0 -0.41016818278E+01  0.14672452137E+02 -0.45332405074E+01  0.15895122374E+02  0.51100000000E-03 0.  1.
        -12    1    3    3    0    0  0.55797373312E+01 -0.15979494039E+02  0.22290186731E+02  0.27988035354E+02  0.00000000000E+00 0.  1.
</event>
<event>
 7    1  0.2604986E-013  0.7246156E+02  0.7816164E-02  0.1226708E+00
        -11   -1    0    0    0    0  0.00000000000E+00  0.00000000000E+00  0.45593999997E+02  0.45594000000E+02  0.51100000000E-03 0.  1.
         11   -1    0    0    0    0 -0.00000000000E+00 -0.00000000000E+00 -0.45593999997E+02  0.45594000000E+02  0.51100000000E-03 0. -1.
    9900012    2    1    2    0    0  0.96057600619E+01  0.15764583372E+02 -0.31443092819E+01  0.72461564244E+02  0.69999992118E+02 0.  0.
        -12    1    1    2    0    0 -0.96057600619E+01 -0.15764583372E+02  0.31443092819E+01  0.18726435756E+02  0.00000000000E+00 0.  1.
         11    1    3    3    0    0  0.12830133647E+02  0.77934667157E+01 -0.40842837453E+01  0.15557372105E+02  0.51100000000E-03 0. -1.
        -11    1    3    3    0    0  0.11900488914E+01  0.31899766960E+02  0.47561185759E+01  0.32274324356E+02  0.51100000000E-03 0.  1.
         12    1    3    3    0    0 -0.44144224765E+01 -0.23928650303E+02 -0.38161441125E+01  0.24629867783E+02  0.00000000000E+00 0. -1.
</event>
<event>
 7    1  0.2604986E-013  0.7246151E+02  0.7816164E-02  0.1226708E+00
        -11   -1    0    0    0    0  0.00000000000E+00  0.00000000000E+00  0.45593999997E+02  0.45594000000E+02  0.51100000000E-03 0.  1.
         11   -1    0    0    0    0 -0.00000000000E+00 -0.00000000000E+00 -0.45593999997E+02  0.45594000000E+02  0.51100000000E-03 0. -1.
    9900012    2    1    2    0    0  0.17951321207E+01  0.15872720208E+02 -0.97732041529E+01  0.72461514330E+02  0.69999927096E+02 0.  0.
        -12    1    1    2    0    0 -0.17951321207E+01 -0.15872720208E+02  0.97732041529E+01  0.18726485670E+02  0.00000000000E+00 0.  1.
         11    1    3    3    0    0 -0.11759447449E+02  0.51599701760E+01  0.89080617768E+01  0.15628930271E+02  0.51100000000E-03 0. -1.
        -11    1    3    3    0    0  0.47620967811E+01 -0.20251243792E+02 -0.11799828623E+02  0.23917073330E+02  0.51100000000E-03 0.  1.
         12    1    3    3    0    0  0.87924827891E+01  0.30963993824E+02 -0.68814373072E+01  0.32915510729E+02  0.00000000000E+00 0. -1.
</event>
<event>
 7    1  0.2604986E-013  0.7246149E+02  0.7816164E-02  0.1226708E+00
        -11   -1    0    0    0    0  0.00000000000E+00  0.00000000000E+00  0.45593999997E+02  0.45594000000E+02  0.51100000000E-03 0. -1.
         11   -1    0    0    0    0 -0.00000000000E+00 -0.00000000000E+00 -0.45593999997E+02  0.45594000000E+02  0.51100000000E-03 0.  1.
    9900012    2    1    2    0    0 -0.15170757195E+02  0.62698023242E+01  0.90122113466E+01  0.72461488087E+02  0.69999892910E+02 0.  0.
        -12    1    1    2    0    0  0.15170757195E+02 -0.62698023242E+01 -0.90122113466E+01  0.18726511913E+02  0.00000000000E+00 0.  1.
         11    1    3    3    0    0  0.34599793412E+01 -0.83397017180E+01 -0.16758861491E+01  0.91831735491E+01  0.51100000000E-03 0. -1.
        -11    1    3    3    0    0  0.42676771273E+00  0.28246544105E+01 -0.22803878312E+02  0.22982116298E+02  0.51100000000E-03 0.  1.
        -12    1    3    3    0    0 -0.19057504249E+02  0.11784849632E+02  0.33491975808E+02  0.40296198240E+02  0.00000000000E+00 0.  1.
</event>
<event>
 7    1  0.2604986E-013  0.7246156E+02  0.7816164E-02  0.1226708E+00
        -11   -1    0    0    0    0  0.00000000000E+00  0.00000000000E+00  0.45593999997E+02  0.45594000000E+02  0.51100000000E-03 0.  1.
         11   -1    0    0    0    0 -0.00000000000E+00 -0.00000000000E+00 -0.45593999997E+02  0.45594000000E+02  0.51100000000E-03 0. -1.
    9900012    2    1    2    0    0 -0.11595500040E+02 -0.54661840894E+01 -0.13650816993E+02  0.72461558954E+02  0.69999985227E+02 0.  0.
        -12    1    1    2    0    0  0.11595500040E+02  0.54661840894E+01  0.13650816993E+02  0.18726441046E+02  0.00000000000E+00 0.  1.
         11    1    3    3    0    0 -0.14994026499E+02 -0.23031550961E+02 -0.42869059394E+01  0.27814577708E+02  0.51100000000E-03 0. -1.
        -11    1    3    3    0    0  0.15815117007E+02 -0.35590536812E+00  0.70873374849E+01  0.17334213206E+02  0.51100000000E-03 0.  1.
        -12    1    3    3    0    0 -0.12416590549E+02  0.17921272239E+02 -0.16451248538E+02  0.27312768040E+02  0.00000000000E+00 0.  1.
</event>
<event>
 7    1  0.2604986E-013  0.7246162E+02  0.7816164E-02  0.1226708E+00
        -11   -1    0    0    0    0  0.00000000000E+00  0.00000000000E+00  0.45593999997E+02  0.45594000000E+02  0.51100000000E-03 0.  1.
         11   -1    0    0    0    0 -0.00000000000E+00 -0.00000000000E+00 -0.45593999997E+02  0.45594000000E+02  0.51100000000E-03 0. -1.
    9900012    2    1    2    0    0  0.91761418281E+01  0.14754661422E+02  0.69839618330E+01  0.72461619266E+02  0.70000063795E+02 0.  0.
        -12    1    1    2    0    0 -0.91761418281E+01 -0.14754661422E+02 -0.69839618330E+01  0.18726380734E+02  0.00000000000E+00 0.  1.
         11    1    3    3    0    0 -0.10470128328E+02  0.25986479025E+02 -0.19527251761E+01  0.28084405196E+02  0.51100000000E-03 0. -1.
        -11    1    3    3    0    0  0.16691772577E+02  0.37806361683E+01 -0.10163088214E+02  0.19904694017E+02  0.51100000000E-03 0.  1.
        -12    1    3    3    0    0  0.29544975790E+01 -0.15012453772E+02  0.19099775223E+02  0.24472520053E+02  0.00000000000E+00 0.  1.
</event>
<event>
 7    1  0.2604986E-013  0.7246160E+02  0.7816164E-02  0.1226708E+00
        -11   -1    0    0    0    0  0.00000000000E+00  0.00000000000E+00  0.45593999997E+02  0.45594000000E+02  0.51100000000E-03 0. -1.
         11   -1    0    0    0    0 -0.00000000000E+00 -0.00000000000E+00 -0.45593999997E+02  0.45594000000E+02  0.51100000000E-03 0.  1.
    9900012    2    1    2    0    0  0.16015295174E+02  0.89863327757E+01  0.36652949557E+01  0.72461595023E+02  0.70000032213E+02 0.  0.
        -12    1    1    2    0    0 -0.16015295174E+02 -0.89863327757E+01 -0.36652949557E+01  0.18726404977E+02  0.00000000000E+00 0.  1.
         11    1    3    3    0    0  0.21160853622E+01  0.63207176773E+01  0.32644928324E+02  0.33318472875E+02  0.51100000000E-03 0.  1.
        -11    1    3    3    0    0 -0.24653814164E+01 -0.11295586970E+01  0.23535716040E+01  0.35907252658E+01  0.51100000000E-03 0. -1.
        -12    1    3    3    0    0  0.16364591228E+02  0.37951737954E+01 -0.31333204972E+02  0.35552396881E+02  0.00000000000E+00 0.  1.
</event>
<event>
 7    1  0.2604986E-013  0.7246159E+02  0.7816164E-02  0.1226708E+00
        -11   -1    0    0    0    0  0.00000000000E+00  0.00000000000E+00  0.45593999997E+02  0.45594000000E+02  0.51100000000E-03 0.  1.
         11   -1    0    0    0    0 -0.00000000000E+00 -0.00000000000E+00 -0.45593999997E+02  0.45594000000E+02  0.51100000000E-03 0. -1.
    9900012    2    1    2    0    0  0.61970453643E+00  0.18538489367E+02  0.25727325134E+01  0.72461586186E+02  0.70000020702E+02 0.  0.
        -12    1    1    2    0    0 -0.61970453643E+00 -0.18538489367E+02 -0.25727325134E+01  0.18726413814E+02  0.00000000000E+00 0.  1.
         11    1    3    3    0    0 -0.11086888492E+02  0.83625407409E+01 -0.22419758803E+02  0.26372272733E+02  0.51100000000E-03 0. -1.
        -11    1    3    3    0    0  0.15122187283E+01 -0.10488674553E+02 -0.18023612201E+01  0.10749307214E+02  0.51100000000E-03 0.  1.
         12    1    3    3    0    0  0.10194374300E+02  0.20664623180E+02  0.26794852536E+02  0.35340006239E+02  0.00000000000E+00 0. -1.
</event>
<event>
 7    1  0.2604986E-013  0.7246158E+02  0.7816164E-02  0.1226708E+00
        -11   -1    0    0    0    0  0.00000000000E+00  0.00000000000E+00  0.45593999997E+02  0.45594000000E+02  0.51100000000E-03 0. -1.
         11   -1    0    0    0    0 -0.00000000000E+00 -0.00000000000E+00 -0.45593999997E+02  0.45594000000E+02  0.51100000000E-03 0.  1.
    9900012    2    1    2    0    0 -0.40986666064E+00  0.12338280806E+02  0.14081110254E+02  0.72461579362E+02  0.70000011812E+02 0.  0.
        -12    1    1    2    0    0  0.40986666064E+00 -0.12338280806E+02 -0.14081110254E+02  0.18726420638E+02  0.00000000000E+00 0.  1.
         11    1    3    3    0    0 -0.16802858433E+02  0.28851989920E+01 -0.52754489942E+01  0.17846310182E+02  0.51100000000E-03 0. -1.
        -11    1    3    3    0    0 -0.11611387007E+02  0.52048874666E+01 -0.81673672673E+01  0.15120219909E+02  0.51100000000E-03 0.  1.
        -12    1    3    3    0    0  0.28004378780E+02  0.42481943476E+01  0.27523926516E+02  0.39495049271E+02  0.00000000000E+00 0.  1.
</event>
<event>
 7    1  0.2604986E-013  0.7246156E+02  0.7816164E-02  0.1226708E+00
        -11   -1    0    0    0    0  0.00000000000E+00  0.00000000000E+00  0.45593999997E+02  0.45594000000E+02  0.51100000000E-03 0.  1.
         11   -1    0    0    0    0 -0.00000000000E+00 -0.00000000000E+00 -0.45593999997E+02  0.45594000000E+02  0.51100000000E-03 0. -1.
    9900012    2    1    2    0    0 -0.86871698939E+01  0.14796983626E+02 -0.75008059577E+01  0.72461555190E+02  0.69999980324E+02 0.  0.
        -12    1    1    2    0    0  0.86871698939E+01 -0.14796983626E+02  0.75008059577E+01  0.18726444810E+02  0.00000000000E+00 0.  1.
         11    1    3    3    0    0  0.89125073742E+00 -0.11598295249E+02 -0.17201429203E+01  0.11758982630E+02  0.51100000000E-03 0. -1.
        -11    1    3    3    0    0 -0.16467474320E+02  0.22147312106E+02  0.19738542161E+02  0.33930682146E+02  0.51100000000E-03 0.  1.
         12    1    3    3    0    0  0.68890536891E+01  0.42479667687E+01 -0.25519205198E+02  0.26771890414E+02  0.00000000000E+00 0. -1.
</event>
<event>
 7    1  0.2604986E-013  0.7246164E+02  0.7816164E-02  0.1226708E+00
        -11   -1    0    0    0    0  0.00000000000E+00  0.00000000000E+00  0.45593999997E+02  0.45594000000E+02  0.51100000000E-03 0. -1.
         11   -1    0    0    0    0 -0.00000000000E+00 -0.00000000000E+00 -0.45593999997E+02  0.45594000000E+02  0.51100000000E-03 0.  1.
    9900012    2    1    2    0    0  0.55166360112E+01  0.17472302568E+02  0.38680859783E+01  0.72461635723E+02  0.70000085233E+02 0.  0.
        -12    1    1    2    0    0 -0.55166360112E+01 -0.17472302568E+02 -0.38680859783E+01  0.18726364277E+02  0.00000000000E+00 0.  1.
         11    1    3    3    0    0  0.17355122035E+02 -0.47337746620E+01 -0.76332687215E+01  0.19541639518E+02  0.51100000000E-03 0. -1.
        -11    1    3    3    0    0  0.11073436328E+02  0.13426342498E+02 -0.10192329600E+02  0.20168570796E+02  0.51100000000E-03 0.  1.
         12    1    3    3    0    0 -0.22911922352E+02  0.87797347319E+01  0.21693684300E+02  0.32751425410E+02  0.00000000000E+00 0. -1.
</event>
<event>
 7    1  0.2604986E-013  0.7246164E+02  0.7816164E-02  0.1226708E+00
        -11   -1    0    0    0    0  0.00000000000E+00  0.00000000000E+00  0.45593999997E+02  0.45594000000E+02  0.51100000000E-03 0.  1.
         11   -1    0    0    0    0 -0.00000000000E+00 -0.00000000000E+00 -0.45593999997E+02  0.45594000000E+02  0.51100000000E-03 0. -1.
    9900012    2    1    2    0    0  0.16974251462E+02 -0.75986529188E+01  0.21936142214E+01  0.72461636706E+02  0.70000086513E+02 0.  0.
        -12    1    1    2    0    0 -0.16974251462E+02  0.75986529188E+01 -0.21936142214E+01  0.18726363294E+02  0.00000000000E+00 0.  1.
         11    1    3    3    0    0  0.21506979779E+01  0.10089360150E+01  0.13441143628E+01  0.27294866470E+01  0.51100000000E-03 0. -1.
        -11    1    3    3    0    0  0.22534208023E+02 -0.73245071499E+01  0.30753800721E+02  0.38823127067E+02  0.51100000000E-03 0.  1.
         12    1    3    3    0    0 -0.77106545388E+01 -0.12830817840E+01 -0.29904300862E+02  0.30909022992E+02  0.00000000000E+00 0. -1.
</event>
<event>
 7    1  0.2604986E-013  0.7246162E+02  0.7816164E-02  0.1226708E+00
        -11   -1    0    0    0    0  0.00000000000E+00  0.00000000000E+00  0.45593999997E+02  0.45594000000E+02  0.51100000000E-03 0.  1.
         11   -1    0    0    0    0 -0.00000000000E+00 -0.00000000000E+00 -0.45593999997E+02  0.45594000000E+02  0.51100000000E-03 0. -1.
    9900012    2    1    2    0    0 -0.42870569125E+01 -0.14850244725E+02 -0.10572070183E+02  0.72461620389E+02  0.70000065258E+02 0.  0.
        -12    1    1    2    0    0  0.42870569125E+01  0.14850244725E+02  0.10572070183E+02  0.18726379611E+02  0.00000000000E+00 0.  1.
         11    1    3    3    0    0  0.74543224840E+01  0.49977467357E+01  0.11172019216E+01  0.90439226293E+01  0.51100000000E-03 0. -1.
        -11    1    3    3    0    0  0.72675464975E+01 -0.29846603074E+01  0.20763425815E+02  0.22200118943E+02  0.51100000000E-03 0.  1.
        -12    1    3    3    0    0 -0.19008925894E+02 -0.16863331154E+02 -0.32452697920E+02  0.41217578817E+02  0.00000000000E+00 0.  1.
</event>
<event>
 7    1  0.2604986E-013  0.7246155E+02  0.7816164E-02  0.1226708E+00
        -11   -1    0    0    0    0  0.00000000000E+00  0.00000000000E+00  0.45593999997E+02  0.45594000000E+02  0.51100000000E-03 0. -1.
         11   -1    0    0    0    0 -0.00000000000E+00 -0.00000000000E+00 -0.45593999997E+02  0.45594000000E+02  0.51100000000E-03 0.  1.
    9900012    2    1    2    0    0 -0.95103585827E+01 -0.89878737461E+01  0.13395933326E+02  0.72461552805E+02  0.69999977217E+02 0.  0.
        -12    1    1    2    0    0  0.95103585827E+01  0.89878737461E+01 -0.13395933326E+02  0.18726447195E+02  0.00000000000E+00 0.  1.
         11    1    3    3    0    0  0.78618929093E+01 -0.17116565689E+02  0.25900586631E+02  0.32025405059E+02  0.51100000000E-03 0. -1.
        -11    1    3    3    0    0 -0.15797273520E+02  0.47957052259E-01  0.84549302304E+01  0.17917644823E+02  0.51100000000E-03 0.  1.
        -12    1    3    3    0    0 -0.15749779722E+01  0.80807348902E+01 -0.20959583535E+02  0.22518502924E+02  0.00000000000E+00 0.  1.
</event>
<event>
 7    1  0.2604986E-013  0.7246160E+02  0.7816164E-02  0.1226708E+00
        -11   -1    0    0    0    0  0.00000000000E+00  0.00000000000E+00  0.45593999997E+02  0.45594000000E+02  0.51100000000E-03 0. -1.
         11   -1    0    0    0    0 -0.00000000000E+00 -0.00000000000E+00 -0.45593999997E+02  0.45594000000E+02  0.51100000000E-03 0.  1.
    9900012    2    1    2    0    0  0.11650122139E+02  0.14543066730E+02 -0.18579055423E+01  0.72461602889E+02  0.70000042461E+02 0.  0.
        -12    1    1    2    0    0 -0.11650122139E+02 -0.14543066730E+02  0.18579055423E+01  0.18726397111E+02  0.00000000000E+00 0.  1.
         11    1    3    3    0    0 -0.11401618353E+02 -0.16578030415E+02  0.10496618017E+02  0.22693765302E+02  0.51100000000E-03 0. -1.
        -11    1    3    3    0    0 -0.36572741447E+00 -0.31734068675E+01 -0.72572499745E+01  0.79291831321E+01  0.51100000000E-03 0.  1.
        -12    1    3    3    0    0  0.23417467906E+02  0.34294504012E+02 -0.50972735851E+01  0.41838654455E+02  0.00000000000E+00 0.  1.
</event>
<event>
 7    1  0.2604986E-013  0.7246166E+02  0.7816164E-02  0.1226708E+00
        -11   -1    0    0    0    0  0.00000000000E+00  0.00000000000E+00  0.45593999997E+02  0.45594000000E+02  0.51100000000E-03 0.  1.
         11   -1    0    0    0    0 -0.00000000000E+00 -0.00000000000E+00 -0.45593999997E+02  0.45594000000E+02  0.51100000000E-03 0. -1.
    9900012    2    1    2    0    0 -0.18130842475E+02  0.32185185069E+01  0.34043412665E+01  0.72461658935E+02  0.70000115471E+02 0.  0.
        -12    1    1    2    0    0  0.18130842475E+02 -0.32185185069E+01 -0.34043412665E+01  0.18726341065E+02  0.00000000000E+00 0.  1.
         11    1    3    3    0    0  0.42908525029E+00 -0.31256754493E+00 -0.94700775909E+01  0.94849450426E+01  0.51100000000E-03 0. -1.
        -11    1    3    3    0    0  0.46386745511E+01 -0.17730819969E+02  0.23464998867E+02  0.29774241392E+02  0.51100000000E-03 0.  1.
         12    1    3    3    0    0 -0.23198602276E+02  0.21261906021E+02 -0.10590580009E+02  0.33202472501E+02  0.00000000000E+00 0. -1.
</event>
<event>
 7    1  0.2604986E-013  0.7246160E+02  0.7816164E-02  0.1226708E+00
        -11   -1    0    0    0    0  0.00000000000E+00  0.00000000000E+00  0.45593999997E+02  0.45594000000E+02  0.51100000000E-03 0.  1.
         11   -1    0    0    0    0 -0.00000000000E+00 -0.00000000000E+00 -0.45593999997E+02  0.45594000000E+02  0.51100000000E-03 0. -1.
    9900012    2    1    2    0    0 -0.13017322810E+02  0.84017888464E+01 -0.10518434472E+02  0.72461595842E+02  0.70000033281E+02 0.  0.
        -12    1    1    2    0    0  0.13017322810E+02 -0.84017888464E+01  0.10518434472E+02  0.18726404158E+02  0.00000000000E+00 0.  1.
         11    1    3    3    0    0  0.60433399288E+01  0.60062095327E+01 -0.25984067603E+02  0.27345352072E+02  0.51100000000E-03 0. -1.
        -11    1    3    3    0    0 -0.24602447582E+02  0.11722148432E+02  0.13130787024E+01  0.27283939723E+02  0.51100000000E-03 0.  1.
         12    1    3    3    0    0  0.55417848436E+01 -0.93265691182E+01  0.14152554429E+02  0.17832304047E+02  0.00000000000E+00 0. -1.
</event>
<event>
 7    1  0.2604986E-013  0.7246152E+02  0.7816164E-02  0.1226708E+00
        -11   -1    0    0    0    0  0.00000000000E+00  0.00000000000E+00  0.45593999997E+02  0.45594000000E+02  0.51100000000E-03 0. -1.
         11   -1    0    0    0    0 -0.00000000000E+00 -0.00000000000E+00 -0.45593999997E+02  0.45594000000E+02  0.51100000000E-03 0.  1.
    9900012    2    1    2    0    0 -0.32961321637E+01  0.10580518441E+02  0.15095338459E+02  0.72461518726E+02  0.69999932822E+02 0.  0.
        -12    1    1    2    0    0  0.32961321637E+01 -0.10580518441E+02 -0.15095338459E+02  0.18726481274E+02  0.00000000000E+00 0.  1.
         11    1    3    3    0    0 -0.11130394928E+02 -0.16213564080E+01  0.61427105798E+00  0.11264626805E+02  0.51100000000E-03 0. -1.
        -11    1    3    3    0    0 -0.28359359227E+01 -0.19477770506E+02 -0.76380016408E+01  0.21113151014E+02  0.51100000000E-03 0.  1.
         12    1    3    3    0    0  0.10670198687E+02  0.31679645354E+02  0.22119069042E+02  0.40083740907E+02  0.00000000000E+00 0. -1.
</event>
<event>
 7    1  0.2604986E-013  0.7246165E+02  0.7816164E-02  0.1226708E+00
        -11   -1    0    0    0    0  0.00000000000E+00  0.00000000000E+00  0.45593999997E+02  0.45594000000E+02  0.51100000000E-03 0. -1.
         11   -1    0    0    0    0 -0.00000000000E+00 -0.00000000000E+00 -0.45593999997E+02  0.45594000000E+02  0.51100000000E-03 0.  1.
    9900012    2    1    2    0    0  0.53529966843E+01 -0.11793855090E+01  0.17906161509E+02  0.72461651086E+02  0.70000105245E+02 0.  0.
        -12    1    1    2    0    0 -0.53529966843E+01  0.11793855090E+01 -0.17906161509E+02  0.18726348914E+02  0.00000000000E+00 0.  1.
         11    1    3    3    0    0  0.80719800781E+00  0.23346053730E+02  0.91693195267E+01  0.25095143240E+02  0.51100000000E-03 0. -1.
        -11    1    3    3    0    0 -0.10395626981E+02 -0.33484889511E+01 -0.10453268991E+02  0.15117945345E+02  0.51100000000E-03 0.  1.
        -12    1    3    3    0    0  0.14941425657E+02 -0.21176950288E+02  0.19190110974E+02  0.32248562501E+02  0.00000000000E+00 0.  1.
</event>
<event>
 7    1  0.2604986E-013  0.7246164E+02  0.7816164E-02  0.1226708E+00
        -11   -1    0    0    0    0  0.00000000000E+00  0.00000000000E+00  0.45593999997E+02  0.45594000000E+02  0.51100000000E-03 0. -1.
         11   -1    0    0    0    0 -0.00000000000E+00 -0.00000000000E+00 -0.45593999997E+02  0.45594000000E+02  0.51100000000E-03 0.  1.
    9900012    2    1    2    0    0 -0.12652685562E+02  0.25865873364E+01 -0.13560809120E+02  0.72461643441E+02  0.70000095287E+02 0.  0.
        -12    1    1    2    0    0  0.12652685562E+02 -0.25865873364E+01  0.13560809120E+02  0.18726356559E+02  0.00000000000E+00 0.  1.
         11    1    3    3    0    0 -0.11915353755E+02  0.24951343594E+02 -0.22768489461E+01  0.27743994732E+02  0.51100000000E-03 0. -1.
        -11    1    3    3    0    0  0.81969053150E+01 -0.41257740748E+01  0.11160149869E+02  0.14448536736E+02  0.51100000000E-03 0.  1.
        -12    1    3    3    0    0 -0.89342371214E+01 -0.18238982183E+02 -0.22444110043E+02  0.30269111973E+02  0.00000000000E+00 0.  1.
</event>
<event>
 7    1  0.2604986E-013  0.7246158E+02  0.7816164E-02  0.1226708E+00
        -11   -1    0    0    0    0  0.00000000000E+00  0.00000000000E+00  0.45593999997E+02  0.45594000000E+02  0.51100000000E-03 0.  1.
         11   -1    0    0    0    0 -0.00000000000E+00 -0.00000000000E+00 -0.45593999997E+02  0.45594000000E+02  0.51100000000E-03 0. -1.
    9900012    2    1    2    0    0  0.12274531381E+02  0.42100092742E+01 -0.13501500286E+02  0.72461579929E+02  0.70000012550E+02 0.  0.
        -12    1    1    2    0    0 -0.12274531381E+02 -0.42100092742E+01  0.13501500286E+02  0.18726420071E+02  0.00000000000E+00 0.  1.
         11    1    3    3    0    0 -0.11707156687E+02  0.68802279447E+01 -0.31752845002E+01  0.13945518498E+02  0.51100000000E-03 0. -1.
        -11    1    3    3    0    0  0.60587623372E+01  0.14898256139E+02  0.15618489018E+02  0.22418827724E+02  0.51100000000E-03 0.  1.
         12    1    3    3    0    0  0.17922925731E+02 -0.17568474809E+02 -0.25944704804E+02  0.36097233707E+02  0.00000000000E+00 0. -1.
</event>
<event>
 7    1  0.2604986E-013  0.7246167E+02  0.7816164E-02  0.1226708E+00
        -11   -1    0    0    0    0  0.00000000000E+00  0.00000000000E+00  0.45593999997E+02  0.45594000000E+02  0.51100000000E-03 0.  1.
         11   -1    0    0    0    0 -0.00000000000E+00 -0.00000000000E+00 -0.45593999997E+02  0.45594000000E+02  0.51100000000E-03 0. -1.
    9900012    2    1    2    0    0  0.14501511431E+02  0.83758579113E+01 -0.83801271306E+01  0.72461672003E+02  0.70000132494E+02 0.  0.
        -12    1    1    2    0    0 -0.14501511431E+02 -0.83758579113E+01  0.83801271306E+01  0.18726327997E+02  0.00000000000E+00 0.  1.
         11    1    3    3    0    0  0.29982768363E+01  0.31755655297E+02 -0.60824074836E+01  0.32471633596E+02  0.51100000000E-03 0. -1.
        -11    1    3    3    0    0  0.19052996670E+02 -0.75790548310E+01  0.48579473253E+01  0.21072693390E+02  0.51100000000E-03 0.  1.
        -12    1    3    3    0    0 -0.75497620748E+01 -0.15800742555E+02 -0.71556669722E+01  0.18917345017E+02  0.00000000000E+00 0.  1.
</event>
<event>
 7    1  0.2604986E-013  0.7246161E+02  0.7816164E-02  0.1226708E+00
        -11   -1    0    0    0    0  0.00000000000E+00  0.00000000000E+00  0.45593999997E+02  0.45594000000E+02  0.51100000000E-03 0. -1.
         11   -1    0    0    0    0 -0.00000000000E+00 -0.00000000000E+00 -0.45593999997E+02  0.45594000000E+02  0.51100000000E-03 0.  1.
    9900012    2    1    2    0    0  0.12725708525E+02  0.13235254472E+02  0.36826884133E+01  0.72461606531E+02  0.70000047205E+02 0.  0.
        -12    1    1    2    0    0 -0.12725708525E+02 -0.13235254472E+02 -0.36826884133E+01  0.18726393469E+02  0.00000000000E+00 0.  1.
         11    1    3    3    0    0 -0.96828081781E+01  0.83141668634E+01  0.16828203752E+02  0.21120383203E+02  0.51100000000E-03 0. -1.
        -11    1    3    3    0    0  0.58657770276E+01  0.13595470022E+02  0.12662419598E+02  0.19482839002E+02  0.51100000000E-03 0.  1.
        -12    1    3    3    0    0  0.16542739675E+02 -0.86743824128E+01 -0.25807934937E+02  0.31858384327E+02  0.00000000000E+00 0.  1.
</event>
<event>
 7    1  0.2604986E-013  0.7246158E+02  0.7816164E-02  0.1226708E+00
        -11   -1    0    0    0    0  0.00000000000E+00  0.00000000000E+00  0.45593999997E+02  0.45594000000E+02  0.51100000000E-03 0. -1.
         11   -1    0    0    0    0 -0.00000000000E+00 -0.00000000000E+00 -0.45593999997E+02  0.45594000000E+02  0.51100000000E-03 0.  1.
    9900012    2    1    2    0    0 -0.13663193875E+02  0.94536284570E+01  0.86385704113E+01  0.72461578649E+02  0.70000010884E+02 0.  0.
        -12    1    1    2    0    0  0.13663193875E+02 -0.94536284570E+01 -0.86385704113E+01  0.18726421351E+02  0.00000000000E+00 0.  1.
         11    1    3    3    0    0 -0.30264159888E+01 -0.22354838867E+01  0.16983566274E+01  0.41280743016E+01  0.51100000000E-03 0. -1.
        -11    1    3    3    0    0 -0.33807534127E+02 -0.10677896486E+02  0.32075410455E+00  0.35455179037E+02  0.51100000000E-03 0.  1.
         12    1    3    3    0    0  0.23170756241E+02  0.22367008829E+02  0.66194596793E+01  0.32878325310E+02  0.00000000000E+00 0. -1.
</event>
<event>
 7    1  0.2604986E-013  0.7246150E+02  0.7816164E-02  0.1226708E+00
        -11   -1    0    0    0    0  0.00000000000E+00  0.00000000000E+00  0.45593999997E+02  0.45594000000E+02  0.51100000000E-03 0. -1.
         11   -1    0    0    0    0 -0.00000000000E+00 -0.00000000000E+00 -0.45593999997E+02  0.45594000000E+02  0.51100000000E-03 0.  1.
    9900012    2    1    2    0    0  0.17504722280E+02 -0.29013621700E+01  0.59873574932E+01  0.72461503950E+02  0.69999913574E+02 0.  0.
        -12    1    1    2    0    0 -0.17504722280E+02  0.29013621700E+01 -0.59873574932E+01  0.18726496050E+02  0.00000000000E+00 0.  1.
         11    1    3    3    0    0  0.61417006530E+01  0.13122955726E+02 -0.49024505593E+01  0.15295962724E+02  0.51100000000E-03 0. -1.
        -11    1    3    3    0    0 -0.10813444808E+02 -0.14848894263E+01 -0.16020390847E+02  0.19385262659E+02  0.51100000000E-03 0.  1.
         12    1    3    3    0    0  0.22176466436E+02 -0.14539428470E+02  0.26910198899E+02  0.37780278567E+02  0.00000000000E+00 0. -1.
</event>
<event>
 7    1  0.2604986E-013  0.7246227E+02  0.7816164E-02  0.1226706E+00
        -11   -1    0    0    0    0  0.00000000000E+00  0.00000000000E+00  0.45593999997E+02  0.45594000000E+02  0.51100000000E-03 0.  1.
         11   -1    0    0    0    0 -0.00000000000E+00 -0.00000000000E+00 -0.45593999997E+02  0.45594000000E+02  0.51100000000E-03 0. -1.
    9900012    2    1    2    0    0  0.13959850131E+02  0.22898383944E+01 -0.12269161304E+02  0.72462266512E+02  0.70000906947E+02 0.  0.
        -12    1    1    2    0    0 -0.13959850131E+02 -0.22898383944E+01  0.12269161304E+02  0.18725733488E+02  0.00000000000E+00 0.  1.
         11    1    3    3    0    0  0.14158512541E+02  0.10820761680E+02  0.15772151036E+02  0.23797334079E+02  0.51100000000E-03 0. -1.
        -11    1    3    3    0    0  0.12519355221E+01  0.11393652922E+02  0.29105142554E+01  0.11825978308E+02  0.51100000000E-03 0.  1.
         12    1    3    3    0    0 -0.14505979313E+01 -0.19924576208E+02 -0.30951826596E+02  0.36838954125E+02  0.00000000000E+00 0. -1.
</event>
<event>
 7    1  0.2604986E-013  0.7246158E+02  0.7816164E-02  0.1226708E+00
        -11   -1    0    0    0    0  0.00000000000E+00  0.00000000000E+00  0.45593999997E+02  0.45594000000E+02  0.51100000000E-03 0. -1.
         11   -1    0    0    0    0 -0.00000000000E+00 -0.00000000000E+00 -0.45593999997E+02  0.45594000000E+02  0.51100000000E-03 0.  1.
    9900012    2    1    2    0    0 -0.12096607990E+02  0.21448280670E+01  0.14133309132E+02  0.72461584451E+02  0.70000018441E+02 0.  0.
        -12    1    1    2    0    0  0.12096607990E+02 -0.21448280670E+01 -0.14133309132E+02  0.18726415549E+02  0.00000000000E+00 0.  1.
         11    1    3    3    0    0 -0.36219530072E+02  0.10096896407E+02  0.21742865527E+02  0.43434477979E+02  0.51100000000E-03 0. -1.
        -11    1    3    3    0    0 -0.32622713633E+00 -0.30314442102E+00  0.17098641897E+01  0.17669059095E+01  0.51100000000E-03 0.  1.
        -12    1    3    3    0    0  0.24449149219E+02 -0.76489239188E+01 -0.93194205848E+01  0.27260200562E+02  0.00000000000E+00 0.  1.
</event>
<event>
 7    1  0.2604986E-013  0.7246220E+02  0.7816164E-02  0.1226706E+00
        -11   -1    0    0    0    0  0.00000000000E+00  0.00000000000E+00  0.45593999997E+02  0.45594000000E+02  0.51100000000E-03 0.  1.
         11   -1    0    0    0    0 -0.00000000000E+00 -0.00000000000E+00 -0.45593999997E+02  0.45594000000E+02  0.51100000000E-03 0. -1.
    9900012    2    1    2    0    0 -0.17447478521E+02 -0.55455363820E+01  0.39354728016E+01  0.72462204245E+02  0.70000825833E+02 0.  0.
        -12    1    1    2    0    0  0.17447478521E+02  0.55455363820E+01 -0.39354728016E+01  0.18725795755E+02  0.00000000000E+00 0.  1.
         11    1    3    3    0    0 -0.21221108859E+02 -0.16743883150E+02  0.12423921627E+01  0.27059871076E+02  0.51100000000E-03 0. -1.
        -11    1    3    3    0    0 -0.19046803062E+02  0.10602523931E+02  0.52763595240E+01  0.22428423723E+02  0.51100000000E-03 0.  1.
         12    1    3    3    0    0  0.22820433400E+02  0.59582283658E+00 -0.25832788851E+01  0.22973909445E+02  0.00000000000E+00 0. -1.
</event>
<event>
 7    1  0.2604986E-013  0.7246170E+02  0.7816164E-02  0.1226708E+00
        -11   -1    0    0    0    0  0.00000000000E+00  0.00000000000E+00  0.45593999997E+02  0.45594000000E+02  0.51100000000E-03 0. -1.
         11   -1    0    0    0    0 -0.00000000000E+00 -0.00000000000E+00 -0.45593999997E+02  0.45594000000E+02  0.51100000000E-03 0.  1.
    9900012    2    1    2    0    0 -0.15636523861E+02 -0.73723497819E+01  0.71987312755E+01  0.72461704271E+02  0.70000174529E+02 0.  0.
        -12    1    1    2    0    0  0.15636523861E+02  0.73723497819E+01 -0.71987312755E+01  0.18726295729E+02  0.00000000000E+00 0.  1.
         11    1    3    3    0    0 -0.62059986802E+01 -0.77635896592E+01 -0.88207450169E+01  0.13288840692E+02  0.51100000000E-03 0. -1.
        -11    1    3    3    0    0 -0.23695023664E+02  0.17420889835E+02 -0.34788923714E+01  0.29614932745E+02  0.51100000000E-03 0.  1.
         12    1    3    3    0    0  0.14264498483E+02 -0.17029649958E+02  0.19498368664E+02  0.29557930834E+02  0.00000000000E+00 0. -1.
</event>
<event>
 7    1  0.2604986E-013  0.7246155E+02  0.7816164E-02  0.1226708E+00
        -11   -1    0    0    0    0  0.00000000000E+00  0.00000000000E+00  0.45593999997E+02  0.45594000000E+02  0.51100000000E-03 0.  1.
         11   -1    0    0    0    0 -0.00000000000E+00 -0.00000000000E+00 -0.45593999997E+02  0.45594000000E+02  0.51100000000E-03 0. -1.
    9900012    2    1    2    0    0 -0.10499554881E+02  0.50555650187E+01 -0.14658807378E+02  0.72461547477E+02  0.69999970277E+02 0.  0.
        -12    1    1    2    0    0  0.10499554881E+02 -0.50555650187E+01  0.14658807378E+02  0.18726452523E+02  0.00000000000E+00 0.  1.
         11    1    3    3    0    0  0.48401083660E+00 -0.11391005289E+01  0.34380417590E+01  0.36540317326E+01  0.51100000000E-03 0. -1.
        -11    1    3    3    0    0 -0.99827799924E+01 -0.72519217456E+01  0.22701870310E+02  0.25838366458E+02  0.51100000000E-03 0.  1.
         12    1    3    3    0    0 -0.10007857247E+01  0.13446587293E+02 -0.40798719447E+02  0.42969149287E+02  0.00000000000E+00 0. -1.
</event>
<event>
 7    1  0.2604986E-013  0.7246158E+02  0.7816164E-02  0.1226708E+00
        -11   -1    0    0    0    0  0.00000000000E+00  0.00000000000E+00  0.45593999997E+02  0.45594000000E+02  0.51100000000E-03 0. -1.
         11   -1    0    0    0    0 -0.00000000000E+00 -0.00000000000E+00 -0.45593999997E+02  0.45594000000E+02  0.51100000000E-03 0.  1.
    9900012    2    1    2    0    0  0.12888375405E+01  0.16481199558E+02  0.87970271228E+01  0.72461582102E+02  0.70000015382E+02 0.  0.
        -12    1    1    2    0    0 -0.12888375405E+01 -0.16481199558E+02 -0.87970271228E+01  0.18726417898E+02  0.00000000000E+00 0.  1.
         11    1    3    3    0    0  0.27562246693E+01  0.11629728160E+02  0.11370393129E+02  0.16496459974E+02  0.51100000000E-03 0. -1.
        -11    1    3    3    0    0  0.43916553063E+01  0.15990685781E+02  0.22476128545E+02  0.27931434312E+02  0.51100000000E-03 0.  1.
        -12    1    3    3    0    0 -0.58590424352E+01 -0.11139214383E+02 -0.25049494551E+02  0.28033687816E+02  0.00000000000E+00 0.  1.
</event>
<event>
 7    1  0.2604986E-013  0.7246157E+02  0.7816164E-02  0.1226708E+00
        -11   -1    0    0    0    0  0.00000000000E+00  0.00000000000E+00  0.45593999997E+02  0.45594000000E+02  0.51100000000E-03 0. -1.
         11   -1    0    0    0    0 -0.00000000000E+00 -0.00000000000E+00 -0.45593999997E+02  0.45594000000E+02  0.51100000000E-03 0.  1.
    9900012    2    1    2    0    0  0.12585550748E+02 -0.13034050743E+02  0.47325118889E+01  0.72461568541E+02  0.69999997716E+02 0.  0.
        -12    1    1    2    0    0 -0.12585550748E+02  0.13034050743E+02 -0.47325118889E+01  0.18726431459E+02  0.00000000000E+00 0.  1.
         11    1    3    3    0    0  0.25370227815E+02  0.96265580602E-02  0.27343277044E+02  0.37300178979E+02  0.51100000000E-03 0. -1.
        -11    1    3    3    0    0 -0.33552205205E+01  0.44338233221E+01 -0.72280712925E+00  0.56070263420E+01  0.51100000000E-03 0.  1.
        -12    1    3    3    0    0 -0.94294565466E+01 -0.17477500623E+02 -0.21887958026E+02  0.29554363220E+02  0.00000000000E+00 0.  1.
</event>
<event>
 7    1  0.2604986E-013  0.7246154E+02  0.7816164E-02  0.1226708E+00
        -11   -1    0    0    0    0  0.00000000000E+00  0.00000000000E+00  0.45593999997E+02  0.45594000000E+02  0.51100000000E-03 0. -1.
         11   -1    0    0    0    0 -0.00000000000E+00 -0.00000000000E+00 -0.45593999997E+02  0.45594000000E+02  0.51100000000E-03 0.  1.
    9900012    2    1    2    0    0  0.79530975972E+01 -0.16223009190E+01  0.16875917173E+02  0.72461542725E+02  0.69999964085E+02 0.  0.
        -12    1    1    2    0    0 -0.79530975972E+01  0.16223009190E+01 -0.16875917173E+02  0.18726457275E+02  0.00000000000E+00 0.  1.
         11    1    3    3    0    0  0.12411967256E+02 -0.11126213972E+02 -0.43697115075E+01  0.17232061613E+02  0.51100000000E-03 0. -1.
        -11    1    3    3    0    0 -0.20123070858E+02 -0.38067014980E+01 -0.57750976324E+01  0.21278644459E+02  0.51100000000E-03 0.  1.
        -12    1    3    3    0    0  0.15664201200E+02  0.13310614551E+02  0.27020726313E+02  0.33950836653E+02  0.00000000000E+00 0.  1.
</event>
<event>
 7    1  0.2604986E-013  0.7246154E+02  0.7816164E-02  0.1226708E+00
        -11   -1    0    0    0    0  0.00000000000E+00  0.00000000000E+00  0.45593999997E+02  0.45594000000E+02  0.51100000000E-03 0.  1.
         11   -1    0    0    0    0 -0.00000000000E+00 -0.00000000000E+00 -0.45593999997E+02  0.45594000000E+02  0.51100000000E-03 0. -1.
    9900012    2    1    2    0    0 -0.88788633391E+00 -0.16318262877E+02 -0.91436535648E+01  0.72461536213E+02  0.69999955602E+02 0.  0.
        -12    1    1    2    0    0  0.88788633391E+00  0.16318262877E+02  0.91436535648E+01  0.18726463787E+02  0.00000000000E+00 0.  1.
         11    1    3    3    0    0  0.15408281832E+02  0.12648268286E+01 -0.97599285046E+01  0.18283083454E+02  0.51100000000E-03 0. -1.
        -11    1    3    3    0    0  0.17307021115E+00 -0.26905891537E+02 -0.13939897576E+02  0.30303097159E+02  0.51100000000E-03 0.  1.
         12    1    3    3    0    0 -0.16469238377E+02  0.93228018316E+01  0.14556172516E+02  0.23875355600E+02  0.00000000000E+00 0. -1.
</event>
<event>
 7    1  0.2604986E-013  0.7246160E+02  0.7816164E-02  0.1226708E+00
        -11   -1    0    0    0    0  0.00000000000E+00  0.00000000000E+00  0.45593999997E+02  0.45594000000E+02  0.51100000000E-03 0.  1.
         11   -1    0    0    0    0 -0.00000000000E+00 -0.00000000000E+00 -0.45593999997E+02  0.45594000000E+02  0.51100000000E-03 0. -1.
    9900012    2    1    2    0    0  0.18018459181E+02 -0.32952715011E+01  0.38928631344E+01  0.72461599681E+02  0.70000038282E+02 0.  0.
        -12    1    1    2    0    0 -0.18018459181E+02  0.32952715011E+01 -0.38928631344E+01  0.18726400319E+02  0.00000000000E+00 0.  1.
         11    1    3    3    0    0  0.22124681691E+01 -0.26014498590E+01 -0.99310668061E+01  0.10501840074E+02  0.51100000000E-03 0. -1.
        -11    1    3    3    0    0  0.19724216473E+02  0.25953699522E+02  0.23473473173E+01  0.32682553052E+02  0.51100000000E-03 0.  1.
         12    1    3    3    0    0 -0.39182254608E+01 -0.26647521164E+02  0.11476582623E+02  0.29277206555E+02  0.00000000000E+00 0. -1.
</event>
<event>
 7    1  0.2604986E-013  0.7246158E+02  0.7816164E-02  0.1226708E+00
        -11   -1    0    0    0    0  0.00000000000E+00  0.00000000000E+00  0.45593999997E+02  0.45594000000E+02  0.51100000000E-03 0.  1.
         11   -1    0    0    0    0 -0.00000000000E+00 -0.00000000000E+00 -0.45593999997E+02  0.45594000000E+02  0.51100000000E-03 0. -1.
    9900012    2    1    2    0    0 -0.51776960604E+00 -0.98804875140E+01  0.15899264002E+02  0.72461582438E+02  0.70000015820E+02 0.  0.
        -12    1    1    2    0    0  0.51776960604E+00  0.98804875140E+01 -0.15899264002E+02  0.18726417562E+02  0.00000000000E+00 0.  1.
         11    1    3    3    0    0  0.12253565638E+01  0.20462028744E+02 -0.11786107790E+02  0.23645474327E+02  0.51100000000E-03 0. -1.
        -11    1    3    3    0    0 -0.54118074748E+01 -0.22736243348E+01  0.17943213264E+02  0.18878981177E+02  0.51100000000E-03 0.  1.
        -12    1    3    3    0    0  0.36686813050E+01 -0.28068891923E+02  0.97421585285E+01  0.29937126935E+02  0.00000000000E+00 0.  1.
</event>
<event>
 7    1  0.2604986E-013  0.7246149E+02  0.7816164E-02  0.1226708E+00
        -11   -1    0    0    0    0  0.00000000000E+00  0.00000000000E+00  0.45593999997E+02  0.45594000000E+02  0.51100000000E-03 0. -1.
         11   -1    0    0    0    0 -0.00000000000E+00 -0.00000000000E+00 -0.45593999997E+02  0.45594000000E+02  0.51100000000E-03 0.  1.
    9900012    2    1    2    0    0 -0.20486097603E+01 -0.18025636962E+02  0.46434825090E+01  0.72461486186E+02  0.69999890433E+02 0.  0.
        -12    1    1    2    0    0  0.20486097603E+01  0.18025636962E+02 -0.46434825090E+01  0.18726513814E+02  0.00000000000E+00 0.  1.
         11    1    3    3    0    0 -0.23499096252E+01 -0.12001144251E+02  0.18308375126E+02  0.22016951165E+02  0.51100000000E-03 0. -1.
        -11    1    3    3    0    0  0.10018775129E+02 -0.25161254996E+02 -0.70379083516E+01  0.27982079306E+02  0.51100000000E-03 0.  1.
         12    1    3    3    0    0 -0.97174752638E+01  0.19136762286E+02 -0.66269842653E+01  0.22462455715E+02  0.00000000000E+00 0. -1.
</event>
<event>
 7    1  0.2604986E-013  0.7246205E+02  0.7816164E-02  0.1226707E+00
        -11   -1    0    0    0    0  0.00000000000E+00  0.00000000000E+00  0.45593999997E+02  0.45594000000E+02  0.51100000000E-03 0. -1.
         11   -1    0    0    0    0 -0.00000000000E+00 -0.00000000000E+00 -0.45593999997E+02  0.45594000000E+02  0.51100000000E-03 0.  1.
    9900012    2    1    2    0    0 -0.27042197690E+01  0.12550323469E+02  0.13632227912E+02  0.72462053787E+02  0.70000629836E+02 0.  0.
        -12    1    1    2    0    0  0.27042197690E+01 -0.12550323469E+02 -0.13632227912E+02  0.18725946213E+02  0.00000000000E+00 0.  1.
         11    1    3    3    0    0  0.14011352290E+01  0.45549762893E+01  0.15985363859E+02  0.16680612905E+02  0.51100000000E-03 0. -1.
        -11    1    3    3    0    0  0.11784387361E+02  0.23213891103E+02  0.12855342283E+02  0.29034743862E+02  0.51100000000E-03 0.  1.
         12    1    3    3    0    0 -0.15889742359E+02 -0.15218543923E+02 -0.15208478231E+02  0.26746697020E+02  0.00000000000E+00 0. -1.
</event>
<event>
 7    1  0.2604986E-013  0.7246159E+02  0.7816164E-02  0.1226708E+00
        -11   -1    0    0    0    0  0.00000000000E+00  0.00000000000E+00  0.45593999997E+02  0.45594000000E+02  0.51100000000E-03 0. -1.
         11   -1    0    0    0    0 -0.00000000000E+00 -0.00000000000E+00 -0.45593999997E+02  0.45594000000E+02  0.51100000000E-03 0.  1.
    9900012    2    1    2    0    0 -0.12170726229E+02 -0.86506687279E+01  0.11301225077E+02  0.72461592587E+02  0.70000029040E+02 0.  0.
        -12    1    1    2    0    0  0.12170726229E+02  0.86506687279E+01 -0.11301225077E+02  0.18726407413E+02  0.00000000000E+00 0.  1.
         11    1    3    3    0    0 -0.72355882539E+01 -0.20002814307E+01  0.27896604358E+01  0.80085622174E+01  0.51100000000E-03 0. -1.
        -11    1    3    3    0    0 -0.78933316754E+01  0.22805528613E+01 -0.26736785593E+02  0.27970722379E+02  0.51100000000E-03 0.  1.
         12    1    3    3    0    0  0.29581937006E+01 -0.89309401585E+01  0.35248350234E+02  0.36482307990E+02  0.00000000000E+00 0. -1.
</event>
<event>
 7    1  0.2604986E-013  0.7246158E+02  0.7816164E-02  0.1226708E+00
        -11   -1    0    0    0    0  0.00000000000E+00  0.00000000000E+00  0.45593999997E+02  0.45594000000E+02  0.51100000000E-03 0.  1.
         11   -1    0    0    0    0 -0.00000000000E+00 -0.00000000000E+00 -0.45593999997E+02  0.45594000000E+02  0.51100000000E-03 0. -1.
    9900012    2    1    2    0    0  0.42591159554E+01  0.30529165119E+01 -0.17978277837E+02  0.72461579041E+02  0.70000011394E+02 0.  0.
        -12    1    1    2    0    0 -0.42591159554E+01 -0.30529165119E+01  0.17978277837E+02  0.18726420959E+02  0.00000000000E+00 0.  1.
         11    1    3    3    0    0 -0.28990739326E+01  0.28159163914E+02 -0.13883532025E+02  0.31529281688E+02  0.51100000000E-03 0. -1.
        -11    1    3    3    0    0 -0.48056967322E+01 -0.75555395913E+01 -0.14683705974E+02  0.17198608112E+02  0.51100000000E-03 0.  1.
        -12    1    3    3    0    0  0.11963886620E+02 -0.17550707811E+02  0.10588960162E+02  0.23733689242E+02  0.00000000000E+00 0.  1.
</event>
<event>
 7    1  0.2604986E-013  0.7246155E+02  0.7816164E-02  0.1226708E+00
        -11   -1    0    0    0    0  0.00000000000E+00  0.00000000000E+00  0.45593999997E+02  0.45594000000E+02  0.51100000000E-03 0.  1.
         11   -1    0    0    0    0 -0.00000000000E+00 -0.00000000000E+00 -0.45593999997E+02  0.45594000000E+02  0.51100000000E-03 0. -1.
    9900012    2    1    2    0    0 -0.18504510223E+02  0.28201056187E+01 -0.55669733219E+00  0.72461553295E+02  0.69999977855E+02 0.  0.
        -12    1    1    2    0    0  0.18504510223E+02 -0.28201056187E+01  0.55669733219E+00  0.18726446705E+02  0.00000000000E+00 0.  1.
         11    1    3    3    0    0 -0.35783983455E+02  0.21419194500E+02 -0.31573015007E+01  0.41823963441E+02  0.51100000000E-03 0. -1.
        -11    1    3    3    0    0 -0.30763191615E+01 -0.49386977752E+01  0.18719876920E+01  0.61121856547E+01  0.51100000000E-03 0.  1.
        -12    1    3    3    0    0  0.20355792394E+02 -0.13660391106E+02  0.72861647658E+00  0.24525404199E+02  0.00000000000E+00 0.  1.
</event>
<event>
 7    1  0.2604986E-013  0.7246189E+02  0.7816164E-02  0.1226707E+00
        -11   -1    0    0    0    0  0.00000000000E+00  0.00000000000E+00  0.45593999997E+02  0.45594000000E+02  0.51100000000E-03 0. -1.
         11   -1    0    0    0    0 -0.00000000000E+00 -0.00000000000E+00 -0.45593999997E+02  0.45594000000E+02  0.51100000000E-03 0.  1.
    9900012    2    1    2    0    0 -0.12014832303E+02 -0.14310592995E+02  0.12319760543E+01  0.72461894368E+02  0.70000422165E+02 0.  0.
        -12    1    1    2    0    0  0.12014832303E+02  0.14310592995E+02 -0.12319760543E+01  0.18726105632E+02  0.00000000000E+00 0.  1.
         11    1    3    3    0    0 -0.24805186523E+02 -0.10003375616E+02 -0.16597707891E+02  0.31477749437E+02  0.51100000000E-03 0. -1.
        -11    1    3    3    0    0 -0.41472407167E+01 -0.13807126857E+02 -0.29615710602E+00  0.14419572355E+02  0.51100000000E-03 0.  1.
        -12    1    3    3    0    0  0.16937594936E+02  0.94999094779E+01  0.18125841051E+02  0.26564572576E+02  0.00000000000E+00 0.  1.
</event>
<event>
 7    1  0.2604986E-013  0.7246153E+02  0.7816164E-02  0.1226708E+00
        -11   -1    0    0    0    0  0.00000000000E+00  0.00000000000E+00  0.45593999997E+02  0.45594000000E+02  0.51100000000E-03 0. -1.
         11   -1    0    0    0    0 -0.00000000000E+00 -0.00000000000E+00 -0.45593999997E+02  0.45594000000E+02  0.51100000000E-03 0.  1.
    9900012    2    1    2    0    0  0.11115525320E+02  0.10958722001E+02  0.10345631937E+02  0.72461532335E+02  0.69999950550E+02 0.  0.
        -12    1    1    2    0    0 -0.11115525320E+02 -0.10958722001E+02 -0.10345631937E+02  0.18726467665E+02  0.00000000000E+00 0.  1.
         11    1    3    3    0    0 -0.10022007646E+02  0.46096866750E+01  0.62384212902E+01  0.12673111258E+02  0.51100000000E-03 0. -1.
        -11    1    3    3    0    0 -0.17815843941E+02  0.19722318712E+01  0.93904659725E+01  0.20235484805E+02  0.51100000000E-03 0.  1.
        -12    1    3    3    0    0  0.38953376906E+02  0.43768034552E+01 -0.52832553254E+01  0.39552936272E+02  0.00000000000E+00 0.  1.
</event>
<event>
 7    1  0.2604986E-013  0.7246161E+02  0.7816164E-02  0.1226708E+00
        -11   -1    0    0    0    0  0.00000000000E+00  0.00000000000E+00  0.45593999997E+02  0.45594000000E+02  0.51100000000E-03 0. -1.
         11   -1    0    0    0    0 -0.00000000000E+00 -0.00000000000E+00 -0.45593999997E+02  0.45594000000E+02  0.51100000000E-03 0.  1.
    9900012    2    1    2    0    0 -0.16171556396E+02  0.61227733974E+01  0.71881977135E+01  0.72461607483E+02  0.70000048445E+02 0.  0.
        -12    1    1    2    0    0  0.16171556396E+02 -0.61227733974E+01 -0.71881977135E+01  0.18726392517E+02  0.00000000000E+00 0.  1.
         11    1    3    3    0    0 -0.57390236804E+01  0.10994857111E+02  0.10947948394E+02  0.16543302270E+02  0.51100000000E-03 0. -1.
        -11    1    3    3    0    0 -0.19214173349E+02  0.12758805156E+01  0.21268606005E+02  0.28690868412E+02  0.51100000000E-03 0.  1.
        -12    1    3    3    0    0  0.87816406334E+01 -0.61479642291E+01 -0.25028356685E+02  0.27227436801E+02  0.00000000000E+00 0.  1.
</event>
<event>
 7    1  0.2604986E-013  0.7246162E+02  0.7816164E-02  0.1226708E+00
        -11   -1    0    0    0    0  0.00000000000E+00  0.00000000000E+00  0.45593999997E+02  0.45594000000E+02  0.51100000000E-03 0.  1.
         11   -1    0    0    0    0 -0.00000000000E+00 -0.00000000000E+00 -0.45593999997E+02  0.45594000000E+02  0.51100000000E-03 0. -1.
    9900012    2    1    2    0    0 -0.27840173293E+00  0.11755968178E+02  0.14573851761E+02  0.72461616193E+02  0.70000059792E+02 0.  0.
        -12    1    1    2    0    0  0.27840173293E+00 -0.11755968178E+02 -0.14573851761E+02  0.18726383807E+02  0.00000000000E+00 0.  1.
         11    1    3    3    0    0 -0.11492847866E+02  0.20909059295E+02 -0.43303906989E+01  0.24249259711E+02  0.51100000000E-03 0. -1.
        -11    1    3    3    0    0 -0.44747384620E+01  0.98808561939E+01 -0.66276145416E+01  0.12711407404E+02  0.51100000000E-03 0.  1.
        -12    1    3    3    0    0  0.15689184595E+02 -0.19033947311E+02  0.25531857001E+02  0.35500949078E+02  0.00000000000E+00 0.  1.
</event>
<event>
 7    1  0.2604986E-013  0.7246175E+02  0.7816164E-02  0.1226708E+00
        -11   -1    0    0    0    0  0.00000000000E+00  0.00000000000E+00  0.45593999997E+02  0.45594000000E+02  0.51100000000E-03 0.  1.
         11   -1    0    0    0    0 -0.00000000000E+00 -0.00000000000E+00 -0.45593999997E+02  0.45594000000E+02  0.51100000000E-03 0. -1.
    9900012    2    1    2    0    0  0.75781618973E+01  0.71981979109E+01 -0.15538011753E+02  0.72461751039E+02  0.70000235454E+02 0.  0.
        -12    1    1    2    0    0 -0.75781618973E+01 -0.71981979109E+01  0.15538011753E+02  0.18726248961E+02  0.00000000000E+00 0.  1.
         11    1    3    3    0    0  0.18842794897E+02 -0.11629499035E+02 -0.17985264829E+02  0.28526582665E+02  0.51100000000E-03 0. -1.
        -11    1    3    3    0    0 -0.22023756324E+01 -0.14735868810E+01  0.17102979206E+02  0.17307045233E+02  0.51100000000E-03 0.  1.
         12    1    3    3    0    0 -0.90622573669E+01  0.20301283827E+02 -0.14655726130E+02  0.26628123141E+02  0.00000000000E+00 0. -1.
</event>
<event>
 7    1  0.2604986E-013  0.7246155E+02  0.7816164E-02  0.1226708E+00
        -11   -1    0    0    0    0  0.00000000000E+00  0.00000000000E+00  0.45593999997E+02  0.45594000000E+02  0.51100000000E-03 0.  1.
         11   -1    0    0    0    0 -0.00000000000E+00 -0.00000000000E+00 -0.45593999997E+02  0.45594000000E+02  0.51100000000E-03 0. -1.
    9900012    2    1    2    0    0  0.84467320970E+01 -0.14264532375E+02 -0.87095129792E+01  0.72461553905E+02  0.69999978650E+02 0.  0.
        -12    1    1    2    0    0 -0.84467320970E+01  0.14264532375E+02  0.87095129792E+01  0.18726446095E+02  0.00000000000E+00 0.  1.
         11    1    3    3    0    0  0.40397565951E+01  0.79340679482E+01  0.99015224267E+01  0.13315750605E+02  0.51100000000E-03 0. -1.
        -11    1    3    3    0    0  0.27042475370E+02 -0.45140432751E+01 -0.90573955976E+01  0.28874010392E+02  0.51100000000E-03 0.  1.
         12    1    3    3    0    0 -0.22635499868E+02 -0.17684557048E+02 -0.95536398083E+01  0.30271792908E+02  0.00000000000E+00 0. -1.
</event>
<event>
 7    1  0.2604986E-013  0.7246156E+02  0.7816164E-02  0.1226708E+00
        -11   -1    0    0    0    0  0.00000000000E+00  0.00000000000E+00  0.45593999997E+02  0.45594000000E+02  0.51100000000E-03 0.  1.
         11   -1    0    0    0    0 -0.00000000000E+00 -0.00000000000E+00 -0.45593999997E+02  0.45594000000E+02  0.51100000000E-03 0. -1.
    9900012    2    1    2    0    0  0.12839760643E+02 -0.10906566564E+02 -0.81772213646E+01  0.72461558885E+02  0.69999985137E+02 0.  0.
        -12    1    1    2    0    0 -0.12839760643E+02  0.10906566564E+02  0.81772213646E+01  0.18726441115E+02  0.00000000000E+00 0.  1.
         11    1    3    3    0    0  0.11036683729E+01  0.10233548595E+02  0.21364811788E+01  0.10512285804E+02  0.51100000000E-03 0. -1.
        -11    1    3    3    0    0 -0.17077708502E+01  0.18164016473E+02 -0.91097914954E+01  0.20392064070E+02  0.51100000000E-03 0.  1.
         12    1    3    3    0    0  0.13443863121E+02 -0.39304131632E+02 -0.12039110480E+01  0.41557209011E+02  0.00000000000E+00 0. -1.
</event>
<event>
 7    1  0.2604986E-013  0.7246158E+02  0.7816164E-02  0.1226708E+00
        -11   -1    0    0    0    0  0.00000000000E+00  0.00000000000E+00  0.45593999997E+02  0.45594000000E+02  0.51100000000E-03 0.  1.
         11   -1    0    0    0    0 -0.00000000000E+00 -0.00000000000E+00 -0.45593999997E+02  0.45594000000E+02  0.51100000000E-03 0. -1.
    9900012    2    1    2    0    0 -0.14429008756E+02  0.11844124460E+02 -0.14829606326E+01  0.72461581492E+02  0.70000014587E+02 0.  0.
        -12    1    1    2    0    0  0.14429008756E+02 -0.11844124460E+02  0.14829606326E+01  0.18726418508E+02  0.00000000000E+00 0.  1.
         11    1    3    3    0    0  0.10255523663E+02  0.11741705767E+02 -0.27269160804E+02  0.31410994112E+02  0.51100000000E-03 0. -1.
        -11    1    3    3    0    0  0.17862356793E+01 -0.35416558045E+01  0.80654060938E+01  0.89880331251E+01  0.51100000000E-03 0.  1.
        -12    1    3    3    0    0 -0.26470768098E+02  0.36440744981E+01  0.17720794077E+02  0.32062554255E+02  0.00000000000E+00 0.  1.
</event>
<event>
 7    1  0.2604986E-013  0.7246161E+02  0.7816164E-02  0.1226708E+00
        -11   -1    0    0    0    0  0.00000000000E+00  0.00000000000E+00  0.45593999997E+02  0.45594000000E+02  0.51100000000E-03 0. -1.
         11   -1    0    0    0    0 -0.00000000000E+00 -0.00000000000E+00 -0.45593999997E+02  0.45594000000E+02  0.51100000000E-03 0.  1.
    9900012    2    1    2    0    0  0.13253218314E+02 -0.54024135303E+01  0.12076584443E+02  0.72461607944E+02  0.70000049045E+02 0.  0.
        -12    1    1    2    0    0 -0.13253218314E+02  0.54024135303E+01 -0.12076584443E+02  0.18726392056E+02  0.00000000000E+00 0.  1.
         11    1    3    3    0    0  0.26242224769E+02 -0.29648078262E+01  0.54663719278E+01  0.26968976039E+02  0.51100000000E-03 0. -1.
        -11    1    3    3    0    0  0.10719973830E+02  0.53989868657E+01  0.14944637192E+02  0.19167917966E+02  0.51100000000E-03 0.  1.
        -12    1    3    3    0    0 -0.23708980285E+02 -0.78365925698E+01 -0.83344246772E+01  0.26324713939E+02  0.00000000000E+00 0.  1.
</event>
<event>
 7    1  0.2604986E-013  0.7246197E+02  0.7816164E-02  0.1226707E+00
        -11   -1    0    0    0    0  0.00000000000E+00  0.00000000000E+00  0.45593999997E+02  0.45594000000E+02  0.51100000000E-03 0.  1.
         11   -1    0    0    0    0 -0.00000000000E+00 -0.00000000000E+00 -0.45593999997E+02  0.45594000000E+02  0.51100000000E-03 0. -1.
    9900012    2    1    2    0    0  0.14097334547E+02 -0.80352881435E+01  0.93468474257E+01  0.72461968555E+02  0.70000518807E+02 0.  0.
        -12    1    1    2    0    0 -0.14097334547E+02  0.80352881435E+01 -0.93468474257E+01  0.18726031445E+02  0.00000000000E+00 0.  1.
         11    1    3    3    0    0  0.36774086520E+01  0.20089527622E+01  0.34097357287E+01  0.54023627789E+01  0.51100000000E-03 0. -1.
        -11    1    3    3    0    0  0.73129686340E+01  0.26195485876E+02  0.12777871385E+02  0.30049242718E+02  0.51100000000E-03 0.  1.
         12    1    3    3    0    0  0.31069572607E+01 -0.36239726781E+02 -0.68407596883E+01  0.37010363059E+02  0.00000000000E+00 0. -1.
</event>
<event>
 7    1  0.2604986E-013  0.7246159E+02  0.7816164E-02  0.1226708E+00
        -11   -1    0    0    0    0  0.00000000000E+00  0.00000000000E+00  0.45593999997E+02  0.45594000000E+02  0.51100000000E-03 0.  1.
         11   -1    0    0    0    0 -0.00000000000E+00 -0.00000000000E+00 -0.45593999997E+02  0.45594000000E+02  0.51100000000E-03 0. -1.
    9900012    2    1    2    0    0  0.80381118117E+00  0.17099043542E+02 -0.75930976549E+01  0.72461587251E+02  0.70000022089E+02 0.  0.
        -12    1    1    2    0    0 -0.80381118117E+00 -0.17099043542E+02  0.75930976549E+01  0.18726412749E+02  0.00000000000E+00 0.  1.
         11    1    3    3    0    0 -0.92855176767E+01 -0.17821321977E+02  0.64587752323E+01  0.21107726862E+02  0.51100000000E-03 0. -1.
        -11    1    3    3    0    0 -0.57745392471E+01 -0.33048464285E+01  0.20248260379E+01  0.69546555757E+01  0.51100000000E-03 0.  1.
         12    1    3    3    0    0  0.15863868105E+02  0.38225211947E+02 -0.16076698925E+02  0.44399204813E+02  0.00000000000E+00 0. -1.
</event>
<event>
 7    1  0.2604986E-013  0.7246155E+02  0.7816164E-02  0.1226708E+00
        -11   -1    0    0    0    0  0.00000000000E+00  0.00000000000E+00  0.45593999997E+02  0.45594000000E+02  0.51100000000E-03 0.  1.
         11   -1    0    0    0    0 -0.00000000000E+00 -0.00000000000E+00 -0.45593999997E+02  0.45594000000E+02  0.51100000000E-03 0. -1.
    9900012    2    1    2    0    0  0.13991132639E+02 -0.18926339426E+00 -0.12445567408E+02  0.72461554494E+02  0.69999979418E+02 0.  0.
        -12    1    1    2    0    0 -0.13991132639E+02  0.18926339426E+00  0.12445567408E+02  0.18726445506E+02  0.00000000000E+00 0.  1.
         11    1    3    3    0    0  0.34742103786E+01  0.61209528129E+01 -0.29700449947E+02  0.30522990161E+02  0.51100000000E-03 0. -1.
        -11    1    3    3    0    0  0.19732372397E+02  0.10015869349E+01 -0.14837285174E+01  0.19813408272E+02  0.51100000000E-03 0.  1.
         12    1    3    3    0    0 -0.92154501363E+01 -0.73118031421E+01  0.18738611056E+02  0.22125156061E+02  0.00000000000E+00 0. -1.
</event>
<event>
 7    1  0.2604986E-013  0.7246158E+02  0.7816164E-02  0.1226708E+00
        -11   -1    0    0    0    0  0.00000000000E+00  0.00000000000E+00  0.45593999997E+02  0.45594000000E+02  0.51100000000E-03 0. -1.
         11   -1    0    0    0    0 -0.00000000000E+00 -0.00000000000E+00 -0.45593999997E+02  0.45594000000E+02  0.51100000000E-03 0.  1.
    9900012    2    1    2    0    0  0.10668243552E+02  0.43460097830E-01  0.15390434017E+02  0.72461581002E+02  0.70000013949E+02 0.  0.
        -12    1    1    2    0    0 -0.10668243552E+02 -0.43460097830E-01 -0.15390434017E+02  0.18726418998E+02  0.00000000000E+00 0.  1.
         11    1    3    3    0    0  0.23483993088E+01 -0.22599573002E+02 -0.85637860101E+01  0.24281559058E+02  0.51100000000E-03 0. -1.
        -11    1    3    3    0    0  0.18871672529E+02  0.96514907618E+01  0.30714058478E+01  0.21417862455E+02  0.51100000000E-03 0.  1.
        -12    1    3    3    0    0 -0.10551828286E+02  0.12991542338E+02  0.20882814179E+02  0.26762159490E+02  0.00000000000E+00 0.  1.
</event>
<event>
 7    1  0.2604986E-013  0.7246159E+02  0.7816164E-02  0.1226708E+00
        -11   -1    0    0    0    0  0.00000000000E+00  0.00000000000E+00  0.45593999997E+02  0.45594000000E+02  0.51100000000E-03 0.  1.
         11   -1    0    0    0    0 -0.00000000000E+00 -0.00000000000E+00 -0.45593999997E+02  0.45594000000E+02  0.51100000000E-03 0. -1.
    9900012    2    1    2    0    0  0.45396145376E+01 -0.17965452436E+02 -0.27042371800E+01  0.72461588702E+02  0.70000023980E+02 0.  0.
        -12    1    1    2    0    0 -0.45396145376E+01  0.17965452436E+02  0.27042371800E+01  0.18726411298E+02  0.00000000000E+00 0.  1.
         11    1    3    3    0    0  0.10454722881E+01 -0.61199759291E+01 -0.15276414619E+02  0.16489874516E+02  0.51100000000E-03 0. -1.
        -11    1    3    3    0    0 -0.19812640930E+02  0.22571756164E+01 -0.83546379147E+01  0.21620258031E+02  0.51100000000E-03 0.  1.
         12    1    3    3    0    0  0.23306783180E+02 -0.14102652123E+02  0.20926815354E+02  0.34351456155E+02  0.00000000000E+00 0. -1.
</event>
<event>
 7    1  0.2604986E-013  0.7246163E+02  0.7816164E-02  0.1226708E+00
        -11   -1    0    0    0    0  0.00000000000E+00  0.00000000000E+00  0.45593999997E+02  0.45594000000E+02  0.51100000000E-03 0.  1.
         11   -1    0    0    0    0 -0.00000000000E+00 -0.00000000000E+00 -0.45593999997E+02  0.45594000000E+02  0.51100000000E-03 0. -1.
    9900012    2    1    2    0    0  0.76209056149E+01  0.67626643554E+01 -0.15711946964E+02  0.72461625311E+02  0.70000071670E+02 0.  0.
        -12    1    1    2    0    0 -0.76209056149E+01 -0.67626643554E+01  0.15711946964E+02  0.18726374689E+02  0.00000000000E+00 0.  1.
         11    1    3    3    0    0 -0.72885292502E+01  0.13004471431E+02  0.15807855018E+02  0.21728488589E+02  0.51100000000E-03 0. -1.
        -11    1    3    3    0    0  0.60579816139E+01  0.13602312848E+02 -0.35369272232E+01  0.15304636895E+02  0.51100000000E-03 0.  1.
         12    1    3    3    0    0  0.88514532512E+01 -0.19844119924E+02 -0.27982874759E+02  0.35428499827E+02  0.00000000000E+00 0. -1.
</event>
<event>
 7    1  0.2604986E-013  0.7246155E+02  0.7816164E-02  0.1226708E+00
        -11   -1    0    0    0    0  0.00000000000E+00  0.00000000000E+00  0.45593999997E+02  0.45594000000E+02  0.51100000000E-03 0. -1.
         11   -1    0    0    0    0 -0.00000000000E+00 -0.00000000000E+00 -0.45593999997E+02  0.45594000000E+02  0.51100000000E-03 0.  1.
    9900012    2    1    2    0    0 -0.25763917536E+01 -0.13354768763E+01  0.18500232152E+02  0.72461551254E+02  0.69999975196E+02 0.  0.
        -12    1    1    2    0    0  0.25763917536E+01  0.13354768763E+01 -0.18500232152E+02  0.18726448746E+02  0.00000000000E+00 0.  1.
         11    1    3    3    0    0 -0.15318099580E+02  0.78175483930E+01  0.13914866159E+02  0.22121974101E+02  0.51100000000E-03 0. -1.
        -11    1    3    3    0    0  0.10903852441E+02  0.10490377618E+02  0.20158057119E+02  0.25204945699E+02  0.51100000000E-03 0.  1.
        -12    1    3    3    0    0  0.18378553852E+01 -0.19643402888E+02 -0.15572691126E+02  0.25134631454E+02  0.00000000000E+00 0.  1.
</event>
<event>
 7    1  0.2604986E-013  0.7246171E+02  0.7816164E-02  0.1226708E+00
        -11   -1    0    0    0    0  0.00000000000E+00  0.00000000000E+00  0.45593999997E+02  0.45594000000E+02  0.51100000000E-03 0.  1.
         11   -1    0    0    0    0 -0.00000000000E+00 -0.00000000000E+00 -0.45593999997E+02  0.45594000000E+02  0.51100000000E-03 0. -1.
    9900012    2    1    2    0    0 -0.14086335490E+02  0.19737380764E+01 -0.12180035763E+02  0.72461714711E+02  0.70000188129E+02 0.  0.
        -12    1    1    2    0    0  0.14086335490E+02 -0.19737380764E+01  0.12180035763E+02  0.18726285289E+02  0.00000000000E+00 0.  1.
         11    1    3    3    0    0 -0.78637427584E+01 -0.43771041884E+01 -0.18701884350E+02  0.20754709580E+02  0.51100000000E-03 0. -1.
        -11    1    3    3    0    0 -0.12557523228E+02 -0.20256871195E+02  0.47196956947E+01  0.24296249669E+02  0.51100000000E-03 0.  1.
        -12    1    3    3    0    0  0.63349304965E+01  0.26607713460E+02  0.18021528925E+01  0.27410755462E+02  0.00000000000E+00 0.  1.
</event>
<event>
 7    1  0.2604986E-013  0.7246157E+02  0.7816164E-02  0.1226708E+00
        -11   -1    0    0    0    0  0.00000000000E+00  0.00000000000E+00  0.45593999997E+02  0.45594000000E+02  0.51100000000E-03 0. -1.
         11   -1    0    0    0    0 -0.00000000000E+00 -0.00000000000E+00 -0.45593999997E+02  0.45594000000E+02  0.51100000000E-03 0.  1.
    9900012    2    1    2    0    0 -0.30637914803E+01 -0.18457014284E+02  0.79439717843E+00  0.72461567841E+02  0.69999996804E+02 0.  0.
        -12    1    1    2    0    0  0.30637914803E+01  0.18457014284E+02 -0.79439717843E+00  0.18726432159E+02  0.00000000000E+00 0.  1.
         11    1    3    3    0    0  0.12639369635E+02  0.85055908425E+01  0.11286976712E+02  0.18960342399E+02  0.51100000000E-03 0. -1.
        -11    1    3    3    0    0  0.12038603575E+02 -0.13230179365E+02 -0.13486750434E+02  0.22402188724E+02  0.51100000000E-03 0.  1.
         12    1    3    3    0    0 -0.27741764690E+02 -0.13732425762E+02  0.29941709004E+01  0.31099036718E+02  0.00000000000E+00 0. -1.
</event>
<event>
 7    1  0.2604986E-013  0.7246159E+02  0.7816164E-02  0.1226708E+00
        -11   -1    0    0    0    0  0.00000000000E+00  0.00000000000E+00  0.45593999997E+02  0.45594000000E+02  0.51100000000E-03 0. -1.
         11   -1    0    0    0    0 -0.00000000000E+00 -0.00000000000E+00 -0.45593999997E+02  0.45594000000E+02  0.51100000000E-03 0.  1.
    9900012    2    1    2    0    0  0.14414861757E+02 -0.84175191364E+01  0.84873819490E+01  0.72461587631E+02  0.70000022584E+02 0.  0.
        -12    1    1    2    0    0 -0.14414861757E+02  0.84175191364E+01 -0.84873819490E+01  0.18726412369E+02  0.00000000000E+00 0.  1.
         11    1    3    3    0    0  0.39493760046E+02 -0.64479614139E+00  0.13715202653E+02  0.41812433901E+02  0.51100000000E-03 0. -1.
        -11    1    3    3    0    0 -0.43350668090E+01  0.41509341450E+01  0.57373103843E+00  0.60292807266E+01  0.51100000000E-03 0.  1.
        -12    1    3    3    0    0 -0.20743831480E+02 -0.11923657140E+02 -0.58015517426E+01  0.24619873003E+02  0.00000000000E+00 0.  1.
</event>
<event>
 7    1  0.2604986E-013  0.7246154E+02  0.7816164E-02  0.1226708E+00
        -11   -1    0    0    0    0  0.00000000000E+00  0.00000000000E+00  0.45593999997E+02  0.45594000000E+02  0.51100000000E-03 0.  1.
         11   -1    0    0    0    0 -0.00000000000E+00 -0.00000000000E+00 -0.45593999997E+02  0.45594000000E+02  0.51100000000E-03 0. -1.
    9900012    2    1    2    0    0  0.14843962802E+02 -0.11208953942E+02  0.21671633910E+01  0.72461535376E+02  0.69999954513E+02 0.  0.
        -12    1    1    2    0    0 -0.14843962802E+02  0.11208953942E+02 -0.21671633910E+01  0.18726464624E+02  0.00000000000E+00 0.  1.
         11    1    3    3    0    0  0.15526491784E+02  0.17872808583E+02 -0.64537604125E+01  0.24538953880E+02  0.51100000000E-03 0. -1.
        -11    1    3    3    0    0 -0.62006395837E+01  0.56267721948E+01  0.96332741839E+01  0.12763560175E+02  0.51100000000E-03 0.  1.
        -12    1    3    3    0    0  0.55181106019E+01 -0.34708534720E+02 -0.10123503803E+01  0.35159021322E+02  0.00000000000E+00 0.  1.
</event>
<event>
 7    1  0.2604986E-013  0.7246164E+02  0.7816164E-02  0.1226708E+00
        -11   -1    0    0    0    0  0.00000000000E+00  0.00000000000E+00  0.45593999997E+02  0.45594000000E+02  0.51100000000E-03 0.  1.
         11   -1    0    0    0    0 -0.00000000000E+00 -0.00000000000E+00 -0.45593999997E+02  0.45594000000E+02  0.51100000000E-03 0. -1.
    9900012    2    1    2    0    0  0.18175261632E+02  0.41918733619E+01  0.16627301246E+01  0.72461638658E+02  0.70000089056E+02 0.  0.
        -12    1    1    2    0    0 -0.18175261632E+02 -0.41918733619E+01 -0.16627301246E+01  0.18726361342E+02  0.00000000000E+00 0.  1.
         11    1    3    3    0    0 -0.32837578149E+01 -0.23490084593E-02 -0.25858590299E+02  0.26066257181E+02  0.51100000000E-03 0. -1.
        -11    1    3    3    0    0 -0.56893290193E+01 -0.15290201119E+01 -0.16689541461E+01  0.61230527840E+01  0.51100000000E-03 0.  1.
        -12    1    3    3    0    0  0.27148348466E+02  0.57232424823E+01  0.29190274569E+02  0.40272328693E+02  0.00000000000E+00 0.  1.
</event>
<event>
 7    1  0.2604986E-013  0.7246149E+02  0.7816164E-02  0.1226708E+00
        -11   -1    0    0    0    0  0.00000000000E+00  0.00000000000E+00  0.45593999997E+02  0.45594000000E+02  0.51100000000E-03 0.  1.
         11   -1    0    0    0    0 -0.00000000000E+00 -0.00000000000E+00 -0.45593999997E+02  0.45594000000E+02  0.51100000000E-03 0. -1.
    9900012    2    1    2    0    0  0.60977990313E+01  0.17323835753E+01 -0.17620945873E+02  0.72461493670E+02  0.69999900182E+02 0.  0.
        -12    1    1    2    0    0 -0.60977990313E+01 -0.17323835753E+01  0.17620945873E+02  0.18726506330E+02  0.00000000000E+00 0.  1.
         11    1    3    3    0    0 -0.93446540465E+00 -0.80067161871E+01 -0.33330789222E+01  0.87229665284E+01  0.51100000000E-03 0. -1.
        -11    1    3    3    0    0  0.41301406993E+01 -0.25964010379E+02 -0.64538089681E+01  0.27071009357E+02  0.51100000000E-03 0.  1.
        -12    1    3    3    0    0  0.29021237367E+01  0.35703110142E+02 -0.78340579826E+01  0.36667517784E+02  0.00000000000E+00 0.  1.
</event>
<event>
 7    1  0.2604986E-013  0.7246159E+02  0.7816164E-02  0.1226708E+00
        -11   -1    0    0    0    0  0.00000000000E+00  0.00000000000E+00  0.45593999997E+02  0.45594000000E+02  0.51100000000E-03 0.  1.
         11   -1    0    0    0    0 -0.00000000000E+00 -0.00000000000E+00 -0.45593999997E+02  0.45594000000E+02  0.51100000000E-03 0. -1.
    9900012    2    1    2    0    0  0.12172155110E+02  0.55931363962E+00 -0.14219857321E+02  0.72461587263E+02  0.70000022105E+02 0.  0.
        -12    1    1    2    0    0 -0.12172155110E+02 -0.55931363962E+00  0.14219857321E+02  0.18726412737E+02  0.00000000000E+00 0.  1.
         11    1    3    3    0    0 -0.39599372645E+01  0.24964974646E+00 -0.36259878686E+02  0.36476324249E+02  0.51100000000E-03 0. -1.
        -11    1    3    3    0    0  0.77034414742E+01 -0.11201309271E+02  0.14392723941E+02  0.19798051486E+02  0.51100000000E-03 0.  1.
        -12    1    3    3    0    0  0.84286509002E+01  0.11510973164E+02  0.76472974236E+01  0.16187211529E+02  0.00000000000E+00 0.  1.
</event>
<event>
 7    1  0.2604986E-013  0.7246156E+02  0.7816164E-02  0.1226708E+00
        -11   -1    0    0    0    0  0.00000000000E+00  0.00000000000E+00  0.45593999997E+02  0.45594000000E+02  0.51100000000E-03 0. -1.
         11   -1    0    0    0    0 -0.00000000000E+00 -0.00000000000E+00 -0.45593999997E+02  0.45594000000E+02  0.51100000000E-03 0.  1.
    9900012    2    1    2    0    0 -0.18307110256E+02 -0.15377076177E+01 -0.36283166960E+01  0.72461561132E+02  0.69999988064E+02 0.  0.
        -12    1    1    2    0    0  0.18307110256E+02  0.15377076177E+01  0.36283166960E+01  0.18726438868E+02  0.00000000000E+00 0.  1.
         11    1    3    3    0    0  0.30560985953E+01 -0.12753430888E+02 -0.19033588187E+01  0.13251887152E+02  0.51100000000E-03 0. -1.
        -11    1    3    3    0    0  0.85914081925E+01  0.51446044914E+01 -0.20867719535E+02  0.23146078911E+02  0.51100000000E-03 0.  1.
         12    1    3    3    0    0 -0.29954617043E+02  0.60711187787E+01  0.19142761657E+02  0.36063595069E+02  0.00000000000E+00 0. -1.
</event>
<event>
 7    1  0.2604986E-013  0.7246159E+02  0.7816164E-02  0.1226708E+00
        -11   -1    0    0    0    0  0.00000000000E+00  0.00000000000E+00  0.45593999997E+02  0.45594000000E+02  0.51100000000E-03 0. -1.
         11   -1    0    0    0    0 -0.00000000000E+00 -0.00000000000E+00 -0.45593999997E+02  0.45594000000E+02  0.51100000000E-03 0.  1.
    9900012    2    1    2    0    0  0.12872632090E+02 -0.99459648654E+01  0.92763930509E+01  0.72461592388E+02  0.70000028780E+02 0.  0.
        -12    1    1    2    0    0 -0.12872632090E+02  0.99459648654E+01 -0.92763930509E+01  0.18726407612E+02  0.00000000000E+00 0.  1.
         11    1    3    3    0    0  0.49414276204E+01 -0.15806751350E+01  0.81549542037E+00  0.52517876816E+01  0.51100000000E-03 0. -1.
        -11    1    3    3    0    0  0.29948338439E+02  0.15885130661E+02  0.34705014158E+01  0.34077628023E+02  0.51100000000E-03 0.  1.
         12    1    3    3    0    0 -0.22017133969E+02 -0.24250420391E+02  0.49903962147E+01  0.33132176683E+02  0.00000000000E+00 0. -1.
</event>
<event>
 7    1  0.2604986E-013  0.7246159E+02  0.7816164E-02  0.1226708E+00
        -11   -1    0    0    0    0  0.00000000000E+00  0.00000000000E+00  0.45593999997E+02  0.45594000000E+02  0.51100000000E-03 0.  1.
         11   -1    0    0    0    0 -0.00000000000E+00 -0.00000000000E+00 -0.45593999997E+02  0.45594000000E+02  0.51100000000E-03 0. -1.
    9900012    2    1    2    0    0 -0.14084667020E+02 -0.64936918681E+01 -0.10494397103E+02  0.72461594854E+02  0.70000031993E+02 0.  0.
        -12    1    1    2    0    0  0.14084667020E+02  0.64936918681E+01  0.10494397103E+02  0.18726405146E+02  0.00000000000E+00 0.  1.
         11    1    3    3    0    0 -0.28211747058E+00  0.17893802804E+01 -0.24207071237E+02  0.24274755822E+02  0.51100000000E-03 0. -1.
        -11    1    3    3    0    0  0.16834394187E+01 -0.29934624061E+01 -0.14864366628E+02  0.15255955590E+02  0.51100000000E-03 0.  1.
        -12    1    3    3    0    0 -0.15485988968E+02 -0.52896097424E+01  0.28577040762E+02  0.32930883442E+02  0.00000000000E+00 0.  1.
</event>
<event>
 7    1  0.2604986E-013  0.7246157E+02  0.7816164E-02  0.1226708E+00
        -11   -1    0    0    0    0  0.00000000000E+00  0.00000000000E+00  0.45593999997E+02  0.45594000000E+02  0.51100000000E-03 0.  1.
         11   -1    0    0    0    0 -0.00000000000E+00 -0.00000000000E+00 -0.45593999997E+02  0.45594000000E+02  0.51100000000E-03 0. -1.
    9900012    2    1    2    0    0 -0.30218625847E+01  0.61032417761E+01 -0.17444139221E+02  0.72461569299E+02  0.69999998703E+02 0.  0.
        -12    1    1    2    0    0  0.30218625847E+01 -0.61032417761E+01  0.17444139221E+02  0.18726430701E+02  0.00000000000E+00 0.  1.
         11    1    3    3    0    0  0.45300741516E+00  0.42452802246E+01  0.59023044245E+01  0.72845602259E+01  0.51100000000E-03 0. -1.
        -11    1    3    3    0    0 -0.14496497322E+02  0.28466910627E+02 -0.10360371288E+02  0.33583488930E+02  0.51100000000E-03 0.  1.
         12    1    3    3    0    0  0.11021627322E+02 -0.26608949076E+02 -0.12986072357E+02  0.31593520143E+02  0.00000000000E+00 0. -1.
</event>
<event>
 7    1  0.2604986E-013  0.7246156E+02  0.7816164E-02  0.1226708E+00
        -11   -1    0    0    0    0  0.00000000000E+00  0.00000000000E+00  0.45593999997E+02  0.45594000000E+02  0.51100000000E-03 0.  1.
         11   -1    0    0    0    0 -0.00000000000E+00 -0.00000000000E+00 -0.45593999997E+02  0.45594000000E+02  0.51100000000E-03 0. -1.
    9900012    2    1    2    0    0  0.97724720945E+01  0.12440072029E+02 -0.10021126052E+02  0.72461559594E+02  0.69999986061E+02 0.  0.
        -12    1    1    2    0    0 -0.97724720945E+01 -0.12440072029E+02  0.10021126052E+02  0.18726440406E+02  0.00000000000E+00 0.  1.
         11    1    3    3    0    0  0.20064403878E+01 -0.20300844696E+02  0.28704337369E+00  0.20401776701E+02  0.51100000000E-03 0. -1.
        -11    1    3    3    0    0 -0.11881935870E+01 -0.84788451700E+01 -0.38485968345E+01  0.93869226732E+01  0.51100000000E-03 0.  1.
         12    1    3    3    0    0  0.89542252937E+01  0.41219761895E+02 -0.64595725912E+01  0.42672860220E+02  0.00000000000E+00 0. -1.
</event>
<event>
 7    1  0.2604986E-013  0.7246157E+02  0.7816164E-02  0.1226708E+00
        -11   -1    0    0    0    0  0.00000000000E+00  0.00000000000E+00  0.45593999997E+02  0.45594000000E+02  0.51100000000E-03 0. -1.
         11   -1    0    0    0    0 -0.00000000000E+00 -0.00000000000E+00 -0.45593999997E+02  0.45594000000E+02  0.51100000000E-03 0.  1.
    9900012    2    1    2    0    0 -0.13639941046E+02  0.12027743329E+02  0.44681767304E+01  0.72461569357E+02  0.69999998779E+02 0.  0.
        -12    1    1    2    0    0  0.13639941046E+02 -0.12027743329E+02 -0.44681767304E+01  0.18726430643E+02  0.00000000000E+00 0.  1.
         11    1    3    3    0    0  0.94742259061E+01  0.16433131921E+02  0.20061431134E+02  0.27609233974E+02  0.51100000000E-03 0. -1.
        -11    1    3    3    0    0  0.13298025026E+01  0.79027242392E+01  0.59840784058E+01  0.10001530869E+02  0.51100000000E-03 0.  1.
        -12    1    3    3    0    0 -0.24443969455E+02 -0.12308112830E+02 -0.21577332809E+02  0.34850804514E+02  0.00000000000E+00 0.  1.
</event>
<event>
 7    1  0.2604986E-013  0.7246158E+02  0.7816164E-02  0.1226708E+00
        -11   -1    0    0    0    0  0.00000000000E+00  0.00000000000E+00  0.45593999997E+02  0.45594000000E+02  0.51100000000E-03 0.  1.
         11   -1    0    0    0    0 -0.00000000000E+00 -0.00000000000E+00 -0.45593999997E+02  0.45594000000E+02  0.51100000000E-03 0. -1.
    9900012    2    1    2    0    0 -0.15882423248E+02  0.98572691779E+01 -0.11233154768E+01  0.72461575848E+02  0.70000007234E+02 0.  0.
        -12    1    1    2    0    0  0.15882423248E+02 -0.98572691779E+01  0.11233154768E+01  0.18726424152E+02  0.00000000000E+00 0.  1.
         11    1    3    3    0    0 -0.25395834436E+02  0.77592698276E+01 -0.24332759422E+02  0.36017188345E+02  0.51100000000E-03 0. -1.
        -11    1    3    3    0    0  0.64466974127E+01  0.86047499524E+01 -0.13656309466E+01  0.10838199916E+02  0.51100000000E-03 0.  1.
        -12    1    3    3    0    0  0.30667137750E+01 -0.65067506021E+01  0.24575074892E+02  0.25606187587E+02  0.00000000000E+00 0.  1.
</event>
<event>
 7    1  0.2604986E-013  0.7246161E+02  0.7816164E-02  0.1226708E+00
        -11   -1    0    0    0    0  0.00000000000E+00  0.00000000000E+00  0.45593999997E+02  0.45594000000E+02  0.51100000000E-03 0.  1.
         11   -1    0    0    0    0 -0.00000000000E+00 -0.00000000000E+00 -0.45593999997E+02  0.45594000000E+02  0.51100000000E-03 0. -1.
    9900012    2    1    2    0    0 -0.74732796252E+01 -0.14053272060E+02 -0.98657707634E+01  0.72461606949E+02  0.70000047750E+02 0.  0.
        -12    1    1    2    0    0  0.74732796252E+01  0.14053272060E+02  0.98657707634E+01  0.18726393051E+02  0.00000000000E+00 0.  1.
         11    1    3    3    0    0 -0.84076481361E+01 -0.24159365058E+02 -0.19266617342E+01  0.25652982144E+02  0.51100000000E-03 0. -1.
        -11    1    3    3    0    0 -0.18090768705E+02  0.14752047898E+02 -0.12811142756E+02  0.26627508492E+02  0.51100000000E-03 0.  1.
         12    1    3    3    0    0  0.19025137216E+02 -0.46459549002E+01  0.48720337268E+01  0.20181116313E+02  0.00000000000E+00 0. -1.
</event>
<event>
 7    1  0.2604986E-013  0.7246159E+02  0.7816164E-02  0.1226708E+00
        -11   -1    0    0    0    0  0.00000000000E+00  0.00000000000E+00  0.45593999997E+02  0.45594000000E+02  0.51100000000E-03 0.  1.
         11   -1    0    0    0    0 -0.00000000000E+00 -0.00000000000E+00 -0.45593999997E+02  0.45594000000E+02  0.51100000000E-03 0. -1.
    9900012    2    1    2    0    0 -0.46994966913E+01 -0.18289419262E+01 -0.18034633475E+02  0.72461593449E+02  0.70000030164E+02 0.  0.
        -12    1    1    2    0    0  0.46994966913E+01  0.18289419262E+01  0.18034633475E+02  0.18726406551E+02  0.00000000000E+00 0.  1.
         11    1    3    3    0    0 -0.61758441333E+01  0.11504066495E+02  0.92200324810E+01  0.15984167038E+02  0.51100000000E-03 0. -1.
        -11    1    3    3    0    0  0.19429375010E+02 -0.26640258905E+01  0.28718209702E+01  0.19820317939E+02  0.51100000000E-03 0.  1.
         12    1    3    3    0    0 -0.17953027568E+02 -0.10668982531E+02 -0.30126486926E+02  0.36657108473E+02  0.00000000000E+00 0. -1.
</event>
<event>
 7    1  0.2604986E-013  0.7246105E+02  0.7816164E-02  0.1226709E+00
        -11   -1    0    0    0    0  0.00000000000E+00  0.00000000000E+00  0.45593999997E+02  0.45594000000E+02  0.51100000000E-03 0. -1.
         11   -1    0    0    0    0 -0.00000000000E+00 -0.00000000000E+00 -0.45593999997E+02  0.45594000000E+02  0.51100000000E-03 0.  1.
    9900012    2    1    2    0    0  0.98744326644E+00 -0.16046686246E+02 -0.96035119424E+01  0.72461050827E+02  0.69999323294E+02 0.  0.
        -12    1    1    2    0    0 -0.98744326644E+00  0.16046686246E+02  0.96035119424E+01  0.18726949173E+02  0.00000000000E+00 0.  1.
         11    1    3    3    0    0  0.19028446089E+02 -0.13261944908E+01 -0.63860075514E+00  0.19085291813E+02  0.51100000000E-03 0. -1.
        -11    1    3    3    0    0 -0.37265701381E+01  0.17207601425E+02 -0.22919092732E+01  0.17755047738E+02  0.51100000000E-03 0.  1.
        -12    1    3    3    0    0 -0.14314432685E+02 -0.31928093181E+02 -0.66730019141E+01  0.35620711276E+02  0.00000000000E+00 0.  1.
</event>
<event>
 7    1  0.2604986E-013  0.7246159E+02  0.7816164E-02  0.1226708E+00
        -11   -1    0    0    0    0  0.00000000000E+00  0.00000000000E+00  0.45593999997E+02  0.45594000000E+02  0.51100000000E-03 0.  1.
         11   -1    0    0    0    0 -0.00000000000E+00 -0.00000000000E+00 -0.45593999997E+02  0.45594000000E+02  0.51100000000E-03 0. -1.
    9900012    2    1    2    0    0  0.15646617492E+02 -0.10288853421E+02 -0.34273671908E-01  0.72461593021E+02  0.70000029605E+02 0.  0.
        -12    1    1    2    0    0 -0.15646617492E+02  0.10288853421E+02  0.34273671908E-01  0.18726406979E+02  0.00000000000E+00 0.  1.
         11    1    3    3    0    0  0.14330453324E+02 -0.90114177529E+01  0.31417527426E+02  0.35687933146E+02  0.51100000000E-03 0. -1.
        -11    1    3    3    0    0  0.80545668874E+01 -0.31673236317E+01 -0.64040930585E+01  0.10766633406E+02  0.51100000000E-03 0.  1.
        -12    1    3    3    0    0 -0.67384027188E+01  0.18898879632E+01 -0.25047708040E+02  0.26007026469E+02  0.00000000000E+00 0.  1.
</event>
<event>
 7    1  0.2604986E-013  0.7246151E+02  0.7816164E-02  0.1226708E+00
        -11   -1    0    0    0    0  0.00000000000E+00  0.00000000000E+00  0.45593999997E+02  0.45594000000E+02  0.51100000000E-03 0.  1.
         11   -1    0    0    0    0 -0.00000000000E+00 -0.00000000000E+00 -0.45593999997E+02  0.45594000000E+02  0.51100000000E-03 0. -1.
    9900012    2    1    2    0    0 -0.13146746406E+02  0.13138992109E+02 -0.22828177532E+01  0.72461513100E+02  0.69999925493E+02 0.  0.
        -12    1    1    2    0    0  0.13146746406E+02 -0.13138992109E+02  0.22828177532E+01  0.18726486900E+02  0.00000000000E+00 0.  1.
         11    1    3    3    0    0 -0.16894779327E+02  0.94556842182E+01  0.91770322925E+01  0.21425719463E+02  0.51100000000E-03 0. -1.
        -11    1    3    3    0    0 -0.14458010260E+02 -0.16587342395E+02 -0.86572571984E+01  0.23645762641E+02  0.51100000000E-03 0.  1.
         12    1    3    3    0    0  0.18206043180E+02  0.20270650286E+02 -0.28025928473E+01  0.27390030996E+02  0.00000000000E+00 0. -1.
</event>
<event>
 7    1  0.2604986E-013  0.7246158E+02  0.7816164E-02  0.1226708E+00
        -11   -1    0    0    0    0  0.00000000000E+00  0.00000000000E+00  0.45593999997E+02  0.45594000000E+02  0.51100000000E-03 0. -1.
         11   -1    0    0    0    0 -0.00000000000E+00 -0.00000000000E+00 -0.45593999997E+02  0.45594000000E+02  0.51100000000E-03 0.  1.
    9900012    2    1    2    0    0  0.16815756358E+02  0.43900714823E+01  0.69739759443E+01  0.72461582030E+02  0.70000015288E+02 0.  0.
        -12    1    1    2    0    0 -0.16815756358E+02 -0.43900714823E+01 -0.69739759443E+01  0.18726417970E+02  0.00000000000E+00 0.  1.
         11    1    3    3    0    0  0.95469538439E+01  0.39086234465E+01  0.14831939716E+02  0.18066767861E+02  0.51100000000E-03 0. -1.
        -11    1    3    3    0    0 -0.19815167980E+02  0.99710844342E+01 -0.12284813990E+02  0.25357051522E+02  0.51100000000E-03 0.  1.
         12    1    3    3    0    0  0.27083970494E+02 -0.94896363984E+01  0.44268502180E+01  0.29037762647E+02  0.00000000000E+00 0. -1.
</event>
<event>
 7    1  0.2604986E-013  0.7246145E+02  0.7816164E-02  0.1226708E+00
        -11   -1    0    0    0    0  0.00000000000E+00  0.00000000000E+00  0.45593999997E+02  0.45594000000E+02  0.51100000000E-03 0.  1.
         11   -1    0    0    0    0 -0.00000000000E+00 -0.00000000000E+00 -0.45593999997E+02  0.45594000000E+02  0.51100000000E-03 0. -1.
    9900012    2    1    2    0    0  0.38135693227E+01  0.28317293091E+01 -0.18114125871E+02  0.72461453123E+02  0.69999847362E+02 0.  0.
        -12    1    1    2    0    0 -0.38135693227E+01 -0.28317293091E+01  0.18114125871E+02  0.18726546877E+02  0.00000000000E+00 0.  1.
         11    1    3    3    0    0  0.38134159881E+01 -0.78359822949E+01  0.14896098417E+01  0.88410235700E+01  0.51100000000E-03 0. -1.
        -11    1    3    3    0    0 -0.19986100375E+02 -0.16598714724E+02 -0.36394214227E+01  0.26233698314E+02  0.51100000000E-03 0.  1.
         12    1    3    3    0    0  0.19986253709E+02  0.27266426328E+02 -0.15964314290E+02  0.37386731239E+02  0.00000000000E+00 0. -1.
</event>
<event>
 7    1  0.2604986E-013  0.7246157E+02  0.7816164E-02  0.1226708E+00
        -11   -1    0    0    0    0  0.00000000000E+00  0.00000000000E+00  0.45593999997E+02  0.45594000000E+02  0.51100000000E-03 0.  1.
         11   -1    0    0    0    0 -0.00000000000E+00 -0.00000000000E+00 -0.45593999997E+02  0.45594000000E+02  0.51100000000E-03 0. -1.
    9900012    2    1    2    0    0 -0.17480620645E+02 -0.64399097221E+01 -0.19064675579E+01  0.72461570711E+02  0.70000000543E+02 0.  0.
        -12    1    1    2    0    0  0.17480620645E+02  0.64399097221E+01  0.19064675579E+01  0.18726429289E+02  0.00000000000E+00 0.  1.
         11    1    3    3    0    0 -0.24490484061E+00  0.92563010223E+01 -0.15693485817E+02  0.18221541766E+02  0.51100000000E-03 0. -1.
        -11    1    3    3    0    0 -0.29975571065E+02 -0.13731897741E+02 -0.29630896410E+01  0.33104074926E+02  0.51100000000E-03 0.  1.
         12    1    3    3    0    0  0.12739855261E+02 -0.19643130038E+01  0.16750107900E+02  0.21135954019E+02  0.00000000000E+00 0. -1.
</event>
<event>
 7    1  0.2604986E-013  0.7246159E+02  0.7816164E-02  0.1226708E+00
        -11   -1    0    0    0    0  0.00000000000E+00  0.00000000000E+00  0.45593999997E+02  0.45594000000E+02  0.51100000000E-03 0.  1.
         11   -1    0    0    0    0 -0.00000000000E+00 -0.00000000000E+00 -0.45593999997E+02  0.45594000000E+02  0.51100000000E-03 0. -1.
    9900012    2    1    2    0    0  0.12400230900E+02 -0.13295946159E+02 -0.44867105178E+01  0.72461588654E+02  0.70000023917E+02 0.  0.
        -12    1    1    2    0    0 -0.12400230900E+02  0.13295946159E+02  0.44867105178E+01  0.18726411346E+02  0.00000000000E+00 0.  1.
         11    1    3    3    0    0 -0.24993675809E+01 -0.82680465842E+01 -0.11561908109E+02  0.14432087583E+02  0.51100000000E-03 0. -1.
        -11    1    3    3    0    0  0.16431698340E+02 -0.27806682023E+02  0.12381577609E+02  0.34590688629E+02  0.51100000000E-03 0.  1.
        -12    1    3    3    0    0 -0.15320998584E+01  0.22778782448E+02 -0.53063800178E+01  0.23438812442E+02  0.00000000000E+00 0.  1.
</event>
<event>
 7    1  0.2604986E-013  0.7246168E+02  0.7816164E-02  0.1226708E+00
        -11   -1    0    0    0    0  0.00000000000E+00  0.00000000000E+00  0.45593999997E+02  0.45594000000E+02  0.51100000000E-03 0. -1.
         11   -1    0    0    0    0 -0.00000000000E+00 -0.00000000000E+00 -0.45593999997E+02  0.45594000000E+02  0.51100000000E-03 0.  1.
    9900012    2    1    2    0    0  0.15189966368E+02  0.74447479640E+01  0.80321600436E+01  0.72461683078E+02  0.70000146922E+02 0.  0.
        -12    1    1    2    0    0 -0.15189966368E+02 -0.74447479640E+01 -0.80321600436E+01  0.18726316922E+02  0.00000000000E+00 0.  1.
         11    1    3    3    0    0  0.25315443519E+02 -0.13684229323E+02 -0.79158027698E+00  0.28788129712E+02  0.51100000000E-03 0. -1.
        -11    1    3    3    0    0  0.13200077792E+02  0.11531175580E+02  0.43151263528E+01  0.18050772273E+02  0.51100000000E-03 0.  1.
         12    1    3    3    0    0 -0.23325554943E+02  0.95978017067E+01  0.45086139677E+01  0.25622781093E+02  0.00000000000E+00 0. -1.
</event>
<event>
 7    1  0.2604986E-013  0.7246160E+02  0.7816164E-02  0.1226708E+00
        -11   -1    0    0    0    0  0.00000000000E+00  0.00000000000E+00  0.45593999997E+02  0.45594000000E+02  0.51100000000E-03 0.  1.
         11   -1    0    0    0    0 -0.00000000000E+00 -0.00000000000E+00 -0.45593999997E+02  0.45594000000E+02  0.51100000000E-03 0. -1.
    9900012    2    1    2    0    0  0.47306604663E+01 -0.17255077249E+02 -0.55282185917E+01  0.72461600449E+02  0.70000039283E+02 0.  0.
        -12    1    1    2    0    0 -0.47306604663E+01  0.17255077249E+02  0.55282185917E+01  0.18726399551E+02  0.00000000000E+00 0.  1.
         11    1    3    3    0    0  0.43015927107E+01 -0.15549748716E+01 -0.20322865472E+02  0.20831238752E+02  0.51100000000E-03 0. -1.
        -11    1    3    3    0    0 -0.55685168125E+01 -0.22183891633E+02 -0.10257452904E+02  0.25066885882E+02  0.51100000000E-03 0.  1.
        -12    1    3    3    0    0  0.59975845680E+01  0.64837892554E+01  0.25052099785E+02  0.26563475815E+02  0.00000000000E+00 0.  1.
</event>
<event>
 7    1  0.2604986E-013  0.7246154E+02  0.7816164E-02  0.1226708E+00
        -11   -1    0    0    0    0  0.00000000000E+00  0.00000000000E+00  0.45593999997E+02  0.45594000000E+02  0.51100000000E-03 0. -1.
         11   -1    0    0    0    0 -0.00000000000E+00 -0.00000000000E+00 -0.45593999997E+02  0.45594000000E+02  0.51100000000E-03 0.  1.
    9900012    2    1    2    0    0  0.12915186059E+02 -0.36205318047E+00  0.13555338576E+02  0.72461539647E+02  0.69999960076E+02 0.  0.
        -12    1    1    2    0    0 -0.12915186059E+02  0.36205318047E+00 -0.13555338576E+02  0.18726460353E+02  0.00000000000E+00 0.  1.
         11    1    3    3    0    0  0.10238631288E+02 -0.47672548834E+01  0.17792721798E+02  0.21074563792E+02  0.51100000000E-03 0. -1.
        -11    1    3    3    0    0 -0.79602863736E+01 -0.16960554788E+02  0.12244463630E+02  0.22381989807E+02  0.51100000000E-03 0.  1.
         12    1    3    3    0    0  0.10636841145E+02  0.21365756491E+02 -0.16481846852E+02  0.29004986048E+02  0.00000000000E+00 0. -1.
</event>
<event>
 7    1  0.2604986E-013  0.7246157E+02  0.7816164E-02  0.1226708E+00
        -11   -1    0    0    0    0  0.00000000000E+00  0.00000000000E+00  0.45593999997E+02  0.45594000000E+02  0.51100000000E-03 0. -1.
         11   -1    0    0    0    0 -0.00000000000E+00 -0.00000000000E+00 -0.45593999997E+02  0.45594000000E+02  0.51100000000E-03 0.  1.
    9900012    2    1    2    0    0  0.11614584693E+02 -0.12949013839E+02 -0.69356816694E+01  0.72461569021E+02  0.69999998341E+02 0.  0.
        -12    1    1    2    0    0 -0.11614584693E+02  0.12949013839E+02  0.69356816694E+01  0.18726430979E+02  0.00000000000E+00 0.  1.
         11    1    3    3    0    0 -0.51068420368E+01 -0.41540646425E+00  0.20565401735E+01  0.55210285152E+01  0.51100000000E-03 0. -1.
        -11    1    3    3    0    0 -0.18474274564E+02 -0.12583530352E+02 -0.20071884449E+02  0.30042047240E+02  0.51100000000E-03 0.  1.
         12    1    3    3    0    0  0.35195701293E+02  0.49922976757E-01  0.11079662606E+02  0.36898493266E+02  0.00000000000E+00 0. -1.
</event>
<event>
 7    1  0.2604986E-013  0.7246160E+02  0.7816164E-02  0.1226708E+00
        -11   -1    0    0    0    0  0.00000000000E+00  0.00000000000E+00  0.45593999997E+02  0.45594000000E+02  0.51100000000E-03 0.  1.
         11   -1    0    0    0    0 -0.00000000000E+00 -0.00000000000E+00 -0.45593999997E+02  0.45594000000E+02  0.51100000000E-03 0. -1.
    9900012    2    1    2    0    0 -0.29049393506E+01 -0.16575752902E+02 -0.82148595656E+01  0.72461596860E+02  0.70000034606E+02 0.  0.
        -12    1    1    2    0    0  0.29049393506E+01  0.16575752902E+02  0.82148595656E+01  0.18726403140E+02  0.00000000000E+00 0.  1.
         11    1    3    3    0    0 -0.75466929617E+01 -0.87671374185E+01 -0.59680850163E+01  0.13016655185E+02  0.51100000000E-03 0. -1.
        -11    1    3    3    0    0 -0.21537531058E+02 -0.11193151761E+02  0.14414009502E+02  0.28229692889E+02  0.51100000000E-03 0.  1.
         12    1    3    3    0    0  0.26179284669E+02  0.33845362782E+01 -0.16660784051E+02  0.31215248786E+02  0.00000000000E+00 0. -1.
</event>
<event>
 7    1  0.2604986E-013  0.7246151E+02  0.7816164E-02  0.1226708E+00
        -11   -1    0    0    0    0  0.00000000000E+00  0.00000000000E+00  0.45593999997E+02  0.45594000000E+02  0.51100000000E-03 0.  1.
         11   -1    0    0    0    0 -0.00000000000E+00 -0.00000000000E+00 -0.45593999997E+02  0.45594000000E+02  0.51100000000E-03 0. -1.
    9900012    2    1    2    0    0  0.76432723704E+01  0.14859682947E+02 -0.84528968337E+01  0.72461514620E+02  0.69999927474E+02 0.  0.
        -12    1    1    2    0    0 -0.76432723704E+01 -0.14859682947E+02  0.84528968337E+01  0.18726485380E+02  0.00000000000E+00 0.  1.
         11    1    3    3    0    0 -0.14176383943E+02  0.18909080149E+02 -0.12555480492E+02  0.26761226886E+02  0.51100000000E-03 0. -1.
        -11    1    3    3    0    0 -0.61381868528E+01 -0.26307161323E+01 -0.11760517182E+02  0.13524339904E+02  0.51100000000E-03 0.  1.
        -12    1    3    3    0    0  0.27957843167E+02 -0.14186810696E+01  0.15863100840E+02  0.32175947830E+02  0.00000000000E+00 0.  1.
</event>
<event>
 7    1  0.2604986E-013  0.7246129E+02  0.7816164E-02  0.1226709E+00
        -11   -1    0    0    0    0  0.00000000000E+00  0.00000000000E+00  0.45593999997E+02  0.45594000000E+02  0.51100000000E-03 0. -1.
         11   -1    0    0    0    0 -0.00000000000E+00 -0.00000000000E+00 -0.45593999997E+02  0.45594000000E+02  0.51100000000E-03 0.  1.
    9900012    2    1    2    0    0  0.16144928328E+02 -0.92996337548E+01 -0.18835850786E+01  0.72461286689E+02  0.69999630550E+02 0.  0.
        -12    1    1    2    0    0 -0.16144928328E+02  0.92996337548E+01  0.18835850786E+01  0.18726713311E+02  0.00000000000E+00 0.  1.
         11    1    3    3    0    0  0.43284987076E+01  0.11992027077E+02 -0.58374459136E+01  0.14022139264E+02  0.51100000000E-03 0. -1.
        -11    1    3    3    0    0 -0.20686662469E+02 -0.13930546974E+02  0.27519408996E+01  0.25091259874E+02  0.51100000000E-03 0.  1.
         12    1    3    3    0    0  0.32503092089E+02 -0.73611138580E+01  0.12019199354E+01  0.33347887551E+02  0.00000000000E+00 0. -1.
</event>
<event>
 7    1  0.2604986E-013  0.7246151E+02  0.7816164E-02  0.1226708E+00
        -11   -1    0    0    0    0  0.00000000000E+00  0.00000000000E+00  0.45593999997E+02  0.45594000000E+02  0.51100000000E-03 0.  1.
         11   -1    0    0    0    0 -0.00000000000E+00 -0.00000000000E+00 -0.45593999997E+02  0.45594000000E+02  0.51100000000E-03 0. -1.
    9900012    2    1    2    0    0 -0.14657897415E+02 -0.36123728171E+01 -0.11080528049E+02  0.72461513521E+02  0.69999926042E+02 0.  0.
        -12    1    1    2    0    0  0.14657897415E+02  0.36123728171E+01  0.11080528049E+02  0.18726486479E+02  0.00000000000E+00 0.  1.
         11    1    3    3    0    0  0.65260453743E+00 -0.83160360985E+01 -0.25192162584E+02  0.26537283301E+02  0.51100000000E-03 0. -1.
        -11    1    3    3    0    0 -0.24588258099E+02  0.11118462508E+02 -0.10754760623E+01  0.27006652771E+02  0.51100000000E-03 0.  1.
        -12    1    3    3    0    0  0.92777561466E+01 -0.64147992262E+01  0.15187110597E+02  0.18917577449E+02  0.00000000000E+00 0.  1.
</event>
<event>
 7    1  0.2604986E-013  0.7246160E+02  0.7816164E-02  0.1226708E+00
        -11   -1    0    0    0    0  0.00000000000E+00  0.00000000000E+00  0.45593999997E+02  0.45594000000E+02  0.51100000000E-03 0. -1.
         11   -1    0    0    0    0 -0.00000000000E+00 -0.00000000000E+00 -0.45593999997E+02  0.45594000000E+02  0.51100000000E-03 0.  1.
    9900012    2    1    2    0    0  0.10680531968E+02 -0.88658952543E+01  0.12569813240E+02  0.72461599741E+02  0.70000038360E+02 0.  0.
        -12    1    1    2    0    0 -0.10680531968E+02  0.88658952543E+01 -0.12569813240E+02  0.18726400259E+02  0.00000000000E+00 0.  1.
         11    1    3    3    0    0  0.16141340292E+02  0.55095016243E+00  0.65130421772E+01  0.17414537926E+02  0.51100000000E-03 0. -1.
        -11    1    3    3    0    0 -0.46058912940E+01  0.12952999848E+02  0.23120574121E+02  0.26898984881E+02  0.51100000000E-03 0.  1.
         12    1    3    3    0    0 -0.85491702934E+00 -0.22369845264E+02 -0.17063803059E+02  0.28148076934E+02  0.00000000000E+00 0. -1.
</event>
<event>
 7    1  0.2604986E-013  0.7246236E+02  0.7816164E-02  0.1226706E+00
        -11   -1    0    0    0    0  0.00000000000E+00  0.00000000000E+00  0.45593999997E+02  0.45594000000E+02  0.51100000000E-03 0.  1.
         11   -1    0    0    0    0 -0.00000000000E+00 -0.00000000000E+00 -0.45593999997E+02  0.45594000000E+02  0.51100000000E-03 0. -1.
    9900012    2    1    2    0    0  0.16383294682E+02 -0.59413907532E+01 -0.68510562233E+01  0.72462364094E+02  0.70001034063E+02 0.  0.
        -12    1    1    2    0    0 -0.16383294682E+02  0.59413907532E+01  0.68510562233E+01  0.18725635906E+02  0.00000000000E+00 0.  1.
         11    1    3    3    0    0 -0.54207946088E+01  0.22794212511E+01 -0.15582753901E+01  0.60835021068E+01  0.51100000000E-03 0. -1.
        -11    1    3    3    0    0 -0.28434991190E+01 -0.13722865123E+01  0.25869494766E+02  0.26061454625E+02  0.51100000000E-03 0.  1.
         12    1    3    3    0    0  0.24647588410E+02 -0.68485254920E+01 -0.31162275599E+02  0.40317407361E+02  0.00000000000E+00 0. -1.
</event>
<event>
 7    1  0.2604986E-013  0.7246156E+02  0.7816164E-02  0.1226708E+00
        -11   -1    0    0    0    0  0.00000000000E+00  0.00000000000E+00  0.45593999997E+02  0.45594000000E+02  0.51100000000E-03 0. -1.
         11   -1    0    0    0    0 -0.00000000000E+00 -0.00000000000E+00 -0.45593999997E+02  0.45594000000E+02  0.51100000000E-03 0.  1.
    9900012    2    1    2    0    0  0.66555365958E+01  0.20767011820E+01  0.17380177461E+02  0.72461563506E+02  0.69999991157E+02 0.  0.
        -12    1    1    2    0    0 -0.66555365958E+01 -0.20767011820E+01 -0.17380177461E+02  0.18726436494E+02  0.00000000000E+00 0.  1.
         11    1    3    3    0    0  0.10919079645E+01  0.82262098484E+01 -0.30824295716E+01  0.88523535739E+01  0.51100000000E-03 0. -1.
        -11    1    3    3    0    0 -0.14107879804E+02 -0.97185218941E+01 -0.15084269726E+02  0.22825799741E+02  0.51100000000E-03 0.  1.
         12    1    3    3    0    0  0.19671508435E+02  0.35690132278E+01  0.35546876759E+02  0.40783410192E+02  0.00000000000E+00 0. -1.
</event>
<event>
 7    1  0.2604986E-013  0.7246159E+02  0.7816164E-02  0.1226708E+00
        -11   -1    0    0    0    0  0.00000000000E+00  0.00000000000E+00  0.45593999997E+02  0.45594000000E+02  0.51100000000E-03 0. -1.
         11   -1    0    0    0    0 -0.00000000000E+00 -0.00000000000E+00 -0.45593999997E+02  0.45594000000E+02  0.51100000000E-03 0.  1.
    9900012    2    1    2    0    0 -0.24540901541E+01  0.14827988159E+02  0.11170791393E+02  0.72461591597E+02  0.70000027750E+02 0.  0.
        -12    1    1    2    0    0  0.24540901541E+01 -0.14827988159E+02 -0.11170791393E+02  0.18726408403E+02  0.00000000000E+00 0.  1.
         11    1    3    3    0    0  0.30273723975E+01  0.11675049711E+02  0.16664802307E+02  0.20571519282E+02  0.51100000000E-03 0. -1.
        -11    1    3    3    0    0 -0.27810491435E+02  0.13080205443E+00  0.26363991195E+01  0.27935481804E+02  0.51100000000E-03 0.  1.
         12    1    3    3    0    0  0.22329028883E+02  0.30221363943E+01 -0.81304100329E+01  0.23954590511E+02  0.00000000000E+00 0. -1.
</event>
<event>
 7    1  0.2604986E-013  0.7246157E+02  0.7816164E-02  0.1226708E+00
        -11   -1    0    0    0    0  0.00000000000E+00  0.00000000000E+00  0.45593999997E+02  0.45594000000E+02  0.51100000000E-03 0.  1.
         11   -1    0    0    0    0 -0.00000000000E+00 -0.00000000000E+00 -0.45593999997E+02  0.45594000000E+02  0.51100000000E-03 0. -1.
    9900012    2    1    2    0    0 -0.51348885299E+01  0.96461287810E+01 -0.15207381692E+02  0.72461565780E+02  0.69999994119E+02 0.  0.
        -12    1    1    2    0    0  0.51348885299E+01 -0.96461287810E+01  0.15207381692E+02  0.18726434220E+02  0.00000000000E+00 0.  1.
         11    1    3    3    0    0  0.48821650945E+01  0.25682659159E+02  0.82986146580E+01  0.27428115556E+02  0.51100000000E-03 0.  1.
        -11    1    3    3    0    0  0.52545569139E+01 -0.32237016357E+01  0.65325508463E+01  0.89820288030E+01  0.51100000000E-03 0. -1.
         12    1    3    3    0    0 -0.15271610538E+02 -0.12812828742E+02 -0.30038547196E+02  0.36051421421E+02  0.00000000000E+00 0. -1.
</event>
<event>
 7    1  0.2604986E-013  0.7246163E+02  0.7816164E-02  0.1226708E+00
        -11   -1    0    0    0    0  0.00000000000E+00  0.00000000000E+00  0.45593999997E+02  0.45594000000E+02  0.51100000000E-03 0.  1.
         11   -1    0    0    0    0 -0.00000000000E+00 -0.00000000000E+00 -0.45593999997E+02  0.45594000000E+02  0.51100000000E-03 0. -1.
    9900012    2    1    2    0    0 -0.56007858353E+01 -0.15920232057E+01 -0.17798139632E+02  0.72461625172E+02  0.70000071488E+02 0.  0.
        -12    1    1    2    0    0  0.56007858353E+01  0.15920232057E+01  0.17798139632E+02  0.18726374828E+02  0.00000000000E+00 0.  1.
         11    1    3    3    0    0 -0.15320232568E+01  0.20010025039E+02 -0.18927609495E+02  0.27586275552E+02  0.51100000000E-03 0. -1.
        -11    1    3    3    0    0 -0.15186317158E+02 -0.11297451247E+02 -0.13935162400E+02  0.23504156758E+02  0.51100000000E-03 0.  1.
        -12    1    3    3    0    0  0.11117554580E+02 -0.10304596998E+02  0.15064632264E+02  0.21371192863E+02  0.00000000000E+00 0.  1.
</event>
<event>
 7    1  0.2604986E-013  0.7246156E+02  0.7816164E-02  0.1226708E+00
        -11   -1    0    0    0    0  0.00000000000E+00  0.00000000000E+00  0.45593999997E+02  0.45594000000E+02  0.51100000000E-03 0.  1.
         11   -1    0    0    0    0 -0.00000000000E+00 -0.00000000000E+00 -0.45593999997E+02  0.45594000000E+02  0.51100000000E-03 0. -1.
    9900012    2    1    2    0    0 -0.54336653994E+01 -0.84426506826E+01 -0.15807476066E+02  0.72461564947E+02  0.69999993034E+02 0.  0.
        -12    1    1    2    0    0  0.54336653994E+01  0.84426506826E+01  0.15807476066E+02  0.18726435053E+02  0.00000000000E+00 0.  1.
         11    1    3    3    0    0 -0.43694279301E+01 -0.24648579673E+02 -0.23773851395E+02  0.34523041447E+02  0.51100000000E-03 0. -1.
        -11    1    3    3    0    0 -0.79517484714E+01  0.44648563162E+01 -0.11191853718E+02  0.14436856845E+02  0.51100000000E-03 0.  1.
        -12    1    3    3    0    0  0.68875110022E+01  0.11741072674E+02  0.19158229046E+02  0.23501666654E+02  0.00000000000E+00 0.  1.
</event>
<event>
 7    1  0.2604986E-013  0.7246157E+02  0.7816164E-02  0.1226708E+00
        -11   -1    0    0    0    0  0.00000000000E+00  0.00000000000E+00  0.45593999997E+02  0.45594000000E+02  0.51100000000E-03 0. -1.
         11   -1    0    0    0    0 -0.00000000000E+00 -0.00000000000E+00 -0.45593999997E+02  0.45594000000E+02  0.51100000000E-03 0.  1.
    9900012    2    1    2    0    0  0.17518282375E+02  0.51825124460E+01  0.41146937845E+01  0.72461565274E+02  0.69999993460E+02 0.  0.
        -12    1    1    2    0    0 -0.17518282375E+02 -0.51825124460E+01 -0.41146937845E+01  0.18726434726E+02  0.00000000000E+00 0.  1.
         11    1    3    3    0    0  0.11041294372E+02 -0.13230252038E+02 -0.74304329925E+01  0.18765955481E+02  0.51100000000E-03 0. -1.
        -11    1    3    3    0    0  0.83595523802E+01 -0.90629911042E+01 -0.12190383842E+02  0.17338551907E+02  0.51100000000E-03 0.  1.
         12    1    3    3    0    0 -0.18825643776E+01  0.27475755588E+02  0.23735510619E+02  0.36357057886E+02  0.00000000000E+00 0. -1.
</event>
<event>
 7    1  0.2604986E-013  0.7246162E+02  0.7816164E-02  0.1226708E+00
        -11   -1    0    0    0    0  0.00000000000E+00  0.00000000000E+00  0.45593999997E+02  0.45594000000E+02  0.51100000000E-03 0. -1.
         11   -1    0    0    0    0 -0.00000000000E+00 -0.00000000000E+00 -0.45593999997E+02  0.45594000000E+02  0.51100000000E-03 0.  1.
    9900012    2    1    2    0    0 -0.72298963427E+01 -0.99910430372E+01 -0.14092015039E+02  0.72461622081E+02  0.70000067462E+02 0.  0.
        -12    1    1    2    0    0  0.72298963427E+01  0.99910430372E+01  0.14092015039E+02  0.18726377919E+02  0.00000000000E+00 0.  1.
         11    1    3    3    0    0  0.11009725672E+02  0.15646190136E+02 -0.70089358882E+01  0.20375046201E+02  0.51100000000E-03 0. -1.
        -11    1    3    3    0    0  0.44028761135E+01 -0.94508257094E+01 -0.19107638347E+02  0.21767068432E+02  0.51100000000E-03 0.  1.
         12    1    3    3    0    0 -0.22642498129E+02 -0.16186407464E+02  0.12024559196E+02  0.30319507449E+02  0.00000000000E+00 0. -1.
</event>
<event>
 7    1  0.2604986E-013  0.7246159E+02  0.7816164E-02  0.1226708E+00
        -11   -1    0    0    0    0  0.00000000000E+00  0.00000000000E+00  0.45593999997E+02  0.45594000000E+02  0.51100000000E-03 0.  1.
         11   -1    0    0    0    0 -0.00000000000E+00 -0.00000000000E+00 -0.45593999997E+02  0.45594000000E+02  0.51100000000E-03 0. -1.
    9900012    2    1    2    0    0  0.24664811115E+01  0.10613991309E+01 -0.18532902082E+02  0.72461586654E+02  0.70000021312E+02 0.  0.
        -12    1    1    2    0    0 -0.24664811115E+01 -0.10613991309E+01  0.18532902082E+02  0.18726413346E+02  0.00000000000E+00 0.  1.
         11    1    3    3    0    0 -0.47808193560E+01  0.96618993941E+01 -0.80609269968E+01  0.13460574948E+02  0.51100000000E-03 0. -1.
        -11    1    3    3    0    0 -0.12362956602E+02  0.18174376752E+02 -0.13302138053E+02  0.25692363521E+02  0.51100000000E-03 0.  1.
        -12    1    3    3    0    0  0.19610257070E+02 -0.26774877015E+02  0.28301629672E+01  0.33308648185E+02  0.00000000000E+00 0.  1.
</event>
<event>
 7    1  0.2604986E-013  0.7246163E+02  0.7816164E-02  0.1226708E+00
        -11   -1    0    0    0    0  0.00000000000E+00  0.00000000000E+00  0.45593999997E+02  0.45594000000E+02  0.51100000000E-03 0. -1.
         11   -1    0    0    0    0 -0.00000000000E+00 -0.00000000000E+00 -0.45593999997E+02  0.45594000000E+02  0.51100000000E-03 0.  1.
    9900012    2    1    2    0    0  0.81829275285E+01 -0.85821611948E+01  0.14493560587E+02  0.72461625759E+02  0.70000072253E+02 0.  0.
        -12    1    1    2    0    0 -0.81829275285E+01  0.85821611948E+01 -0.14493560587E+02  0.18726374241E+02  0.00000000000E+00 0.  1.
         11    1    3    3    0    0 -0.12851697671E+02 -0.19715556748E+02  0.12218412234E+02  0.26517143675E+02  0.51100000000E-03 0. -1.
        -11    1    3    3    0    0  0.24416663560E+02 -0.59210440424E+01 -0.72106848693E+01  0.26138595955E+02  0.51100000000E-03 0.  1.
        -12    1    3    3    0    0 -0.33820383607E+01  0.17054439596E+02  0.94858332227E+01  0.19805886128E+02  0.00000000000E+00 0.  1.
</event>
<event>
 7    1  0.2604986E-013  0.7246162E+02  0.7816164E-02  0.1226708E+00
        -11   -1    0    0    0    0  0.00000000000E+00  0.00000000000E+00  0.45593999997E+02  0.45594000000E+02  0.51100000000E-03 0.  1.
         11   -1    0    0    0    0 -0.00000000000E+00 -0.00000000000E+00 -0.45593999997E+02  0.45594000000E+02  0.51100000000E-03 0. -1.
    9900012    2    1    2    0    0  0.16550174069E+02 -0.50472542477E+01  0.71619997086E+01  0.72461620825E+02  0.70000065826E+02 0.  0.
        -12    1    1    2    0    0 -0.16550174069E+02  0.50472542477E+01 -0.71619997086E+01  0.18726379175E+02  0.00000000000E+00 0.  1.
         11    1    3    3    0    0  0.16957186399E+02  0.16542505771E+02  0.87652112800E+01  0.25259247748E+02  0.51100000000E-03 0. -1.
        -11    1    3    3    0    0 -0.76893907823E+01  0.10677207029E+02  0.37767748758E+01  0.13689174893E+02  0.51100000000E-03 0.  1.
         12    1    3    3    0    0  0.72823784523E+01 -0.32266967047E+02 -0.53799864472E+01  0.33513198184E+02  0.00000000000E+00 0. -1.
</event>
<event>
 7    1  0.2604986E-013  0.7246157E+02  0.7816164E-02  0.1226708E+00
        -11   -1    0    0    0    0  0.00000000000E+00  0.00000000000E+00  0.45593999997E+02  0.45594000000E+02  0.51100000000E-03 0. -1.
         11   -1    0    0    0    0 -0.00000000000E+00 -0.00000000000E+00 -0.45593999997E+02  0.45594000000E+02  0.51100000000E-03 0.  1.
    9900012    2    1    2    0    0 -0.10499570590E+02 -0.80947893310E+01  0.13225447696E+02  0.72461573121E+02  0.70000003682E+02 0.  0.
        -12    1    1    2    0    0  0.10499570590E+02  0.80947893310E+01 -0.13225447696E+02  0.18726426879E+02  0.00000000000E+00 0.  1.
         11    1    3    3    0    0 -0.17774136366E+02  0.60017243253E+01  0.12551736812E+02  0.22571812414E+02  0.51100000000E-03 0. -1.
        -11    1    3    3    0    0 -0.62150727763E+01  0.46452298368E+01 -0.18380871337E+02  0.19951484186E+02  0.51100000000E-03 0.  1.
        -12    1    3    3    0    0  0.13489638551E+02 -0.18741743493E+02  0.19054582221E+02  0.29938276521E+02  0.00000000000E+00 0.  1.
</event>
<event>
 7    1  0.2604986E-013  0.7246157E+02  0.7816164E-02  0.1226708E+00
        -11   -1    0    0    0    0  0.00000000000E+00  0.00000000000E+00  0.45593999997E+02  0.45594000000E+02  0.51100000000E-03 0.  1.
         11   -1    0    0    0    0 -0.00000000000E+00 -0.00000000000E+00 -0.45593999997E+02  0.45594000000E+02  0.51100000000E-03 0. -1.
    9900012    2    1    2    0    0  0.24777821982E+01 -0.25288309300E+00 -0.18560062858E+02  0.72461567137E+02  0.69999995887E+02 0.  0.
        -12    1    1    2    0    0 -0.24777821982E+01  0.25288309300E+00  0.18560062858E+02  0.18726432863E+02  0.00000000000E+00 0.  1.
         11    1    3    3    0    0 -0.12093583226E+02 -0.29145921514E+02 -0.43622785146E+01  0.31855438629E+02  0.51100000000E-03 0. -1.
        -11    1    3    3    0    0  0.75117910921E-01  0.19210149149E+00  0.37677965197E+01  0.37734382940E+01  0.51100000000E-03 0.  1.
        -12    1    3    3    0    0  0.14496247513E+02  0.28700936930E+02 -0.17965580863E+02  0.36832690214E+02  0.00000000000E+00 0.  1.
</event>
<event>
 7    1  0.2604986E-013  0.7246157E+02  0.7816164E-02  0.1226708E+00
        -11   -1    0    0    0    0  0.00000000000E+00  0.00000000000E+00  0.45593999997E+02  0.45594000000E+02  0.51100000000E-03 0. -1.
         11   -1    0    0    0    0 -0.00000000000E+00 -0.00000000000E+00 -0.45593999997E+02  0.45594000000E+02  0.51100000000E-03 0.  1.
    9900012    2    1    2    0    0 -0.10025180506E+01  0.15121748878E+02  0.11000305980E+02  0.72461573133E+02  0.70000003698E+02 0.  0.
        -12    1    1    2    0    0  0.10025180506E+01 -0.15121748878E+02 -0.11000305980E+02  0.18726426867E+02  0.00000000000E+00 0.  1.
         11    1    3    3    0    0  0.21021848078E+02  0.16002260818E+02 -0.10349528607E+02  0.28374340355E+02  0.51100000000E-03 0. -1.
        -11    1    3    3    0    0 -0.45567988065E+01  0.88869559274E+01 -0.48628444167E+01  0.11108089714E+02  0.51100000000E-03 0.  1.
        -12    1    3    3    0    0 -0.17467567322E+02 -0.97674678679E+01  0.26212679003E+02  0.32979143064E+02  0.00000000000E+00 0.  1.
</event>
<event>
 7    1  0.2604986E-013  0.7246171E+02  0.7816164E-02  0.1226708E+00
        -11   -1    0    0    0    0  0.00000000000E+00  0.00000000000E+00  0.45593999997E+02  0.45594000000E+02  0.51100000000E-03 0.  1.
         11   -1    0    0    0    0 -0.00000000000E+00 -0.00000000000E+00 -0.45593999997E+02  0.45594000000E+02  0.51100000000E-03 0. -1.
    9900012    2    1    2    0    0  0.14764754289E+02  0.79833416290E+01 -0.83031428259E+01  0.72461711164E+02  0.70000183508E+02 0.  0.
        -12    1    1    2    0    0 -0.14764754289E+02 -0.79833416290E+01  0.83031428259E+01  0.18726288836E+02  0.00000000000E+00 0.  1.
         11    1    3    3    0    0  0.17596609597E+02 -0.10044521717E+02 -0.23477460071E+02  0.31011678727E+02  0.51100000000E-03 0. -1.
        -11    1    3    3    0    0 -0.20866192540E+01 -0.89639064799E+01  0.10642839078E+02  0.14070381061E+02  0.51100000000E-03 0.  1.
        -12    1    3    3    0    0 -0.74523605388E+00  0.26991769826E+02  0.45314781662E+01  0.27379651376E+02  0.00000000000E+00 0.  1.
</event>
<event>
 7    1  0.2604986E-013  0.7246157E+02  0.7816164E-02  0.1226708E+00
        -11   -1    0    0    0    0  0.00000000000E+00  0.00000000000E+00  0.45593999997E+02  0.45594000000E+02  0.51100000000E-03 0. -1.
         11   -1    0    0    0    0 -0.00000000000E+00 -0.00000000000E+00 -0.45593999997E+02  0.45594000000E+02  0.51100000000E-03 0.  1.
    9900012    2    1    2    0    0 -0.17474880921E+02 -0.22555007451E+01 -0.63419656117E+01  0.72461567488E+02  0.69999996344E+02 0.  0.
        -12    1    1    2    0    0  0.17474880921E+02  0.22555007451E+01  0.63419656117E+01  0.18726432512E+02  0.00000000000E+00 0.  1.
         11    1    3    3    0    0 -0.20051341733E+02  0.53450523889E+01  0.10009320637E+02  0.23039366098E+02  0.51100000000E-03 0. -1.
        -11    1    3    3    0    0 -0.51313930726E+01  0.17276862948E+02  0.11250928714E+01  0.18057879787E+02  0.51100000000E-03 0.  1.
         12    1    3    3    0    0  0.77078538848E+01 -0.24877416082E+02 -0.17476379120E+02  0.31364321602E+02  0.00000000000E+00 0. -1.
</event>
<event>
 7    1  0.2604986E-013  0.7246169E+02  0.7816164E-02  0.1226708E+00
        -11   -1    0    0    0    0  0.00000000000E+00  0.00000000000E+00  0.45593999997E+02  0.45594000000E+02  0.51100000000E-03 0.  1.
         11   -1    0    0    0    0 -0.00000000000E+00 -0.00000000000E+00 -0.45593999997E+02  0.45594000000E+02  0.51100000000E-03 0. -1.
    9900012    2    1    2    0    0  0.12188484605E+02  0.13510541978E+02 -0.44250073025E+01  0.72461692539E+02  0.70000159246E+02 0.  0.
        -12    1    1    2    0    0 -0.12188484605E+02 -0.13510541978E+02  0.44250073025E+01  0.18726307461E+02  0.00000000000E+00 0.  1.
         11    1    3    3    0    0 -0.88170275148E+01 -0.86556752911E+01 -0.31211362324E+01  0.12743711413E+02  0.51100000000E-03 0. -1.
        -11    1    3    3    0    0 -0.16118258133E+02  0.14479604780E+02 -0.23376363198E+01  0.21792699321E+02  0.51100000000E-03 0.  1.
        -12    1    3    3    0    0  0.37123770253E+02  0.76866124888E+01  0.10337652497E+01  0.37925281805E+02  0.00000000000E+00 0.  1.
</event>
<event>
 7    1  0.2604986E-013  0.7246158E+02  0.7816164E-02  0.1226708E+00
        -11   -1    0    0    0    0  0.00000000000E+00  0.00000000000E+00  0.45593999997E+02  0.45594000000E+02  0.51100000000E-03 0.  1.
         11   -1    0    0    0    0 -0.00000000000E+00 -0.00000000000E+00 -0.45593999997E+02  0.45594000000E+02  0.51100000000E-03 0. -1.
    9900012    2    1    2    0    0 -0.10534267930E+02 -0.12557654091E+02 -0.90561259306E+01  0.72461577652E+02  0.70000009584E+02 0.  0.
        -12    1    1    2    0    0  0.10534267930E+02  0.12557654091E+02  0.90561259306E+01  0.18726422348E+02  0.00000000000E+00 0.  1.
         11    1    3    3    0    0 -0.16155595406E+02 -0.19014654846E+02 -0.24750729375E+02  0.35144828448E+02  0.51100000000E-03 0. -1.
        -11    1    3    3    0    0  0.76099405960E+01  0.52482166939E+01 -0.87696106515E+01  0.12742097378E+02  0.51100000000E-03 0.  1.
        -12    1    3    3    0    0 -0.19886131206E+01  0.12087840604E+01  0.24464214096E+02  0.24574651826E+02  0.00000000000E+00 0.  1.
</event>
<event>
 7    1  0.2604986E-013  0.7246152E+02  0.7816164E-02  0.1226708E+00
        -11   -1    0    0    0    0  0.00000000000E+00  0.00000000000E+00  0.45593999997E+02  0.45594000000E+02  0.51100000000E-03 0.  1.
         11   -1    0    0    0    0 -0.00000000000E+00 -0.00000000000E+00 -0.45593999997E+02  0.45594000000E+02  0.51100000000E-03 0. -1.
    9900012    2    1    2    0    0 -0.12084260524E+02 -0.12921403500E+01 -0.14247179964E+02  0.72461518323E+02  0.69999932297E+02 0.  0.
        -12    1    1    2    0    0  0.12084260524E+02  0.12921403500E+01  0.14247179964E+02  0.18726481677E+02  0.00000000000E+00 0.  1.
         11    1    3    3    0    0  0.40489849160E+01  0.64603082214E+01 -0.64745015536E+01  0.10002451289E+02  0.51100000000E-03 0. -1.
        -11    1    3    3    0    0 -0.26670643667E+02  0.19095222551E+02 -0.91985431863E+00  0.32814583497E+02  0.51100000000E-03 0.  1.
         12    1    3    3    0    0  0.10537398227E+02 -0.26847671122E+02 -0.68528240918E+01  0.29644483536E+02  0.00000000000E+00 0. -1.
</event>
<event>
 7    1  0.2604986E-013  0.7246156E+02  0.7816164E-02  0.1226708E+00
        -11   -1    0    0    0    0  0.00000000000E+00  0.00000000000E+00  0.45593999997E+02  0.45594000000E+02  0.51100000000E-03 0.  1.
         11   -1    0    0    0    0 -0.00000000000E+00 -0.00000000000E+00 -0.45593999997E+02  0.45594000000E+02  0.51100000000E-03 0. -1.
    9900012    2    1    2    0    0 -0.70095041469E+01 -0.68437484450E+01 -0.15959617889E+02  0.72461562957E+02  0.69999990442E+02 0.  0.
        -12    1    1    2    0    0  0.70095041469E+01  0.68437484450E+01  0.15959617889E+02  0.18726437043E+02  0.00000000000E+00 0.  1.
         11    1    3    3    0    0  0.21902959540E+02  0.14596563052E+02  0.58757571163E+01  0.26968941609E+02  0.51100000000E-03 0. -1.
        -11    1    3    3    0    0  0.21072543290E+01 -0.54047601786E+00  0.12895960175E-01  0.21755003333E+01  0.51100000000E-03 0.  1.
        -12    1    3    3    0    0 -0.31019718016E+02 -0.20899835480E+02 -0.21848270966E+02  0.43317121015E+02  0.00000000000E+00 0.  1.
</event>
<event>
 7    1  0.2604986E-013  0.7246156E+02  0.7816164E-02  0.1226708E+00
        -11   -1    0    0    0    0  0.00000000000E+00  0.00000000000E+00  0.45593999997E+02  0.45594000000E+02  0.51100000000E-03 0. -1.
         11   -1    0    0    0    0 -0.00000000000E+00 -0.00000000000E+00 -0.45593999997E+02  0.45594000000E+02  0.51100000000E-03 0.  1.
    9900012    2    1    2    0    0 -0.17959009402E-01 -0.13045739201E+02  0.13434573363E+02  0.72461564266E+02  0.69999992147E+02 0.  0.
        -12    1    1    2    0    0  0.17959009402E-01  0.13045739201E+02 -0.13434573363E+02  0.18726435734E+02  0.00000000000E+00 0.  1.
         11    1    3    3    0    0  0.22811552406E+02 -0.17384038190E+02  0.25984654929E+02  0.38701085243E+02  0.51100000000E-03 0. -1.
        -11    1    3    3    0    0  0.21697918185E+01 -0.20451706511E+01  0.24994237087E+01  0.38907375476E+01  0.51100000000E-03 0.  1.
        -12    1    3    3    0    0 -0.24999303234E+02  0.63834696397E+01 -0.15049505274E+02  0.29869741476E+02  0.00000000000E+00 0.  1.
</event>
<event>
 7    1  0.2604986E-013  0.7246162E+02  0.7816164E-02  0.1226708E+00
        -11   -1    0    0    0    0  0.00000000000E+00  0.00000000000E+00  0.45593999997E+02  0.45594000000E+02  0.51100000000E-03 0. -1.
         11   -1    0    0    0    0 -0.00000000000E+00 -0.00000000000E+00 -0.45593999997E+02  0.45594000000E+02  0.51100000000E-03 0.  1.
    9900012    2    1    2    0    0  0.16070509269E+02 -0.59731938059E+01  0.75324015366E+01  0.72461617933E+02  0.70000062058E+02 0.  0.
        -12    1    1    2    0    0 -0.16070509269E+02  0.59731938059E+01 -0.75324015366E+01  0.18726382067E+02  0.00000000000E+00 0.  1.
         11    1    3    3    0    0  0.63738484522E+01  0.19322116095E+02  0.14236470852E+02  0.24832382428E+02  0.51100000000E-03 0. -1.
        -11    1    3    3    0    0 -0.14617450238E+02 -0.61314482757E+01 -0.50107631704E+01  0.16624447577E+02  0.51100000000E-03 0.  1.
        -12    1    3    3    0    0  0.24314111055E+02 -0.19163861625E+02 -0.16933061448E+01  0.31004787928E+02  0.00000000000E+00 0.  1.
</event>
<event>
 7    1  0.2604986E-013  0.7246162E+02  0.7816164E-02  0.1226708E+00
        -11   -1    0    0    0    0  0.00000000000E+00  0.00000000000E+00  0.45593999997E+02  0.45594000000E+02  0.51100000000E-03 0. -1.
         11   -1    0    0    0    0 -0.00000000000E+00 -0.00000000000E+00 -0.45593999997E+02  0.45594000000E+02  0.51100000000E-03 0.  1.
    9900012    2    1    2    0    0  0.13840103388E+02 -0.12157705749E+02 -0.33643824477E+01  0.72461619140E+02  0.70000063630E+02 0.  0.
        -12    1    1    2    0    0 -0.13840103388E+02  0.12157705749E+02  0.33643824477E+01  0.18726380860E+02  0.00000000000E+00 0.  1.
         11    1    3    3    0    0  0.93401933837E+01  0.20923951375E+02  0.11951868843E+02  0.25843725016E+02  0.51100000000E-03 0. -1.
        -11    1    3    3    0    0 -0.90961966692E+01 -0.48255221696E+01 -0.10826272145E+02  0.14941038346E+02  0.51100000000E-03 0.  1.
        -12    1    3    3    0    0  0.13596106673E+02 -0.28256134954E+02 -0.44899791461E+01  0.31676855778E+02  0.00000000000E+00 0.  1.
</event>
<event>
 7    1  0.2604986E-013  0.7246145E+02  0.7816164E-02  0.1226708E+00
        -11   -1    0    0    0    0  0.00000000000E+00  0.00000000000E+00  0.45593999997E+02  0.45594000000E+02  0.51100000000E-03 0.  1.
         11   -1    0    0    0    0 -0.00000000000E+00 -0.00000000000E+00 -0.45593999997E+02  0.45594000000E+02  0.51100000000E-03 0. -1.
    9900012    2    1    2    0    0 -0.69055276436E+01 -0.88362849539E+01  0.14997241965E+02  0.72461454393E+02  0.69999849016E+02 0.  0.
        -12    1    1    2    0    0  0.69055276436E+01  0.88362849539E+01 -0.14997241965E+02  0.18726545607E+02  0.00000000000E+00 0.  1.
         11    1    3    3    0    0  0.15229430320E+01 -0.15928269821E+02  0.13205955978E+02  0.20746720428E+02  0.51100000000E-03 0. -1.
        -11    1    3    3    0    0 -0.85942227852E+01 -0.17375146909E+02  0.14439346776E+02  0.24171287325E+02  0.51100000000E-03 0.  1.
         12    1    3    3    0    0  0.16575210963E+00  0.24467131776E+02 -0.12648060788E+02  0.27543446640E+02  0.00000000000E+00 0. -1.
</event>
<event>
 7    1  0.2604986E-013  0.7246163E+02  0.7816164E-02  0.1226708E+00
        -11   -1    0    0    0    0  0.00000000000E+00  0.00000000000E+00  0.45593999997E+02  0.45594000000E+02  0.51100000000E-03 0.  1.
         11   -1    0    0    0    0 -0.00000000000E+00 -0.00000000000E+00 -0.45593999997E+02  0.45594000000E+02  0.51100000000E-03 0. -1.
    9900012    2    1    2    0    0  0.61902024730E+01 -0.17103142710E+02  0.44543194177E+01  0.72461626654E+02  0.70000073419E+02 0.  0.
        -12    1    1    2    0    0 -0.61902024730E+01  0.17103142710E+02 -0.44543194177E+01  0.18726373346E+02  0.00000000000E+00 0.  1.
         11    1    3    3    0    0 -0.50603157951E+01 -0.16272821143E+02 -0.30050924525E+01  0.17304394957E+02  0.51100000000E-03 0. -1.
        -11    1    3    3    0    0  0.43244182118E+01  0.98149824427E+01 -0.21228353463E+02  0.23783974946E+02  0.51100000000E-03 0.  1.
         12    1    3    3    0    0  0.69261000563E+01 -0.10645304009E+02  0.28687765333E+02  0.31373256752E+02  0.00000000000E+00 0. -1.
</event>
<event>
 7    1  0.2604986E-013  0.7246139E+02  0.7816164E-02  0.1226708E+00
        -11   -1    0    0    0    0  0.00000000000E+00  0.00000000000E+00  0.45593999997E+02  0.45594000000E+02  0.51100000000E-03 0. -1.
         11   -1    0    0    0    0 -0.00000000000E+00 -0.00000000000E+00 -0.45593999997E+02  0.45594000000E+02  0.51100000000E-03 0.  1.
    9900012    2    1    2    0    0 -0.43025973244E+01  0.15951856081E+02  0.88154363105E+01  0.72461388627E+02  0.69999763345E+02 0.  0.
        -12    1    1    2    0    0  0.43025973244E+01 -0.15951856081E+02 -0.88154363105E+01  0.18726611373E+02  0.00000000000E+00 0.  1.
         11    1    3    3    0    0  0.10565244517E+02  0.30493618097E+02  0.77104461057E+01  0.33180357379E+02  0.51100000000E-03 0. -1.
        -11    1    3    3    0    0  0.52065388697E+01 -0.14141540288E+01  0.11833423427E+02  0.13005298493E+02  0.51100000000E-03 0.  1.
         12    1    3    3    0    0 -0.20074380711E+02 -0.13127607988E+02 -0.10728433223E+02  0.26275732755E+02  0.00000000000E+00 0. -1.
</event>
<event>
 7    1  0.2604986E-013  0.7246163E+02  0.7816164E-02  0.1226708E+00
        -11   -1    0    0    0    0  0.00000000000E+00  0.00000000000E+00  0.45593999997E+02  0.45594000000E+02  0.51100000000E-03 0. -1.
         11   -1    0    0    0    0 -0.00000000000E+00 -0.00000000000E+00 -0.45593999997E+02  0.45594000000E+02  0.51100000000E-03 0.  1.
    9900012    2    1    2    0    0  0.94688953843E+01  0.11020660662E+01  0.16118382982E+02  0.72461633578E+02  0.70000082439E+02 0.  0.
        -12    1    1    2    0    0 -0.94688953843E+01 -0.11020660662E+01 -0.16118382982E+02  0.18726366422E+02  0.00000000000E+00 0.  1.
         11    1    3    3    0    0 -0.43178621706E+01  0.12467457772E+02  0.39190000251E+02  0.41351391234E+02  0.51100000000E-03 0. -1.
        -11    1    3    3    0    0  0.87288752430E+01 -0.34701356997E+00 -0.91842585979E+01  0.12675341719E+02  0.51100000000E-03 0.  1.
        -12    1    3    3    0    0  0.50578823119E+01 -0.11018378136E+02 -0.13887358671E+02  0.18434900626E+02  0.00000000000E+00 0.  1.
</event>
<event>
 7    1  0.2604986E-013  0.7246155E+02  0.7816164E-02  0.1226708E+00
        -11   -1    0    0    0    0  0.00000000000E+00  0.00000000000E+00  0.45593999997E+02  0.45594000000E+02  0.51100000000E-03 0. -1.
         11   -1    0    0    0    0 -0.00000000000E+00 -0.00000000000E+00 -0.45593999997E+02  0.45594000000E+02  0.51100000000E-03 0.  1.
    9900012    2    1    2    0    0  0.16223807595E+02  0.82224702495E+01  0.44563417303E+01  0.72461549949E+02  0.69999973497E+02 0.  0.
        -12    1    1    2    0    0 -0.16223807595E+02 -0.82224702495E+01 -0.44563417303E+01  0.18726450051E+02  0.00000000000E+00 0.  1.
         11    1    3    3    0    0  0.98971270745E+01  0.20171685404E+02  0.29641237384E+02  0.37194797624E+02  0.51100000000E-03 0. -1.
        -11    1    3    3    0    0 -0.13077351600E+01 -0.82464296712E+01  0.35223453969E+00  0.83569039125E+01  0.51100000000E-03 0.  1.
        -12    1    3    3    0    0  0.76344156803E+01 -0.37027854834E+01 -0.25537130193E+02  0.26909848413E+02  0.00000000000E+00 0.  1.
</event>
<event>
 7    1  0.2604986E-013  0.7246155E+02  0.7816164E-02  0.1226708E+00
        -11   -1    0    0    0    0  0.00000000000E+00  0.00000000000E+00  0.45593999997E+02  0.45594000000E+02  0.51100000000E-03 0.  1.
         11   -1    0    0    0    0 -0.00000000000E+00 -0.00000000000E+00 -0.45593999997E+02  0.45594000000E+02  0.51100000000E-03 0. -1.
    9900012    2    1    2    0    0  0.12030957176E+02  0.14346017443E+02  0.35728008214E+00  0.72461553564E+02  0.69999978206E+02 0.  0.
        -12    1    1    2    0    0 -0.12030957176E+02 -0.14346017443E+02 -0.35728008214E+00  0.18726446436E+02  0.00000000000E+00 0.  1.
         11    1    3    3    0    0  0.78278264904E+01  0.19350193933E+02 -0.29990354387E+02  0.36539379159E+02  0.51100000000E-03 0. -1.
        -11    1    3    3    0    0 -0.54006473524E+01 -0.68174467710E+01  0.93982562003E+01  0.12805147097E+02  0.51100000000E-03 0.  1.
        -12    1    3    3    0    0  0.96037780382E+01  0.18132702808E+01  0.20949378269E+02  0.23117027308E+02  0.00000000000E+00 0.  1.
</event>
<event>
 7    1  0.2604986E-013  0.7246156E+02  0.7816164E-02  0.1226708E+00
        -11   -1    0    0    0    0  0.00000000000E+00  0.00000000000E+00  0.45593999997E+02  0.45594000000E+02  0.51100000000E-03 0. -1.
         11   -1    0    0    0    0 -0.00000000000E+00 -0.00000000000E+00 -0.45593999997E+02  0.45594000000E+02  0.51100000000E-03 0.  1.
    9900012    2    1    2    0    0  0.13633110130E+02 -0.94130754402E+01  0.87299512466E+01  0.72461555334E+02  0.69999980511E+02 0.  0.
        -12    1    1    2    0    0 -0.13633110130E+02  0.94130754402E+01 -0.87299512466E+01  0.18726444666E+02  0.00000000000E+00 0.  1.
         11    1    3    3    0    0 -0.16516419275E+02 -0.22541260744E+02 -0.11505577938E+02  0.30220504059E+02  0.51100000000E-03 0.  1.
        -11    1    3    3    0    0  0.55423462638E+01  0.10106777895E+02  0.25994414130E+01  0.11816160859E+02  0.51100000000E-03 0. -1.
        -12    1    3    3    0    0  0.24607183142E+02  0.30214074088E+01  0.17636087772E+02  0.30424890416E+02  0.00000000000E+00 0.  1.
</event>
<event>
 7    1  0.2604986E-013  0.7246163E+02  0.7816164E-02  0.1226708E+00
        -11   -1    0    0    0    0  0.00000000000E+00  0.00000000000E+00  0.45593999997E+02  0.45594000000E+02  0.51100000000E-03 0. -1.
         11   -1    0    0    0    0 -0.00000000000E+00 -0.00000000000E+00 -0.45593999997E+02  0.45594000000E+02  0.51100000000E-03 0.  1.
    9900012    2    1    2    0    0  0.77186634774E+01 -0.26982029504E+01  0.16846926312E+02  0.72461628456E+02  0.70000075767E+02 0.  0.
        -12    1    1    2    0    0 -0.77186634774E+01  0.26982029504E+01 -0.16846926312E+02  0.18726371544E+02  0.00000000000E+00 0.  1.
         11    1    3    3    0    0  0.59456928980E+01  0.58297885651E+01 -0.18356716763E+01  0.85268628179E+01  0.51100000000E-03 0. -1.
        -11    1    3    3    0    0  0.55202479147E+01  0.21127668403E+02 -0.85953393472E+01  0.23467666436E+02  0.51100000000E-03 0.  1.
        -12    1    3    3    0    0 -0.37472773353E+01 -0.29655659918E+02  0.27277937335E+02  0.40467099203E+02  0.00000000000E+00 0.  1.
</event>
<event>
 7    1  0.2604986E-013  0.7246159E+02  0.7816164E-02  0.1226708E+00
        -11   -1    0    0    0    0  0.00000000000E+00  0.00000000000E+00  0.45593999997E+02  0.45594000000E+02  0.51100000000E-03 0.  1.
         11   -1    0    0    0    0 -0.00000000000E+00 -0.00000000000E+00 -0.45593999997E+02  0.45594000000E+02  0.51100000000E-03 0. -1.
    9900012    2    1    2    0    0 -0.49907718360E+00 -0.18624532546E+02 -0.18857973469E+01  0.72461587577E+02  0.70000022514E+02 0.  0.
        -12    1    1    2    0    0  0.49907718360E+00  0.18624532546E+02  0.18857973469E+01  0.18726412423E+02  0.00000000000E+00 0.  1.
         11    1    3    3    0    0  0.21592482143E+01 -0.38763315444E+01 -0.10386521963E+01  0.45570931238E+01  0.51100000000E-03 0. -1.
        -11    1    3    3    0    0 -0.52909512232E+01 -0.13759258483E+02  0.31845045168E+02  0.35091569655E+02  0.51100000000E-03 0.  1.
         12    1    3    3    0    0  0.26326258253E+01 -0.98894251856E+00 -0.32692190318E+02  0.32812924799E+02  0.00000000000E+00 0. -1.
</event>
<event>
 7    1  0.2604986E-013  0.7246157E+02  0.7816164E-02  0.1226708E+00
        -11   -1    0    0    0    0  0.00000000000E+00  0.00000000000E+00  0.45593999997E+02  0.45594000000E+02  0.51100000000E-03 0. -1.
         11   -1    0    0    0    0 -0.00000000000E+00 -0.00000000000E+00 -0.45593999997E+02  0.45594000000E+02  0.51100000000E-03 0.  1.
    9900012    2    1    2    0    0 -0.98731201240E+00 -0.17297838130E+02  0.71055631205E+01  0.72461574387E+02  0.70000005331E+02 0.  0.
        -12    1    1    2    0    0  0.98731201240E+00  0.17297838130E+02 -0.71055631205E+01  0.18726425613E+02  0.00000000000E+00 0.  1.
         11    1    3    3    0    0 -0.66438785258E+01 -0.83765248812E+00  0.70235947462E+01  0.97043117724E+01  0.51100000000E-03 0. -1.
        -11    1    3    3    0    0 -0.93152855151E+01  0.80648737324E+01  0.22940569343E+02  0.26040093214E+02  0.51100000000E-03 0.  1.
        -12    1    3    3    0    0  0.14971852028E+02 -0.24525059375E+02 -0.22858600969E+02  0.36717169400E+02  0.00000000000E+00 0.  1.
</event>
<event>
 7    1  0.2604986E-013  0.7246157E+02  0.7816164E-02  0.1226708E+00
        -11   -1    0    0    0    0  0.00000000000E+00  0.00000000000E+00  0.45593999997E+02  0.45594000000E+02  0.51100000000E-03 0. -1.
         11   -1    0    0    0    0 -0.00000000000E+00 -0.00000000000E+00 -0.45593999997E+02  0.45594000000E+02  0.51100000000E-03 0.  1.
    9900012    2    1    2    0    0  0.89124811878E+01 -0.15579781699E+02  0.53401509822E+01  0.72461571317E+02  0.70000001332E+02 0.  0.
        -12    1    1    2    0    0 -0.89124811878E+01  0.15579781699E+02 -0.53401509822E+01  0.18726428683E+02  0.00000000000E+00 0.  1.
         11    1    3    3    0    0  0.77507061916E+01 -0.27450196481E+02  0.18636329199E+02  0.34071975281E+02  0.51100000000E-03 0. -1.
        -11    1    3    3    0    0  0.64905751550E+01 -0.85711688608E+01  0.36009449982E+01  0.11338399650E+02  0.51100000000E-03 0.  1.
        -12    1    3    3    0    0 -0.53288001588E+01  0.20441583642E+02 -0.16897123215E+02  0.27051196385E+02  0.00000000000E+00 0.  1.
</event>
<event>
 7    1  0.2604986E-013  0.7246158E+02  0.7816164E-02  0.1226708E+00
        -11   -1    0    0    0    0  0.00000000000E+00  0.00000000000E+00  0.45593999997E+02  0.45594000000E+02  0.51100000000E-03 0.  1.
         11   -1    0    0    0    0 -0.00000000000E+00 -0.00000000000E+00 -0.45593999997E+02  0.45594000000E+02  0.51100000000E-03 0. -1.
    9900012    2    1    2    0    0  0.14835549975E+02  0.10394683844E+02  0.47472016676E+01  0.72461576984E+02  0.70000008715E+02 0.  0.
        -12    1    1    2    0    0 -0.14835549975E+02 -0.10394683844E+02 -0.47472016676E+01  0.18726423016E+02  0.00000000000E+00 0.  1.
         11    1    3    3    0    0 -0.10664568983E+02 -0.91143537559E+01 -0.77444866451E+01  0.16024404814E+02  0.51100000000E-03 0. -1.
        -11    1    3    3    0    0  0.48268665253E+01 -0.14473989149E+02  0.37042316215E+01  0.15700838656E+02  0.51100000000E-03 0.  1.
         12    1    3    3    0    0  0.20673252433E+02  0.33983026749E+02  0.87874566913E+01  0.40736333515E+02  0.00000000000E+00 0. -1.
</event>
<event>
 7    1  0.2604986E-013  0.7246157E+02  0.7816164E-02  0.1226708E+00
        -11   -1    0    0    0    0  0.00000000000E+00  0.00000000000E+00  0.45593999997E+02  0.45594000000E+02  0.51100000000E-03 0.  1.
         11   -1    0    0    0    0 -0.00000000000E+00 -0.00000000000E+00 -0.45593999997E+02  0.45594000000E+02  0.51100000000E-03 0. -1.
    9900012    2    1    2    0    0 -0.99672683756E+01  0.10863310755E+02 -0.11546479945E+02  0.72461570587E+02  0.70000000382E+02 0.  0.
        -12    1    1    2    0    0  0.99672683756E+01 -0.10863310755E+02  0.11546479945E+02  0.18726429413E+02  0.00000000000E+00 0.  1.
         11    1    3    3    0    0 -0.33132234680E+02  0.19780546596E+02 -0.26104212384E+00  0.38588640062E+02  0.51100000000E-03 0. -1.
        -11    1    3    3    0    0 -0.27391577829E+01  0.17592265791E+01  0.81135392142E+00  0.33550199646E+01  0.51100000000E-03 0.  1.
        -12    1    3    3    0    0  0.25904124088E+02 -0.10676462420E+02 -0.12096791743E+02  0.30517910561E+02  0.00000000000E+00 0.  1.
</event>
<event>
 7    1  0.2604986E-013  0.7246157E+02  0.7816164E-02  0.1226708E+00
        -11   -1    0    0    0    0  0.00000000000E+00  0.00000000000E+00  0.45593999997E+02  0.45594000000E+02  0.51100000000E-03 0.  1.
         11   -1    0    0    0    0 -0.00000000000E+00 -0.00000000000E+00 -0.45593999997E+02  0.45594000000E+02  0.51100000000E-03 0. -1.
    9900012    2    1    2    0    0 -0.88650978595E+01 -0.48827880771E+01 -0.15755872812E+02  0.72461571949E+02  0.70000002156E+02 0.  0.
        -12    1    1    2    0    0  0.88650978595E+01  0.48827880771E+01  0.15755872812E+02  0.18726428051E+02  0.00000000000E+00 0.  1.
         11    1    3    3    0    0 -0.24759183393E+01  0.88211516390E+01 -0.26406877247E+01  0.95349944825E+01  0.51100000000E-03 0. -1.
        -11    1    3    3    0    0 -0.32607668542E+02 -0.74284841597E+01 -0.12349460269E+01  0.33465915744E+02  0.51100000000E-03 0.  1.
         12    1    3    3    0    0  0.26218489021E+02 -0.62754555564E+01 -0.11880239061E+02  0.29460661723E+02  0.00000000000E+00 0. -1.
</event>
<event>
 7    1  0.2604986E-013  0.7246106E+02  0.7816164E-02  0.1226709E+00
        -11   -1    0    0    0    0  0.00000000000E+00  0.00000000000E+00  0.45593999997E+02  0.45594000000E+02  0.51100000000E-03 0.  1.
         11   -1    0    0    0    0 -0.00000000000E+00 -0.00000000000E+00 -0.45593999997E+02  0.45594000000E+02  0.51100000000E-03 0. -1.
    9900012    2    1    2    0    0  0.14180221697E+02 -0.18065905693E+01 -0.12097762326E+02  0.72461059242E+02  0.69999334256E+02 0.  0.
        -12    1    1    2    0    0 -0.14180221697E+02  0.18065905693E+01  0.12097762326E+02  0.18726940758E+02  0.00000000000E+00 0.  1.
         11    1    3    3    0    0  0.29437566364E+01 -0.13475728690E+02 -0.15007024090E+02  0.20383123881E+02  0.51100000000E-03 0. -1.
        -11    1    3    3    0    0 -0.10000539622E+01 -0.17399635138E+02  0.95117296339E+01  0.19854984557E+02  0.51100000000E-03 0.  1.
         12    1    3    3    0    0  0.12236519023E+02  0.29068773258E+02 -0.66024678705E+01  0.32222950804E+02  0.00000000000E+00 0. -1.
</event>
<event>
 7    1  0.2604986E-013  0.7246154E+02  0.7816164E-02  0.1226708E+00
        -11   -1    0    0    0    0  0.00000000000E+00  0.00000000000E+00  0.45593999997E+02  0.45594000000E+02  0.51100000000E-03 0. -1.
         11   -1    0    0    0    0 -0.00000000000E+00 -0.00000000000E+00 -0.45593999997E+02  0.45594000000E+02  0.51100000000E-03 0.  1.
    9900012    2    1    2    0    0  0.18286931338E+01 -0.18155136290E+02  0.42103729664E+01  0.72461539234E+02  0.69999959539E+02 0.  0.
        -12    1    1    2    0    0 -0.18286931338E+01  0.18155136290E+02 -0.42103729664E+01  0.18726460766E+02  0.00000000000E+00 0.  1.
         11    1    3    3    0    0 -0.90345885203E+01  0.14500098595E+02  0.23500928551E+02  0.29054608791E+02  0.51100000000E-03 0. -1.
        -11    1    3    3    0    0 -0.46436392238E+01 -0.12424892484E+02 -0.49345660928E+01  0.14152430224E+02  0.51100000000E-03 0.  1.
        -12    1    3    3    0    0  0.15506920878E+02 -0.20230342401E+02 -0.14355989492E+02  0.29254500219E+02  0.00000000000E+00 0.  1.
</event>
<event>
 7    1  0.2604986E-013  0.7246168E+02  0.7816164E-02  0.1226708E+00
        -11   -1    0    0    0    0  0.00000000000E+00  0.00000000000E+00  0.45593999997E+02  0.45594000000E+02  0.51100000000E-03 0. -1.
         11   -1    0    0    0    0 -0.00000000000E+00 -0.00000000000E+00 -0.45593999997E+02  0.45594000000E+02  0.51100000000E-03 0.  1.
    9900012    2    1    2    0    0 -0.11428648463E+02 -0.78818118063E+01  0.12567345497E+02  0.72461677994E+02  0.70000140299E+02 0.  0.
        -12    1    1    2    0    0  0.11428648463E+02  0.78818118063E+01 -0.12567345497E+02  0.18726322006E+02  0.00000000000E+00 0.  1.
         11    1    3    3    0    0 -0.92734570945E+01 -0.28413592569E+02  0.26338523796E+02  0.39837759540E+02  0.51100000000E-03 0. -1.
        -11    1    3    3    0    0 -0.15283451408E+01  0.10147195552E+01  0.51295387016E+01  0.54477208259E+01  0.51100000000E-03 0.  1.
        -12    1    3    3    0    0 -0.62684622723E+00  0.19517061207E+02 -0.18900717001E+02  0.27176197628E+02  0.00000000000E+00 0.  1.
</event>
<event>
 7    1  0.2604986E-013  0.7246155E+02  0.7816164E-02  0.1226708E+00
        -11   -1    0    0    0    0  0.00000000000E+00  0.00000000000E+00  0.45593999997E+02  0.45594000000E+02  0.51100000000E-03 0.  1.
         11   -1    0    0    0    0 -0.00000000000E+00 -0.00000000000E+00 -0.45593999997E+02  0.45594000000E+02  0.51100000000E-03 0. -1.
    9900012    2    1    2    0    0 -0.56105711974E+01  0.29900615589E+01 -0.17614226285E+02  0.72461549592E+02  0.69999973031E+02 0.  0.
        -12    1    1    2    0    0  0.56105711974E+01 -0.29900615589E+01  0.17614226285E+02  0.18726450408E+02  0.00000000000E+00 0.  1.
         11    1    3    3    0    0 -0.29093626290E+02  0.80794037409E+01 -0.75576482026E+01  0.31126096802E+02  0.51100000000E-03 0. -1.
        -11    1    3    3    0    0  0.19992694077E+01  0.12234746319E+02 -0.17905698969E+01  0.12525663115E+02  0.51100000000E-03 0.  1.
        -12    1    3    3    0    0  0.21483785685E+02 -0.17324088501E+02 -0.82660081853E+01  0.28809789674E+02  0.00000000000E+00 0.  1.
</event>
<event>
 7    1  0.2604986E-013  0.7246188E+02  0.7816164E-02  0.1226707E+00
        -11   -1    0    0    0    0  0.00000000000E+00  0.00000000000E+00  0.45593999997E+02  0.45594000000E+02  0.51100000000E-03 0. -1.
         11   -1    0    0    0    0 -0.00000000000E+00 -0.00000000000E+00 -0.45593999997E+02  0.45594000000E+02  0.51100000000E-03 0.  1.
    9900012    2    1    2    0    0 -0.20297606604E+00  0.10908479294E+02  0.15219446723E+02  0.72461877114E+02  0.70000399688E+02 0.  0.
        -12    1    1    2    0    0  0.20297606604E+00 -0.10908479294E+02 -0.15219446723E+02  0.18726122886E+02  0.00000000000E+00 0.  1.
         11    1    3    3    0    0 -0.48131725847E+00  0.22567946686E+02  0.41617067936E+01  0.22953511444E+02  0.51100000000E-03 0. -1.
        -11    1    3    3    0    0  0.15794237899E+02 -0.87731918397E+01 -0.11910965392E+02  0.21640192760E+02  0.51100000000E-03 0.  1.
         12    1    3    3    0    0 -0.15515896706E+02 -0.28862755525E+01  0.22968705322E+02  0.27868172910E+02  0.00000000000E+00 0. -1.
</event>
<event>
 7    1  0.2604986E-013  0.7246159E+02  0.7816164E-02  0.1226708E+00
        -11   -1    0    0    0    0  0.00000000000E+00  0.00000000000E+00  0.45593999997E+02  0.45594000000E+02  0.51100000000E-03 0.  1.
         11   -1    0    0    0    0 -0.00000000000E+00 -0.00000000000E+00 -0.45593999997E+02  0.45594000000E+02  0.51100000000E-03 0. -1.
    9900012    2    1    2    0    0 -0.10877592103E+02  0.11595740927E+02 -0.98941937269E+01  0.72461593854E+02  0.70000030691E+02 0.  0.
        -12    1    1    2    0    0  0.10877592103E+02 -0.11595740927E+02  0.98941937269E+01  0.18726406146E+02  0.00000000000E+00 0.  1.
         11    1    3    3    0    0  0.66882703941E+01  0.47096491924E+01  0.30148357933E+01  0.87179694598E+01  0.51100000000E-03 0. -1.
        -11    1    3    3    0    0 -0.91368118670E+01  0.11560587142E+02  0.22583533559E+02  0.26965616893E+02  0.51100000000E-03 0.  1.
         12    1    3    3    0    0 -0.84290506305E+01 -0.46744954066E+01 -0.35492563079E+02  0.36778007501E+02  0.00000000000E+00 0. -1.
</event>
<event>
 7    1  0.2604986E-013  0.7246164E+02  0.7816164E-02  0.1226708E+00
        -11   -1    0    0    0    0  0.00000000000E+00  0.00000000000E+00  0.45593999997E+02  0.45594000000E+02  0.51100000000E-03 0.  1.
         11   -1    0    0    0    0 -0.00000000000E+00 -0.00000000000E+00 -0.45593999997E+02  0.45594000000E+02  0.51100000000E-03 0. -1.
    9900012    2    1    2    0    0  0.16422480741E+02 -0.46894713233E+01 -0.76803456627E+01  0.72461635577E+02  0.70000085043E+02 0.  0.
        -12    1    1    2    0    0 -0.16422480741E+02  0.46894713233E+01  0.76803456627E+01  0.18726364423E+02  0.00000000000E+00 0.  1.
         11    1    3    3    0    0 -0.42091468344E+01 -0.66994453506E+01 -0.78230217354E+01  0.11126506838E+02  0.51100000000E-03 0. -1.
        -11    1    3    3    0    0  0.12181326567E+02  0.20459711378E+02  0.21351140885E+02  0.31982115689E+02  0.51100000000E-03 0.  1.
         12    1    3    3    0    0  0.84503010089E+01 -0.18449737351E+02 -0.21208464812E+02  0.29353013050E+02  0.00000000000E+00 0. -1.
</event>
<event>
 7    1  0.2604986E-013  0.7246155E+02  0.7816164E-02  0.1226708E+00
        -11   -1    0    0    0    0  0.00000000000E+00  0.00000000000E+00  0.45593999997E+02  0.45594000000E+02  0.51100000000E-03 0. -1.
         11   -1    0    0    0    0 -0.00000000000E+00 -0.00000000000E+00 -0.45593999997E+02  0.45594000000E+02  0.51100000000E-03 0.  1.
    9900012    2    1    2    0    0 -0.42464110751E+01  0.13745959745E+01  0.18186768401E+02  0.72461546359E+02  0.69999968820E+02 0.  0.
        -12    1    1    2    0    0  0.42464110751E+01 -0.13745959745E+01 -0.18186768401E+02  0.18726453641E+02  0.00000000000E+00 0.  1.
         11    1    3    3    0    0  0.19879072761E+02  0.41559890815E+01 -0.43584124832E+00  0.20313535806E+02  0.51100000000E-03 0. -1.
        -11    1    3    3    0    0 -0.57857432353E+01 -0.47201403528E+01 -0.13316433784E+02  0.15267021933E+02  0.51100000000E-03 0.  1.
         12    1    3    3    0    0 -0.18339740601E+02  0.19387472458E+01  0.31939043433E+02  0.36880988620E+02  0.00000000000E+00 0. -1.
</event>
<event>
 7    1  0.2604986E-013  0.7246164E+02  0.7816164E-02  0.1226708E+00
        -11   -1    0    0    0    0  0.00000000000E+00  0.00000000000E+00  0.45593999997E+02  0.45594000000E+02  0.51100000000E-03 0.  1.
         11   -1    0    0    0    0 -0.00000000000E+00 -0.00000000000E+00 -0.45593999997E+02  0.45594000000E+02  0.51100000000E-03 0. -1.
    9900012    2    1    2    0    0  0.10069374739E+02  0.51643098355E+01  0.14920265396E+02  0.72461635612E+02  0.70000085088E+02 0.  0.
        -12    1    1    2    0    0 -0.10069374739E+02 -0.51643098355E+01 -0.14920265396E+02  0.18726364388E+02  0.00000000000E+00 0.  1.
         11    1    3    3    0    0 -0.47013709368E+01  0.44200410077E+01  0.21523622690E+01  0.68023756728E+01  0.51100000000E-03 0. -1.
        -11    1    3    3    0    0 -0.16095366636E+02 -0.14429681604E+02 -0.10602072070E+02  0.24076554379E+02  0.51100000000E-03 0.  1.
         12    1    3    3    0    0  0.30866112312E+02  0.15173950431E+02  0.23369975197E+02  0.41582705560E+02  0.00000000000E+00 0. -1.
</event>
<event>
 7    1  0.2604986E-013  0.7246095E+02  0.7816164E-02  0.1226710E+00
        -11   -1    0    0    0    0  0.00000000000E+00  0.00000000000E+00  0.45593999997E+02  0.45594000000E+02  0.51100000000E-03 0.  1.
         11   -1    0    0    0    0 -0.00000000000E+00 -0.00000000000E+00 -0.45593999997E+02  0.45594000000E+02  0.51100000000E-03 0. -1.
    9900012    2    1    2    0    0 -0.79249340357E+01  0.16962778926E+02 -0.40254488520E+00  0.72460947623E+02  0.69999188850E+02 0.  0.
        -12    1    1    2    0    0  0.79249340357E+01 -0.16962778926E+02  0.40254488520E+00  0.18727052377E+02  0.00000000000E+00 0.  1.
         11    1    3    3    0    0 -0.46881171415E+01 -0.18031239580E+02  0.60071695418E+01  0.19575242765E+02  0.51100000000E-03 0. -1.
        -11    1    3    3    0    0  0.17653855571E+02  0.17323838411E+02  0.20916369052E+00  0.24734949839E+02  0.51100000000E-03 0.  1.
         12    1    3    3    0    0 -0.20890672465E+02  0.17670180095E+02 -0.66188781175E+01  0.28150755019E+02  0.00000000000E+00 0. -1.
</event>
<event>
 7    1  0.2604986E-013  0.7246156E+02  0.7816164E-02  0.1226708E+00
        -11   -1    0    0    0    0  0.00000000000E+00  0.00000000000E+00  0.45593999997E+02  0.45594000000E+02  0.51100000000E-03 0.  1.
         11   -1    0    0    0    0 -0.00000000000E+00 -0.00000000000E+00 -0.45593999997E+02  0.45594000000E+02  0.51100000000E-03 0. -1.
    9900012    2    1    2    0    0 -0.16610339158E+02  0.31771410008E+01  0.80425159280E+01  0.72461557349E+02  0.69999983137E+02 0.  0.
        -12    1    1    2    0    0  0.16610339158E+02 -0.31771410008E+01 -0.80425159280E+01  0.18726442651E+02  0.00000000000E+00 0.  1.
         11    1    3    3    0    0 -0.22951247712E+02 -0.14765495125E+02  0.16048462520E+02  0.31659639406E+02  0.51100000000E-03 0. -1.
        -11    1    3    3    0    0 -0.88632073248E+01 -0.52738103603E+01  0.33098798302E+01  0.10831658440E+02  0.51100000000E-03 0.  1.
         12    1    3    3    0    0  0.15204115879E+02  0.23216446486E+02 -0.11315826422E+02  0.29970259503E+02  0.00000000000E+00 0. -1.
</event>
<event>
 7    1  0.2604986E-013  0.7246157E+02  0.7816164E-02  0.1226708E+00
        -11   -1    0    0    0    0  0.00000000000E+00  0.00000000000E+00  0.45593999997E+02  0.45594000000E+02  0.51100000000E-03 0.  1.
         11   -1    0    0    0    0 -0.00000000000E+00 -0.00000000000E+00 -0.45593999997E+02  0.45594000000E+02  0.51100000000E-03 0. -1.
    9900012    2    1    2    0    0 -0.30800366222E+01 -0.16594760934E+01 -0.18396706665E+02  0.72461566740E+02  0.69999995370E+02 0.  0.
        -12    1    1    2    0    0  0.30800366222E+01  0.16594760934E+01  0.18396706665E+02  0.18726433260E+02  0.00000000000E+00 0.  1.
         11    1    3    3    0    0 -0.17165102009E+01  0.13093143729E+01  0.85976803940E+01  0.88645823260E+01  0.51100000000E-03 0. -1.
        -11    1    3    3    0    0 -0.19047990812E+02  0.22098615447E+00  0.10692596161E+02  0.21845054400E+02  0.51100000000E-03 0.  1.
         12    1    3    3    0    0  0.17684464390E+02 -0.31897766207E+01 -0.37686983220E+02  0.41751930014E+02  0.00000000000E+00 0. -1.
</event>
<event>
 7    1  0.2604986E-013  0.7246155E+02  0.7816164E-02  0.1226708E+00
        -11   -1    0    0    0    0  0.00000000000E+00  0.00000000000E+00  0.45593999997E+02  0.45594000000E+02  0.51100000000E-03 0.  1.
         11   -1    0    0    0    0 -0.00000000000E+00 -0.00000000000E+00 -0.45593999997E+02  0.45594000000E+02  0.51100000000E-03 0. -1.
    9900012    2    1    2    0    0  0.14047752719E+02  0.32396520430E+01  0.11951786364E+02  0.72461550815E+02  0.69999974624E+02 0.  0.
        -12    1    1    2    0    0 -0.14047752719E+02 -0.32396520430E+01 -0.11951786364E+02  0.18726449185E+02  0.00000000000E+00 0.  1.
         11    1    3    3    0    0  0.21677821657E+02  0.11310252087E+02 -0.12014259564E+02  0.27243204422E+02  0.51100000000E-03 0. -1.
        -11    1    3    3    0    0  0.55021537792E+01 -0.42573976754E+00 -0.80611678409E+01  0.97692055859E+01  0.51100000000E-03 0.  1.
        -12    1    3    3    0    0 -0.13132222717E+02 -0.76448602764E+01  0.32027213768E+02  0.35449140806E+02  0.00000000000E+00 0.  1.
</event>
<event>
 7    1  0.2604986E-013  0.7246156E+02  0.7816164E-02  0.1226708E+00
        -11   -1    0    0    0    0  0.00000000000E+00  0.00000000000E+00  0.45593999997E+02  0.45594000000E+02  0.51100000000E-03 0.  1.
         11   -1    0    0    0    0 -0.00000000000E+00 -0.00000000000E+00 -0.45593999997E+02  0.45594000000E+02  0.51100000000E-03 0. -1.
    9900012    2    1    2    0    0  0.14330575229E+02  0.54272114722E+01 -0.10763807019E+02  0.72461560074E+02  0.69999986686E+02 0.  0.
        -12    1    1    2    0    0 -0.14330575229E+02 -0.54272114722E+01  0.10763807019E+02  0.18726439926E+02  0.00000000000E+00 0.  1.
         11    1    3    3    0    0 -0.94954344838E+01  0.23609340991E+01 -0.22279206042E+02  0.24333111350E+02  0.51100000000E-03 0. -1.
        -11    1    3    3    0    0 -0.10495491782E+02  0.54775836933E+01  0.60358307573E+01  0.13288736736E+02  0.51100000000E-03 0.  1.
        -12    1    3    3    0    0  0.34321501494E+02 -0.24113063203E+01  0.54795682651E+01  0.34839711988E+02  0.00000000000E+00 0.  1.
</event>
<event>
 7    1  0.2604986E-013  0.7246150E+02  0.7816164E-02  0.1226708E+00
        -11   -1    0    0    0    0  0.00000000000E+00  0.00000000000E+00  0.45593999997E+02  0.45594000000E+02  0.51100000000E-03 0.  1.
         11   -1    0    0    0    0 -0.00000000000E+00 -0.00000000000E+00 -0.45593999997E+02  0.45594000000E+02  0.51100000000E-03 0. -1.
    9900012    2    1    2    0    0 -0.13774379064E+02 -0.10021005048E+02 -0.77799491508E+01  0.72461503542E+02  0.69999913043E+02 0.  0.
        -12    1    1    2    0    0  0.13774379064E+02  0.10021005048E+02  0.77799491508E+01  0.18726496458E+02  0.00000000000E+00 0.  1.
         11    1    3    3    0    0 -0.34477279789E+01 -0.19728605381E+02  0.81832832504E+01  0.21634944500E+02  0.51100000000E-03 0. -1.
        -11    1    3    3    0    0  0.15514060106E+02 -0.48119946095E+00 -0.17013420998E+02  0.23029852544E+02  0.51100000000E-03 0.  1.
         12    1    3    3    0    0 -0.25840711191E+02  0.10188799794E+02  0.10501885966E+01  0.27796706499E+02  0.00000000000E+00 0. -1.
</event>
<event>
 7    1  0.2604986E-013  0.7246163E+02  0.7816164E-02  0.1226708E+00
        -11   -1    0    0    0    0  0.00000000000E+00  0.00000000000E+00  0.45593999997E+02  0.45594000000E+02  0.51100000000E-03 0.  1.
         11   -1    0    0    0    0 -0.00000000000E+00 -0.00000000000E+00 -0.45593999997E+02  0.45594000000E+02  0.51100000000E-03 0. -1.
    9900012    2    1    2    0    0 -0.95085093270E+01  0.29849858994E+01 -0.15854184638E+02  0.72461626593E+02  0.70000073339E+02 0.  0.
        -12    1    1    2    0    0  0.95085093270E+01 -0.29849858994E+01  0.15854184638E+02  0.18726373407E+02  0.00000000000E+00 0.  1.
         11    1    3    3    0    0  0.43499516751E+01  0.10922704752E+02 -0.14341849179E+02  0.18544977671E+02  0.51100000000E-03 0. -1.
        -11    1    3    3    0    0  0.20434279321E+01 -0.74824600487E+01 -0.24647824047E+02  0.25839466647E+02  0.51100000000E-03 0.  1.
        -12    1    3    3    0    0 -0.15901888934E+02 -0.45525880362E+00  0.23135488589E+02  0.28077182275E+02  0.00000000000E+00 0.  1.
</event>
<event>
 7    1  0.2604986E-013  0.7246160E+02  0.7816164E-02  0.1226708E+00
        -11   -1    0    0    0    0  0.00000000000E+00  0.00000000000E+00  0.45593999997E+02  0.45594000000E+02  0.51100000000E-03 0.  1.
         11   -1    0    0    0    0 -0.00000000000E+00 -0.00000000000E+00 -0.45593999997E+02  0.45594000000E+02  0.51100000000E-03 0. -1.
    9900012    2    1    2    0    0 -0.10675197628E+02 -0.15246557986E+02 -0.20641527812E+01  0.72461598810E+02  0.70000037147E+02 0.  0.
        -12    1    1    2    0    0  0.10675197628E+02  0.15246557986E+02  0.20641527812E+01  0.18726401190E+02  0.00000000000E+00 0.  1.
         11    1    3    3    0    0 -0.83072086138E+00 -0.22427431410E+01 -0.54420728109E+00  0.24527853089E+01  0.51100000000E-03 0. -1.
        -11    1    3    3    0    0  0.12585032709E+02 -0.33248498450E+02  0.11131066174E+02  0.37252467460E+02  0.51100000000E-03 0.  1.
         12    1    3    3    0    0 -0.22429509475E+02  0.20244683605E+02 -0.12651011674E+02  0.32756346041E+02  0.00000000000E+00 0. -1.
</event>
<event>
 7    1  0.2604986E-013  0.7246156E+02  0.7816164E-02  0.1226708E+00
        -11   -1    0    0    0    0  0.00000000000E+00  0.00000000000E+00  0.45593999997E+02  0.45594000000E+02  0.51100000000E-03 0.  1.
         11   -1    0    0    0    0 -0.00000000000E+00 -0.00000000000E+00 -0.45593999997E+02  0.45594000000E+02  0.51100000000E-03 0. -1.
    9900012    2    1    2    0    0  0.32055793002E-01 -0.12952405694E+02  0.13524561826E+02  0.72461558442E+02  0.69999984560E+02 0.  0.
        -12    1    1    2    0    0 -0.32055793002E-01  0.12952405694E+02 -0.13524561826E+02  0.18726441558E+02  0.00000000000E+00 0.  1.
         11    1    3    3    0    0 -0.79432713579E+01  0.86320548763E+01 -0.28574928214E+01  0.12073657140E+02  0.51100000000E-03 0. -1.
        -11    1    3    3    0    0  0.25268779441E+02  0.30681061404E+01  0.16389790239E+02  0.30274572071E+02  0.51100000000E-03 0.  1.
         12    1    3    3    0    0 -0.17293452290E+02 -0.24652566711E+02 -0.77355913423E-02  0.30113329231E+02  0.00000000000E+00 0. -1.
</event>
<event>
 7    1  0.2604986E-013  0.7246149E+02  0.7816164E-02  0.1226708E+00
        -11   -1    0    0    0    0  0.00000000000E+00  0.00000000000E+00  0.45593999997E+02  0.45594000000E+02  0.51100000000E-03 0. -1.
         11   -1    0    0    0    0 -0.00000000000E+00 -0.00000000000E+00 -0.45593999997E+02  0.45594000000E+02  0.51100000000E-03 0.  1.
    9900012    2    1    2    0    0  0.15607976430E+02  0.63813590366E+01  0.81456408352E+01  0.72461491089E+02  0.69999896820E+02 0.  0.
        -12    1    1    2    0    0 -0.15607976430E+02 -0.63813590366E+01 -0.81456408352E+01  0.18726508911E+02  0.00000000000E+00 0.  1.
         11    1    3    3    0    0  0.12071822917E+02  0.19530916975E+02  0.11609015782E+02  0.25728483712E+02  0.51100000000E-03 0. -1.
        -11    1    3    3    0    0 -0.28817534761E+01 -0.12976558608E+02  0.19102087245E+02  0.23271985600E+02  0.51100000000E-03 0.  1.
         12    1    3    3    0    0  0.64179069888E+01 -0.17299933081E+00 -0.22565462191E+02  0.23461021777E+02  0.00000000000E+00 0. -1.
</event>
<event>
 7    1  0.2604986E-013  0.7246149E+02  0.7816164E-02  0.1226708E+00
        -11   -1    0    0    0    0  0.00000000000E+00  0.00000000000E+00  0.45593999997E+02  0.45594000000E+02  0.51100000000E-03 0.  1.
         11   -1    0    0    0    0 -0.00000000000E+00 -0.00000000000E+00 -0.45593999997E+02  0.45594000000E+02  0.51100000000E-03 0. -1.
    9900012    2    1    2    0    0  0.14156055029E+02  0.98852123199E+01  0.72505879635E+01  0.72461485578E+02  0.69999889641E+02 0.  0.
        -12    1    1    2    0    0 -0.14156055029E+02 -0.98852123199E+01 -0.72505879635E+01  0.18726514422E+02  0.00000000000E+00 0.  1.
         11    1    3    3    0    0 -0.15758879173E+02  0.12075256616E+02  0.10405273066E+01  0.19880563183E+02  0.51100000000E-03 0. -1.
        -11    1    3    3    0    0 -0.77732223741E+01  0.76366284939E+01  0.81144391773E+01  0.13586213757E+02  0.51100000000E-03 0.  1.
         12    1    3    3    0    0  0.37688156576E+02 -0.98266727900E+01 -0.19043785204E+01  0.38994708638E+02  0.00000000000E+00 0. -1.
</event>
<event>
 7    1  0.2604986E-013  0.7246160E+02  0.7816164E-02  0.1226708E+00
        -11   -1    0    0    0    0  0.00000000000E+00  0.00000000000E+00  0.45593999997E+02  0.45594000000E+02  0.51100000000E-03 0. -1.
         11   -1    0    0    0    0 -0.00000000000E+00 -0.00000000000E+00 -0.45593999997E+02  0.45594000000E+02  0.51100000000E-03 0.  1.
    9900012    2    1    2    0    0  0.17179669019E+02  0.67329180923E+01  0.31945271557E+01  0.72461595716E+02  0.70000033117E+02 0.  0.
        -12    1    1    2    0    0 -0.17179669019E+02 -0.67329180923E+01 -0.31945271557E+01  0.18726404284E+02  0.00000000000E+00 0.  1.
         11    1    3    3    0    0  0.73774467473E+01  0.12808327213E+02  0.25940537679E+02  0.29856179625E+02  0.51100000000E-03 0. -1.
        -11    1    3    3    0    0  0.10559111806E+02  0.12882409143E+02 -0.13792310276E+02  0.21625890282E+02  0.51100000000E-03 0.  1.
        -12    1    3    3    0    0 -0.75688953381E+00 -0.18957818263E+02 -0.89537002464E+01  0.20979525809E+02  0.00000000000E+00 0.  1.
</event>
<event>
 7    1  0.2604986E-013  0.7246153E+02  0.7816164E-02  0.1226708E+00
        -11   -1    0    0    0    0  0.00000000000E+00  0.00000000000E+00  0.45593999997E+02  0.45594000000E+02  0.51100000000E-03 0.  1.
         11   -1    0    0    0    0 -0.00000000000E+00 -0.00000000000E+00 -0.45593999997E+02  0.45594000000E+02  0.51100000000E-03 0. -1.
    9900012    2    1    2    0    0  0.88713960782E+01 -0.13133620119E+02 -0.99743222705E+01  0.72461528080E+02  0.69999945008E+02 0.  0.
        -12    1    1    2    0    0 -0.88713960782E+01  0.13133620119E+02  0.99743222705E+01  0.18726471920E+02  0.00000000000E+00 0.  1.
         11    1    3    3    0    0  0.10712075952E+02  0.40328481622E+01 -0.11005617327E+02  0.15878792413E+02  0.51100000000E-03 0. -1.
        -11    1    3    3    0    0  0.11294605222E+02  0.11344507669E+02  0.15260832128E+02  0.22116938280E+02  0.51100000000E-03 0.  1.
        -12    1    3    3    0    0 -0.13135285096E+02 -0.28510975951E+02 -0.14229537072E+02  0.34465797387E+02  0.00000000000E+00 0.  1.
</event>
<event>
 7    1  0.2604986E-013  0.7246156E+02  0.7816164E-02  0.1226708E+00
        -11   -1    0    0    0    0  0.00000000000E+00  0.00000000000E+00  0.45593999997E+02  0.45594000000E+02  0.51100000000E-03 0. -1.
         11   -1    0    0    0    0 -0.00000000000E+00 -0.00000000000E+00 -0.45593999997E+02  0.45594000000E+02  0.51100000000E-03 0.  1.
    9900012    2    1    2    0    0  0.51899873594E+01  0.17668953629E+02 -0.33987780361E+01  0.72461559247E+02  0.69999985609E+02 0.  0.
        -12    1    1    2    0    0 -0.51899873594E+01 -0.17668953629E+02  0.33987780361E+01  0.18726440753E+02  0.00000000000E+00 0.  1.
         11    1    3    3    0    0  0.24355283999E+02 -0.15357251021E+01  0.36012410021E+01  0.24667939664E+02  0.51100000000E-03 0. -1.
        -11    1    3    3    0    0 -0.80826949878E+01  0.26416886875E+02  0.70386085350E+01  0.28508312486E+02  0.51100000000E-03 0.  1.
         12    1    3    3    0    0 -0.11082601652E+02 -0.72122081443E+01 -0.14038627573E+02  0.19285307097E+02  0.00000000000E+00 0. -1.
</event>
<event>
 7    1  0.2604986E-013  0.7246160E+02  0.7816164E-02  0.1226708E+00
        -11   -1    0    0    0    0  0.00000000000E+00  0.00000000000E+00  0.45593999997E+02  0.45594000000E+02  0.51100000000E-03 0.  1.
         11   -1    0    0    0    0 -0.00000000000E+00 -0.00000000000E+00 -0.45593999997E+02  0.45594000000E+02  0.51100000000E-03 0. -1.
    9900012    2    1    2    0    0 -0.15392566149E+02  0.60580391598E+01 -0.87776514448E+01  0.72461598958E+02  0.70000037339E+02 0.  0.
        -12    1    1    2    0    0  0.15392566149E+02 -0.60580391598E+01  0.87776514448E+01  0.18726401042E+02  0.00000000000E+00 0.  1.
         11    1    3    3    0    0  0.59751377756E+01 -0.63303798675E+00 -0.16315017524E+02  0.17386282110E+02  0.51100000000E-03 0. -1.
        -11    1    3    3    0    0 -0.22734623045E+01  0.37425483562E+01 -0.20535084036E+02  0.20996784889E+02  0.51100000000E-03 0.  1.
        -12    1    3    3    0    0 -0.19094241620E+02  0.29485287904E+01  0.28072450115E+02  0.34078531959E+02  0.00000000000E+00 0.  1.
</event>
<event>
 7    1  0.2604986E-013  0.7246223E+02  0.7816164E-02  0.1226706E+00
        -11   -1    0    0    0    0  0.00000000000E+00  0.00000000000E+00  0.45593999997E+02  0.45594000000E+02  0.51100000000E-03 0.  1.
         11   -1    0    0    0    0 -0.00000000000E+00 -0.00000000000E+00 -0.45593999997E+02  0.45594000000E+02  0.51100000000E-03 0. -1.
    9900012    2    1    2    0    0 -0.63364871064E+01 -0.61125608930E+01 -0.16526946138E+02  0.72462231173E+02  0.70000860911E+02 0.  0.
        -12    1    1    2    0    0  0.63364871064E+01  0.61125608930E+01  0.16526946138E+02  0.18725768827E+02  0.00000000000E+00 0.  1.
         11    1    3    3    0    0 -0.18541110397E+02 -0.23222886066E+01 -0.24368434437E+02  0.30708083566E+02  0.51100000000E-03 0. -1.
        -11    1    3    3    0    0 -0.10515612123E+02 -0.11466377398E+02  0.85677360957E+01  0.17761250266E+02  0.51100000000E-03 0.  1.
         12    1    3    3    0    0  0.22720235413E+02  0.76761051116E+01 -0.72624779697E+00  0.23992897340E+02  0.00000000000E+00 0. -1.
</event>
<event>
 7    1  0.2604986E-013  0.7246156E+02  0.7816164E-02  0.1226708E+00
        -11   -1    0    0    0    0  0.00000000000E+00  0.00000000000E+00  0.45593999997E+02  0.45594000000E+02  0.51100000000E-03 0.  1.
         11   -1    0    0    0    0 -0.00000000000E+00 -0.00000000000E+00 -0.45593999997E+02  0.45594000000E+02  0.51100000000E-03 0. -1.
    9900012    2    1    2    0    0 -0.18719197979E+02 -0.44844328925E+00 -0.26445273443E+00  0.72461563884E+02  0.69999991649E+02 0.  0.
        -12    1    1    2    0    0  0.18719197979E+02  0.44844328925E+00  0.26445273443E+00  0.18726436116E+02  0.00000000000E+00 0.  1.
         11    1    3    3    0    0  0.88789189699E+01  0.20376409013E+02 -0.14293965689E+02  0.26426325922E+02  0.51100000000E-03 0. -1.
        -11    1    3    3    0    0 -0.33417749431E+01 -0.35141700367E+01 -0.77379454778E+01  0.91319576924E+01  0.51100000000E-03 0.  1.
        -12    1    3    3    0    0 -0.24256342006E+02 -0.17310682266E+02  0.21767458433E+02  0.36903280269E+02  0.00000000000E+00 0.  1.
</event>
<event>
 7    1  0.2604986E-013  0.7246153E+02  0.7816164E-02  0.1226708E+00
        -11   -1    0    0    0    0  0.00000000000E+00  0.00000000000E+00  0.45593999997E+02  0.45594000000E+02  0.51100000000E-03 0.  1.
         11   -1    0    0    0    0 -0.00000000000E+00 -0.00000000000E+00 -0.45593999997E+02  0.45594000000E+02  0.51100000000E-03 0. -1.
    9900012    2    1    2    0    0  0.63960156486E+01 -0.17494491064E+02 -0.19272558120E+01  0.72461533469E+02  0.69999952028E+02 0.  0.
        -12    1    1    2    0    0 -0.63960156486E+01  0.17494491064E+02  0.19272558120E+01  0.18726466531E+02  0.00000000000E+00 0.  1.
         11    1    3    3    0    0 -0.89092007747E+01  0.76798106380E+01 -0.14059791664E+01  0.11846101787E+02  0.51100000000E-03 0. -1.
        -11    1    3    3    0    0  0.16897059102E+02  0.77482615753E+01  0.15279691821E+02  0.24062733555E+02  0.51100000000E-03 0.  1.
         12    1    3    3    0    0 -0.15918426784E+01 -0.32922563278E+02 -0.15800968466E+02  0.36552698127E+02  0.00000000000E+00 0. -1.
</event>
<event>
 7    1  0.2604986E-013  0.7246158E+02  0.7816164E-02  0.1226708E+00
        -11   -1    0    0    0    0  0.00000000000E+00  0.00000000000E+00  0.45593999997E+02  0.45594000000E+02  0.51100000000E-03 0. -1.
         11   -1    0    0    0    0 -0.00000000000E+00 -0.00000000000E+00 -0.45593999997E+02  0.45594000000E+02  0.51100000000E-03 0.  1.
    9900012    2    1    2    0    0  0.12518879224E+02 -0.13915219949E+02 -0.56841063771E+00  0.72461580858E+02  0.70000013761E+02 0.  0.
        -12    1    1    2    0    0 -0.12518879224E+02  0.13915219949E+02  0.56841063771E+00  0.18726419142E+02  0.00000000000E+00 0.  1.
         11    1    3    3    0    0 -0.47844654693E+01 -0.39252374330E+01 -0.22470315328E+02  0.23306944672E+02  0.51100000000E-03 0. -1.
        -11    1    3    3    0    0  0.51663969917E+01 -0.21953341121E+02  0.15449185729E+01  0.22605919975E+02  0.51100000000E-03 0.  1.
         12    1    3    3    0    0  0.12136947702E+02  0.11963358605E+02  0.20356986118E+02  0.26548716211E+02  0.00000000000E+00 0. -1.
</event>
<event>
 7    1  0.2604986E-013  0.7246160E+02  0.7816164E-02  0.1226708E+00
        -11   -1    0    0    0    0  0.00000000000E+00  0.00000000000E+00  0.45593999997E+02  0.45594000000E+02  0.51100000000E-03 0.  1.
         11   -1    0    0    0    0 -0.00000000000E+00 -0.00000000000E+00 -0.45593999997E+02  0.45594000000E+02  0.51100000000E-03 0. -1.
    9900012    2    1    2    0    0  0.15419293584E+02 -0.87811693605E+01 -0.59845362368E+01  0.72461595542E+02  0.70000032889E+02 0.  0.
        -12    1    1    2    0    0 -0.15419293584E+02  0.87811693605E+01  0.59845362368E+01  0.18726404458E+02  0.00000000000E+00 0.  1.
         11    1    3    3    0    0  0.12552469025E+02 -0.12582827122E+02 -0.14633290305E+02  0.23022276221E+02  0.51100000000E-03 0. -1.
        -11    1    3    3    0    0  0.10145044033E+02 -0.20195524250E+02  0.90869750666E+01  0.24358863567E+02  0.51100000000E-03 0.  1.
         12    1    3    3    0    0 -0.72782194733E+01  0.23997182011E+02 -0.43822099837E+00  0.25080455754E+02  0.00000000000E+00 0. -1.
</event>
<event>
 7    1  0.2604986E-013  0.7246154E+02  0.7816164E-02  0.1226708E+00
        -11   -1    0    0    0    0  0.00000000000E+00  0.00000000000E+00  0.45593999997E+02  0.45594000000E+02  0.51100000000E-03 0. -1.
         11   -1    0    0    0    0 -0.00000000000E+00 -0.00000000000E+00 -0.45593999997E+02  0.45594000000E+02  0.51100000000E-03 0.  1.
    9900012    2    1    2    0    0  0.86090655744E+01 -0.62271283596E+01  0.15420352707E+02  0.72461537032E+02  0.69999956670E+02 0.  0.
        -12    1    1    2    0    0 -0.86090655744E+01  0.62271283596E+01 -0.15420352707E+02  0.18726462968E+02  0.00000000000E+00 0.  1.
         11    1    3    3    0    0  0.36262364777E+01 -0.41048142414E+01  0.71870526007E+01  0.90361947906E+01  0.51100000000E-03 0. -1.
        -11    1    3    3    0    0  0.14993946669E+02 -0.27594472474E+02 -0.68959527276E+01  0.32153188211E+02  0.51100000000E-03 0.  1.
         12    1    3    3    0    0 -0.10011117573E+02  0.25472158356E+02  0.15129252834E+02  0.31272154030E+02  0.00000000000E+00 0. -1.
</event>
<event>
 7    1  0.2604986E-013  0.7246147E+02  0.7816164E-02  0.1226708E+00
        -11   -1    0    0    0    0  0.00000000000E+00  0.00000000000E+00  0.45593999997E+02  0.45594000000E+02  0.51100000000E-03 0.  1.
         11   -1    0    0    0    0 -0.00000000000E+00 -0.00000000000E+00 -0.45593999997E+02  0.45594000000E+02  0.51100000000E-03 0. -1.
    9900012    2    1    2    0    0  0.21950931606E+01  0.14376102101E+01 -0.18541780013E+02  0.72461474344E+02  0.69999875006E+02 0.  0.
        -12    1    1    2    0    0 -0.21950931606E+01 -0.14376102101E+01  0.18541780013E+02  0.18726525656E+02  0.00000000000E+00 0.  1.
         11    1    3    3    0    0  0.34032243506E+01  0.11137484229E+02  0.41974761176E+00  0.11653397756E+02  0.51100000000E-03 0. -1.
        -11    1    3    3    0    0 -0.11276602469E+02  0.21259149408E+02 -0.21288918567E+01  0.24158753643E+02  0.51100000000E-03 0.  1.
         12    1    3    3    0    0  0.10068471279E+02 -0.30959023426E+02 -0.16832635768E+02  0.36649322945E+02  0.00000000000E+00 0. -1.
</event>
<event>
 7    1  0.2604986E-013  0.7246159E+02  0.7816164E-02  0.1226708E+00
        -11   -1    0    0    0    0  0.00000000000E+00  0.00000000000E+00  0.45593999997E+02  0.45594000000E+02  0.51100000000E-03 0. -1.
         11   -1    0    0    0    0 -0.00000000000E+00 -0.00000000000E+00 -0.45593999997E+02  0.45594000000E+02  0.51100000000E-03 0.  1.
    9900012    2    1    2    0    0  0.35595570926E+01  0.18363907390E+02 -0.88018348200E+00  0.72461594464E+02  0.70000031486E+02 0.  0.
        -12    1    1    2    0    0 -0.35595570926E+01 -0.18363907390E+02  0.88018348200E+00  0.18726405536E+02  0.00000000000E+00 0.  1.
         11    1    3    3    0    0  0.85447644108E+01 -0.57675387814E+01  0.24240935769E+02  0.26341990617E+02  0.51100000000E-03 0. -1.
        -11    1    3    3    0    0  0.27947043931E+01  0.25872941108E+01  0.62241516013E+01  0.72968847378E+01  0.51100000000E-03 0.  1.
        -12    1    3    3    0    0 -0.77799117113E+01  0.21544152061E+02 -0.31345270852E+02  0.38822719110E+02  0.00000000000E+00 0.  1.
</event>
<event>
 7    1  0.2604986E-013  0.7246164E+02  0.7816164E-02  0.1226708E+00
        -11   -1    0    0    0    0  0.00000000000E+00  0.00000000000E+00  0.45593999997E+02  0.45594000000E+02  0.51100000000E-03 0. -1.
         11   -1    0    0    0    0 -0.00000000000E+00 -0.00000000000E+00 -0.45593999997E+02  0.45594000000E+02  0.51100000000E-03 0.  1.
    9900012    2    1    2    0    0  0.12741514835E+02 -0.78671081268E+01  0.11244505329E+02  0.72461641821E+02  0.70000093176E+02 0.  0.
        -12    1    1    2    0    0 -0.12741514835E+02  0.78671081268E+01 -0.11244505329E+02  0.18726358179E+02  0.00000000000E+00 0.  1.
         11    1    3    3    0    0  0.19968584748E+02  0.57382425777E+01 -0.49446999457E+01  0.21357009681E+02  0.51100000000E-03 0. -1.
        -11    1    3    3    0    0 -0.12156076734E+02  0.12844821904E+02 -0.31585960392E+01  0.17964865168E+02  0.51100000000E-03 0.  1.
         12    1    3    3    0    0  0.49290068219E+01 -0.26450172608E+02  0.19347801314E+02  0.33139766971E+02  0.00000000000E+00 0. -1.
</event>
<event>
 7    1  0.2604986E-013  0.7246232E+02  0.7816164E-02  0.1226706E+00
        -11   -1    0    0    0    0  0.00000000000E+00  0.00000000000E+00  0.45593999997E+02  0.45594000000E+02  0.51100000000E-03 0. -1.
         11   -1    0    0    0    0 -0.00000000000E+00 -0.00000000000E+00 -0.45593999997E+02  0.45594000000E+02  0.51100000000E-03 0.  1.
    9900012    2    1    2    0    0 -0.28853332535E+01  0.31840955903E+01  0.18226013244E+02  0.72462317864E+02  0.70000973841E+02 0.  0.
        -12    1    1    2    0    0  0.28853332535E+01 -0.31840955903E+01 -0.18226013244E+02  0.18725682136E+02  0.00000000000E+00 0.  1.
         11    1    3    3    0    0  0.12025741918E+02 -0.53206364848E+01 -0.13619594613E+02  0.18932009903E+02  0.51100000000E-03 0. -1.
        -11    1    3    3    0    0  0.56796126949E+01 -0.27178001395E+01 -0.62010299293E+01  0.88372626083E+01  0.51100000000E-03 0.  1.
         12    1    3    3    0    0 -0.20590687866E+02  0.11222532214E+02  0.38046637786E+02  0.44693045353E+02  0.00000000000E+00 0. -1.
</event>
<event>
 7    1  0.2604986E-013  0.7246159E+02  0.7816164E-02  0.1226708E+00
        -11   -1    0    0    0    0  0.00000000000E+00  0.00000000000E+00  0.45593999997E+02  0.45594000000E+02  0.51100000000E-03 0.  1.
         11   -1    0    0    0    0 -0.00000000000E+00 -0.00000000000E+00 -0.45593999997E+02  0.45594000000E+02  0.51100000000E-03 0. -1.
    9900012    2    1    2    0    0 -0.16640375629E+02  0.15417816661E+01 -0.84498091924E+01  0.72461589047E+02  0.70000024429E+02 0.  0.
        -12    1    1    2    0    0  0.16640375629E+02 -0.15417816661E+01  0.84498091924E+01  0.18726410953E+02  0.00000000000E+00 0.  1.
         11    1    3    3    0    0 -0.11537816483E+02 -0.66074763732E+01  0.20853974883E+02  0.24731927177E+02  0.51100000000E-03 0. -1.
        -11    1    3    3    0    0  0.73484753985E+01  0.14367182996E+02 -0.97498169447E+00  0.16166837276E+02  0.51100000000E-03 0.  1.
         12    1    3    3    0    0 -0.12451034544E+02 -0.62179249571E+01 -0.28328802381E+02  0.31562824594E+02  0.00000000000E+00 0. -1.
</event>
<event>
 7    1  0.2604986E-013  0.7246165E+02  0.7816164E-02  0.1226708E+00
        -11   -1    0    0    0    0  0.00000000000E+00  0.00000000000E+00  0.45593999997E+02  0.45594000000E+02  0.51100000000E-03 0. -1.
         11   -1    0    0    0    0 -0.00000000000E+00 -0.00000000000E+00 -0.45593999997E+02  0.45594000000E+02  0.51100000000E-03 0.  1.
    9900012    2    1    2    0    0 -0.18313643425E+02  0.20739450293E+01  0.33143967206E+01  0.72461654678E+02  0.70000109925E+02 0.  0.
        -12    1    1    2    0    0  0.18313643425E+02 -0.20739450293E+01 -0.33143967206E+01  0.18726345322E+02  0.00000000000E+00 0.  1.
         11    1    3    3    0    0  0.16758583249E+01  0.19583946055E+01 -0.47844002835E+01  0.54345466131E+01  0.51100000000E-03 0. -1.
        -11    1    3    3    0    0  0.97393229476E+01  0.18180582503E+02 -0.14794838303E+02  0.25382577337E+02  0.51100000000E-03 0.  1.
         12    1    3    3    0    0 -0.29728824698E+02 -0.18065032079E+02  0.22893635307E+02  0.41644530727E+02  0.00000000000E+00 0. -1.
</event>
<event>
 7    1  0.2604986E-013  0.7246156E+02  0.7816164E-02  0.1226708E+00
        -11   -1    0    0    0    0  0.00000000000E+00  0.00000000000E+00  0.45593999997E+02  0.45594000000E+02  0.51100000000E-03 0.  1.
         11   -1    0    0    0    0 -0.00000000000E+00 -0.00000000000E+00 -0.45593999997E+02  0.45594000000E+02  0.51100000000E-03 0. -1.
    9900012    2    1    2    0    0  0.11640396165E+01  0.76910280418E+01 -0.17034450474E+02  0.72461564046E+02  0.69999991861E+02 0.  0.
        -12    1    1    2    0    0 -0.11640396165E+01 -0.76910280418E+01  0.17034450474E+02  0.18726435954E+02  0.00000000000E+00 0.  1.
         11    1    3    3    0    0  0.24900874770E+02 -0.75388824285E+01  0.20068991509E+01  0.26094366386E+02  0.51100000000E-03 0. -1.
        -11    1    3    3    0    0 -0.28428437808E+01  0.10123283205E+02  0.69696623624E+01  0.12615023476E+02  0.51100000000E-03 0.  1.
        -12    1    3    3    0    0 -0.20893991373E+02  0.51066272658E+01 -0.26011011988E+02  0.33752174184E+02  0.00000000000E+00 0.  1.
</event>
<event>
 7    1  0.2604986E-013  0.7246153E+02  0.7816164E-02  0.1226708E+00
        -11   -1    0    0    0    0  0.00000000000E+00  0.00000000000E+00  0.45593999997E+02  0.45594000000E+02  0.51100000000E-03 0.  1.
         11   -1    0    0    0    0 -0.00000000000E+00 -0.00000000000E+00 -0.45593999997E+02  0.45594000000E+02  0.51100000000E-03 0. -1.
    9900012    2    1    2    0    0 -0.45167811296E+00 -0.22545454837E+01 -0.18584770726E+02  0.72461529660E+02  0.69999947067E+02 0.  0.
        -12    1    1    2    0    0  0.45167811296E+00  0.22545454837E+01  0.18584770726E+02  0.18726470340E+02  0.00000000000E+00 0.  1.
         11    1    3    3    0    0 -0.45714843817E+01  0.22075492879E+02 -0.30132244628E+02  0.37632140809E+02  0.51100000000E-03 0. -1.
        -11    1    3    3    0    0  0.13085728204E+02 -0.15184343351E+02  0.73955013448E+01  0.21365720349E+02  0.51100000000E-03 0.  1.
        -12    1    3    3    0    0 -0.89659219356E+01 -0.91456950112E+01  0.41519725579E+01  0.13463668501E+02  0.00000000000E+00 0.  1.
</event>
<event>
 7    1  0.2604986E-013  0.7246157E+02  0.7816164E-02  0.1226708E+00
        -11   -1    0    0    0    0  0.00000000000E+00  0.00000000000E+00  0.45593999997E+02  0.45594000000E+02  0.51100000000E-03 0.  1.
         11   -1    0    0    0    0 -0.00000000000E+00 -0.00000000000E+00 -0.45593999997E+02  0.45594000000E+02  0.51100000000E-03 0. -1.
    9900012    2    1    2    0    0 -0.69155680084E+01  0.77179031842E+00 -0.17385578754E+02  0.72461572423E+02  0.70000002773E+02 0.  0.
        -12    1    1    2    0    0  0.69155680084E+01 -0.77179031842E+00  0.17385578754E+02  0.18726427577E+02  0.00000000000E+00 0.  1.
         11    1    3    3    0    0  0.46563193389E+01  0.46098026206E+01 -0.11698761244E+02  0.13408676478E+02  0.51100000000E-03 0. -1.
        -11    1    3    3    0    0  0.20441150787E+02 -0.15658386687E+01  0.10582377582E+02  0.23071177079E+02  0.51100000000E-03 0.  1.
         12    1    3    3    0    0 -0.32013038135E+02 -0.22721736335E+01 -0.16269195092E+02  0.35981718866E+02  0.00000000000E+00 0. -1.
</event>
<event>
 7    1  0.2604986E-013  0.7246154E+02  0.7816164E-02  0.1226708E+00
        -11   -1    0    0    0    0  0.00000000000E+00  0.00000000000E+00  0.45593999997E+02  0.45594000000E+02  0.51100000000E-03 0. -1.
         11   -1    0    0    0    0 -0.00000000000E+00 -0.00000000000E+00 -0.45593999997E+02  0.45594000000E+02  0.51100000000E-03 0.  1.
    9900012    2    1    2    0    0 -0.15485740243E+02  0.10524904098E+02 -0.31403580913E+00  0.72461538091E+02  0.69999958049E+02 0.  0.
        -12    1    1    2    0    0  0.15485740243E+02 -0.10524904098E+02  0.31403580913E+00  0.18726461909E+02  0.00000000000E+00 0.  1.
         11    1    3    3    0    0 -0.24900014499E+00 -0.43938489442E+00  0.82658820291E+01  0.82812961629E+01  0.51100000000E-03 0. -1.
        -11    1    3    3    0    0 -0.53520126473E+00  0.33120044625E+02  0.62881860994E+01  0.33715946984E+02  0.51100000000E-03 0.  1.
         12    1    3    3    0    0 -0.14701538834E+02 -0.22155755633E+02 -0.14868103938E+02  0.30464294944E+02  0.00000000000E+00 0. -1.
</event>
<event>
 7    1  0.2604986E-013  0.7246152E+02  0.7816164E-02  0.1226708E+00
        -11   -1    0    0    0    0  0.00000000000E+00  0.00000000000E+00  0.45593999997E+02  0.45594000000E+02  0.51100000000E-03 0. -1.
         11   -1    0    0    0    0 -0.00000000000E+00 -0.00000000000E+00 -0.45593999997E+02  0.45594000000E+02  0.51100000000E-03 0.  1.
    9900012    2    1    2    0    0 -0.14217047729E+02  0.75213096870E+01 -0.95909543503E+01  0.72461522732E+02  0.69999938041E+02 0.  0.
        -12    1    1    2    0    0  0.14217047729E+02 -0.75213096870E+01  0.95909543503E+01  0.18726477268E+02  0.00000000000E+00 0.  1.
         11    1    3    3    0    0  0.19489019863E+02 -0.22968469410E+00 -0.62137245132E+01  0.20456906483E+02  0.51100000000E-03 0.  1.
        -11    1    3    3    0    0  0.78134966709E+00 -0.10853020530E+02  0.49340836437E+01  0.11947541320E+02  0.51100000000E-03 0. -1.
         12    1    3    3    0    0 -0.34487417259E+02  0.18604014911E+02 -0.83113134808E+01  0.40057074928E+02  0.00000000000E+00 0. -1.
</event>
<event>
 7    1  0.2604986E-013  0.7246230E+02  0.7816164E-02  0.1226706E+00
        -11   -1    0    0    0    0  0.00000000000E+00  0.00000000000E+00  0.45593999997E+02  0.45594000000E+02  0.51100000000E-03 0. -1.
         11   -1    0    0    0    0 -0.00000000000E+00 -0.00000000000E+00 -0.45593999997E+02  0.45594000000E+02  0.51100000000E-03 0.  1.
    9900012    2    1    2    0    0  0.13251493597E+02  0.47985217127E+01  0.12329796689E+02  0.72462301627E+02  0.70000952690E+02 0.  0.
        -12    1    1    2    0    0 -0.13251493597E+02 -0.47985217127E+01 -0.12329796689E+02  0.18725698373E+02  0.00000000000E+00 0.  1.
         11    1    3    3    0    0  0.26293074504E+02 -0.95453727456E+01 -0.11567746756E+02  0.30269665889E+02  0.51100000000E-03 0. -1.
        -11    1    3    3    0    0 -0.34446095309E+01 -0.72757938475E+00 -0.62353546828E+01  0.71606113470E+01  0.51100000000E-03 0.  1.
        -12    1    3    3    0    0 -0.95969713769E+01  0.15071473843E+02  0.30132898127E+02  0.35032024391E+02  0.00000000000E+00 0.  1.
</event>
<event>
 7    1  0.2604986E-013  0.7246170E+02  0.7816164E-02  0.1226708E+00
        -11   -1    0    0    0    0  0.00000000000E+00  0.00000000000E+00  0.45593999997E+02  0.45594000000E+02  0.51100000000E-03 0.  1.
         11   -1    0    0    0    0 -0.00000000000E+00 -0.00000000000E+00 -0.45593999997E+02  0.45594000000E+02  0.51100000000E-03 0. -1.
    9900012    2    1    2    0    0  0.16473615250E+02  0.67160861642E+01 -0.58470880332E+01  0.72461701614E+02  0.70000171069E+02 0.  0.
        -12    1    1    2    0    0 -0.16473615250E+02 -0.67160861642E+01  0.58470880332E+01  0.18726298386E+02  0.00000000000E+00 0.  1.
         11    1    3    3    0    0  0.34708897366E+01  0.60790582510E+01 -0.63412257824E+01  0.94452723342E+01  0.51100000000E-03 0. -1.
        -11    1    3    3    0    0  0.21511804200E+02  0.99447688862E+01 -0.25077524839E+02  0.34504179463E+02  0.51100000000E-03 0.  1.
        -12    1    3    3    0    0 -0.85090786867E+01 -0.93077409730E+01  0.25571662588E+02  0.28512249817E+02  0.00000000000E+00 0.  1.
</event>
<event>
 7    1  0.2604986E-013  0.7246207E+02  0.7816164E-02  0.1226707E+00
        -11   -1    0    0    0    0  0.00000000000E+00  0.00000000000E+00  0.45593999997E+02  0.45594000000E+02  0.51100000000E-03 0.  1.
         11   -1    0    0    0    0 -0.00000000000E+00 -0.00000000000E+00 -0.45593999997E+02  0.45594000000E+02  0.51100000000E-03 0. -1.
    9900012    2    1    2    0    0  0.85827900264E+01 -0.16274679458E+01 -0.16563435957E+02  0.72462072860E+02  0.70000654682E+02 0.  0.
        -12    1    1    2    0    0 -0.85827900264E+01  0.16274679458E+01  0.16563435957E+02  0.18725927140E+02  0.00000000000E+00 0.  1.
         11    1    3    3    0    0  0.96023285983E+01  0.10604026198E+02 -0.20029432941E+01  0.14445133029E+02  0.51100000000E-03 0. -1.
        -11    1    3    3    0    0  0.12155175497E+02  0.46978749705E+01  0.16027381807E+02  0.20656603992E+02  0.51100000000E-03 0.  1.
         12    1    3    3    0    0 -0.13174714069E+02 -0.16929369115E+02 -0.30587874470E+02  0.37360335839E+02  0.00000000000E+00 0. -1.
</event>
<event>
 7    1  0.2604986E-013  0.7246165E+02  0.7816164E-02  0.1226708E+00
        -11   -1    0    0    0    0  0.00000000000E+00  0.00000000000E+00  0.45593999997E+02  0.45594000000E+02  0.51100000000E-03 0. -1.
         11   -1    0    0    0    0 -0.00000000000E+00 -0.00000000000E+00 -0.45593999997E+02  0.45594000000E+02  0.51100000000E-03 0.  1.
    9900012    2    1    2    0    0 -0.78766328092E+00  0.18176945316E+02 -0.44333221713E+01  0.72461652253E+02  0.70000106767E+02 0.  0.
        -12    1    1    2    0    0  0.78766328092E+00 -0.18176945316E+02  0.44333221713E+01  0.18726347747E+02  0.00000000000E+00 0.  1.
         11    1    3    3    0    0 -0.70122708054E+01  0.16965687350E+01  0.24132724543E+02  0.25188066251E+02  0.51100000000E-03 0. -1.
        -11    1    3    3    0    0 -0.59341053534E+01  0.79165075201E+01  0.46112771413E+01  0.10915519905E+02  0.51100000000E-03 0.  1.
        -12    1    3    3    0    0  0.12158712878E+02  0.85638690608E+01 -0.33177323856E+02  0.36358066098E+02  0.00000000000E+00 0.  1.
</event>
<event>
 7    1  0.2604986E-013  0.7246163E+02  0.7816164E-02  0.1226708E+00
        -11   -1    0    0    0    0  0.00000000000E+00  0.00000000000E+00  0.45593999997E+02  0.45594000000E+02  0.51100000000E-03 0. -1.
         11   -1    0    0    0    0 -0.00000000000E+00 -0.00000000000E+00 -0.45593999997E+02  0.45594000000E+02  0.51100000000E-03 0.  1.
    9900012    2    1    2    0    0  0.10986533262E+02  0.91035275028E+01  0.12128434764E+02  0.72461626728E+02  0.70000073515E+02 0.  0.
        -12    1    1    2    0    0 -0.10986533262E+02 -0.91035275028E+01 -0.12128434764E+02  0.18726373272E+02  0.00000000000E+00 0.  1.
         11    1    3    3    0    0 -0.49457946035E+00  0.11847611199E+02 -0.13936032189E+01  0.11939540618E+02  0.51100000000E-03 0. -1.
        -11    1    3    3    0    0 -0.23351907504E+02  0.63907844338E+00  0.11020113764E+01  0.23386629400E+02  0.51100000000E-03 0.  1.
         12    1    3    3    0    0  0.34833020227E+02 -0.33831621399E+01  0.12420026606E+02  0.37135456710E+02  0.00000000000E+00 0. -1.
</event>
<event>
 7    1  0.2604986E-013  0.7246156E+02  0.7816164E-02  0.1226708E+00
        -11   -1    0    0    0    0  0.00000000000E+00  0.00000000000E+00  0.45593999997E+02  0.45594000000E+02  0.51100000000E-03 0.  1.
         11   -1    0    0    0    0 -0.00000000000E+00 -0.00000000000E+00 -0.45593999997E+02  0.45594000000E+02  0.51100000000E-03 0. -1.
    9900012    2    1    2    0    0 -0.14458890706E+02  0.63916511893E+01 -0.10038269334E+02  0.72461559425E+02  0.69999985841E+02 0.  0.
        -12    1    1    2    0    0  0.14458890706E+02 -0.63916511893E+01  0.10038269334E+02  0.18726440575E+02  0.00000000000E+00 0.  1.
         11    1    3    3    0    0 -0.35530706053E+01  0.25078604521E+02 -0.21815551811E+02  0.33428715448E+02  0.51100000000E-03 0. -1.
        -11    1    3    3    0    0 -0.17596344683E+02 -0.10549535957E+02 -0.31558665290E+01  0.20757734677E+02  0.51100000000E-03 0.  1.
        -12    1    3    3    0    0  0.66905245824E+01 -0.81374173747E+01  0.14933149005E+02  0.18275109300E+02  0.00000000000E+00 0.  1.
</event>
<event>
 7    1  0.2604986E-013  0.7246156E+02  0.7816164E-02  0.1226708E+00
        -11   -1    0    0    0    0  0.00000000000E+00  0.00000000000E+00  0.45593999997E+02  0.45594000000E+02  0.51100000000E-03 0. -1.
         11   -1    0    0    0    0 -0.00000000000E+00 -0.00000000000E+00 -0.45593999997E+02  0.45594000000E+02  0.51100000000E-03 0.  1.
    9900012    2    1    2    0    0 -0.17094383903E+02  0.56434544777E+01  0.51587637242E+01  0.72461564604E+02  0.69999992587E+02 0.  0.
        -12    1    1    2    0    0  0.17094383903E+02 -0.56434544777E+01 -0.51587637242E+01  0.18726435396E+02  0.00000000000E+00 0.  1.
         11    1    3    3    0    0 -0.11230926224E+02 -0.10527017218E+01 -0.10979570662E+01  0.11333463493E+02  0.51100000000E-03 0. -1.
        -11    1    3    3    0    0 -0.76888409174E+01 -0.26323865941E+01 -0.26135543445E+02  0.27369953695E+02  0.51100000000E-03 0.  1.
         12    1    3    3    0    0  0.18253832386E+01  0.93285427936E+01  0.32392264236E+02  0.33758147416E+02  0.00000000000E+00 0. -1.
</event>
<event>
 7    1  0.2604986E-013  0.7246158E+02  0.7816164E-02  0.1226708E+00
        -11   -1    0    0    0    0  0.00000000000E+00  0.00000000000E+00  0.45593999997E+02  0.45594000000E+02  0.51100000000E-03 0. -1.
         11   -1    0    0    0    0 -0.00000000000E+00 -0.00000000000E+00 -0.45593999997E+02  0.45594000000E+02  0.51100000000E-03 0.  1.
    9900012    2    1    2    0    0  0.81996643344E+01 -0.16782615511E+02 -0.13372199850E+01  0.72461579203E+02  0.70000011605E+02 0.  0.
        -12    1    1    2    0    0 -0.81996643344E+01  0.16782615511E+02  0.13372199850E+01  0.18726420797E+02  0.00000000000E+00 0.  1.
         11    1    3    3    0    0  0.25977442738E+02 -0.12752717596E+02 -0.16298264542E+02  0.33212840358E+02  0.51100000000E-03 0. -1.
        -11    1    3    3    0    0 -0.61230899155E+01 -0.16146147600E+02  0.14305769278E+02  0.22424213416E+02  0.51100000000E-03 0.  1.
        -12    1    3    3    0    0 -0.11654688488E+02  0.12116249686E+02  0.65527527963E+00  0.16824525429E+02  0.00000000000E+00 0.  1.
</event>
<event>
 7    1  0.2604986E-013  0.7246153E+02  0.7816164E-02  0.1226708E+00
        -11   -1    0    0    0    0  0.00000000000E+00  0.00000000000E+00  0.45593999997E+02  0.45594000000E+02  0.51100000000E-03 0.  1.
         11   -1    0    0    0    0 -0.00000000000E+00 -0.00000000000E+00 -0.45593999997E+02  0.45594000000E+02  0.51100000000E-03 0. -1.
    9900012    2    1    2    0    0 -0.21560016716E+01  0.17613981591E+02 -0.59816476284E+01  0.72461526786E+02  0.69999943322E+02 0.  0.
        -12    1    1    2    0    0  0.21560016716E+01 -0.17613981591E+02  0.59816476284E+01  0.18726473214E+02  0.00000000000E+00 0.  1.
         11    1    3    3    0    0  0.98182284319E+01 -0.11562695203E+02 -0.22182847921E+02  0.26873263145E+02  0.51100000000E-03 0. -1.
        -11    1    3    3    0    0  0.27162893850E+01 -0.82122587480E+00 -0.51961266076E+01  0.59205043657E+01  0.51100000000E-03 0.  1.
        -12    1    3    3    0    0 -0.14690519488E+02  0.29997902669E+02  0.21397326901E+02  0.39667759275E+02  0.00000000000E+00 0.  1.
</event>
<event>
 7    1  0.2604986E-013  0.7246159E+02  0.7816164E-02  0.1226708E+00
        -11   -1    0    0    0    0  0.00000000000E+00  0.00000000000E+00  0.45593999997E+02  0.45594000000E+02  0.51100000000E-03 0.  1.
         11   -1    0    0    0    0 -0.00000000000E+00 -0.00000000000E+00 -0.45593999997E+02  0.45594000000E+02  0.51100000000E-03 0. -1.
    9900012    2    1    2    0    0 -0.10509119424E+02 -0.14583927848E+02 -0.52484306237E+01  0.72461586393E+02  0.70000020972E+02 0.  0.
        -12    1    1    2    0    0  0.10509119424E+02  0.14583927848E+02  0.52484306237E+01  0.18726413607E+02  0.00000000000E+00 0.  1.
         11    1    3    3    0    0 -0.12117719482E+02 -0.21330151679E+02 -0.99526578034E+01  0.26473947453E+02  0.51100000000E-03 0. -1.
        -11    1    3    3    0    0  0.15234592156E+02 -0.13061275732E+02 -0.39189582670E+01  0.20446221070E+02  0.51100000000E-03 0.  1.
        -12    1    3    3    0    0 -0.13625992097E+02  0.19807499563E+02  0.86231854466E+01  0.25541417870E+02  0.00000000000E+00 0.  1.
</event>
<event>
 7    1  0.2604986E-013  0.7246158E+02  0.7816164E-02  0.1226708E+00
        -11   -1    0    0    0    0  0.00000000000E+00  0.00000000000E+00  0.45593999997E+02  0.45594000000E+02  0.51100000000E-03 0. -1.
         11   -1    0    0    0    0 -0.00000000000E+00 -0.00000000000E+00 -0.45593999997E+02  0.45594000000E+02  0.51100000000E-03 0.  1.
    9900012    2    1    2    0    0  0.50514372873E+01  0.13918920509E+01  0.17978440555E+02  0.72461582646E+02  0.70000016090E+02 0.  0.
        -12    1    1    2    0    0 -0.50514372873E+01 -0.13918920509E+01 -0.17978440555E+02  0.18726417354E+02  0.00000000000E+00 0.  1.
         11    1    3    3    0    0  0.18899136563E+02  0.12973343623E+02 -0.48707367782E+01  0.23435210360E+02  0.51100000000E-03 0. -1.
        -11    1    3    3    0    0 -0.89255590140E+01 -0.23353372118E+01 -0.10554759645E+02  0.14018643123E+02  0.51100000000E-03 0.  1.
        -12    1    3    3    0    0 -0.49221402621E+01 -0.92461143599E+01  0.33403936977E+02  0.35007729162E+02  0.00000000000E+00 0.  1.
</event>
<event>
 7    1  0.2604986E-013  0.7246159E+02  0.7816164E-02  0.1226708E+00
        -11   -1    0    0    0    0  0.00000000000E+00  0.00000000000E+00  0.45593999997E+02  0.45594000000E+02  0.51100000000E-03 0. -1.
         11   -1    0    0    0    0 -0.00000000000E+00 -0.00000000000E+00 -0.45593999997E+02  0.45594000000E+02  0.51100000000E-03 0.  1.
    9900012    2    1    2    0    0 -0.29539189113E+01 -0.18325475196E+02  0.24758661127E+01  0.72461585739E+02  0.70000020119E+02 0.  0.
        -12    1    1    2    0    0  0.29539189113E+01  0.18325475196E+02 -0.24758661127E+01  0.18726414261E+02  0.00000000000E+00 0.  1.
         11    1    3    3    0    0  0.87516090854E+01  0.17840572696E+01 -0.20824045491E+01  0.91711466509E+01  0.51100000000E-03 0. -1.
        -11    1    3    3    0    0  0.61904905588E+01  0.97372167967E+01 -0.18314379317E+02  0.21646063252E+02  0.51100000000E-03 0.  1.
         12    1    3    3    0    0 -0.17896018556E+02 -0.29846749262E+02  0.22872649979E+02  0.41644375835E+02  0.00000000000E+00 0. -1.
</event>
<event>
 7    1  0.2604986E-013  0.7246162E+02  0.7816164E-02  0.1226708E+00
        -11   -1    0    0    0    0  0.00000000000E+00  0.00000000000E+00  0.45593999997E+02  0.45594000000E+02  0.51100000000E-03 0.  1.
         11   -1    0    0    0    0 -0.00000000000E+00 -0.00000000000E+00 -0.45593999997E+02  0.45594000000E+02  0.51100000000E-03 0. -1.
    9900012    2    1    2    0    0 -0.56839878255E+01  0.57090617938E+01 -0.16904921351E+02  0.72461615671E+02  0.70000059111E+02 0.  0.
        -12    1    1    2    0    0  0.56839878255E+01 -0.57090617938E+01  0.16904921351E+02  0.18726384329E+02  0.00000000000E+00 0.  1.
         11    1    3    3    0    0  0.16284419319E+02  0.97847533105E+01 -0.20164930135E+02  0.27704658769E+02  0.51100000000E-03 0. -1.
        -11    1    3    3    0    0 -0.19082594900E+02 -0.15947111090E+02 -0.99302127623E+01  0.26778067630E+02  0.51100000000E-03 0.  1.
        -12    1    3    3    0    0 -0.28858122445E+01  0.11871419573E+02  0.13190221546E+02  0.17978889272E+02  0.00000000000E+00 0.  1.
</event>
<event>
 7    1  0.2604986E-013  0.7246154E+02  0.7816164E-02  0.1226708E+00
        -11   -1    0    0    0    0  0.00000000000E+00  0.00000000000E+00  0.45593999997E+02  0.45594000000E+02  0.51100000000E-03 0. -1.
         11   -1    0    0    0    0 -0.00000000000E+00 -0.00000000000E+00 -0.45593999997E+02  0.45594000000E+02  0.51100000000E-03 0.  1.
    9900012    2    1    2    0    0 -0.11521360666E+02  0.34036493962E+01  0.14365018048E+02  0.72461539461E+02  0.69999959833E+02 0.  0.
        -12    1    1    2    0    0  0.11521360666E+02 -0.34036493962E+01 -0.14365018048E+02  0.18726460539E+02  0.00000000000E+00 0.  1.
         11    1    3    3    0    0  0.50793685372E+01  0.17789569787E+02  0.61695077486E+01  0.19502092300E+02  0.51100000000E-03 0. -1.
        -11    1    3    3    0    0 -0.20927147581E+02  0.12850373449E+02  0.60895041111E+01  0.25301376726E+02  0.51100000000E-03 0.  1.
        -12    1    3    3    0    0  0.43264183774E+01 -0.27236293840E+02  0.21060061884E+01  0.27658070435E+02  0.00000000000E+00 0.  1.
</event>
<event>
 7    1  0.2604986E-013  0.7246158E+02  0.7816164E-02  0.1226708E+00
        -11   -1    0    0    0    0  0.00000000000E+00  0.00000000000E+00  0.45593999997E+02  0.45594000000E+02  0.51100000000E-03 0.  1.
         11   -1    0    0    0    0 -0.00000000000E+00 -0.00000000000E+00 -0.45593999997E+02  0.45594000000E+02  0.51100000000E-03 0. -1.
    9900012    2    1    2    0    0 -0.18046346328E+02 -0.15736277322E+01  0.47467938638E+01  0.72461575568E+02  0.70000006870E+02 0.  0.
        -12    1    1    2    0    0  0.18046346328E+02  0.15736277322E+01 -0.47467938638E+01  0.18726424432E+02  0.00000000000E+00 0.  1.
         11    1    3    3    0    0  0.16974284211E+02  0.12229093177E+02 -0.67377142237E+01  0.21978940776E+02  0.51100000000E-03 0. -1.
        -11    1    3    3    0    0 -0.67686033656E+01  0.96275807102E+01 -0.75255020601E+00  0.11792821288E+02  0.51100000000E-03 0.  1.
         12    1    3    3    0    0 -0.28252027172E+02 -0.23430301620E+02  0.12237058294E+02  0.38689813505E+02  0.00000000000E+00 0. -1.
</event>
<event>
 7    1  0.2604986E-013  0.7246209E+02  0.7816164E-02  0.1226707E+00
        -11   -1    0    0    0    0  0.00000000000E+00  0.00000000000E+00  0.45593999997E+02  0.45594000000E+02  0.51100000000E-03 0. -1.
         11   -1    0    0    0    0 -0.00000000000E+00 -0.00000000000E+00 -0.45593999997E+02  0.45594000000E+02  0.51100000000E-03 0.  1.
    9900012    2    1    2    0    0  0.12093652678E+02 -0.14296957824E+02  0.16910350624E-01  0.72462089500E+02  0.70000676358E+02 0.  0.
        -12    1    1    2    0    0 -0.12093652678E+02  0.14296957824E+02 -0.16910350624E-01  0.18725910500E+02  0.00000000000E+00 0.  1.
         11    1    3    3    0    0  0.32360171845E+02 -0.11448004044E+02  0.13625102531E+02  0.36930758694E+02  0.51100000000E-03 0. -1.
        -11    1    3    3    0    0  0.33610006877E+01  0.65745246098E+01 -0.31724844064E+01  0.80365015422E+01  0.51100000000E-03 0.  1.
        -12    1    3    3    0    0 -0.23627519856E+02 -0.94234783899E+01 -0.10435707774E+02  0.27494829264E+02  0.00000000000E+00 0.  1.
</event>
<event>
 7    1  0.2604986E-013  0.7246161E+02  0.7816164E-02  0.1226708E+00
        -11   -1    0    0    0    0  0.00000000000E+00  0.00000000000E+00  0.45593999997E+02  0.45594000000E+02  0.51100000000E-03 0.  1.
         11   -1    0    0    0    0 -0.00000000000E+00 -0.00000000000E+00 -0.45593999997E+02  0.45594000000E+02  0.51100000000E-03 0. -1.
    9900012    2    1    2    0    0  0.14409465739E+02 -0.31626094494E+01  0.11534422763E+02  0.72461609267E+02  0.70000050769E+02 0.  0.
        -12    1    1    2    0    0 -0.14409465739E+02  0.31626094494E+01 -0.11534422763E+02  0.18726390733E+02  0.00000000000E+00 0.  1.
         11    1    3    3    0    0 -0.90822072955E+01  0.20465937058E+01  0.10042300239E+02  0.13693897528E+02  0.51100000000E-03 0. -1.
        -11    1    3    3    0    0 -0.11120397829E+02  0.12191577483E+02  0.97371296707E+01  0.19160101875E+02  0.51100000000E-03 0.  1.
         12    1    3    3    0    0  0.34612070863E+02 -0.17400780638E+02 -0.82450071474E+01  0.39607609864E+02  0.00000000000E+00 0. -1.
</event>
<event>
 7    1  0.2604986E-013  0.7246160E+02  0.7816164E-02  0.1226708E+00
        -11   -1    0    0    0    0  0.00000000000E+00  0.00000000000E+00  0.45593999997E+02  0.45594000000E+02  0.51100000000E-03 0.  1.
         11   -1    0    0    0    0 -0.00000000000E+00 -0.00000000000E+00 -0.45593999997E+02  0.45594000000E+02  0.51100000000E-03 0. -1.
    9900012    2    1    2    0    0  0.13388727255E+02 -0.13039436762E+02 -0.11803185677E+01  0.72461599371E+02  0.70000037878E+02 0.  0.
        -12    1    1    2    0    0 -0.13388727255E+02  0.13039436762E+02  0.11803185677E+01  0.18726400629E+02  0.00000000000E+00 0.  1.
         11    1    3    3    0    0 -0.10069992936E+02 -0.15364736697E+02 -0.14777492902E+02  0.23576560145E+02  0.51100000000E-03 0. -1.
        -11    1    3    3    0    0 -0.71278242719E+01 -0.56308814243E+01  0.14678858171E+02  0.17262143029E+02  0.51100000000E-03 0.  1.
        -12    1    3    3    0    0  0.30586544463E+02  0.79561813594E+01 -0.10816838367E+01  0.31622896198E+02  0.00000000000E+00 0.  1.
</event>
<event>
 7    1  0.2604986E-013  0.7246162E+02  0.7816164E-02  0.1226708E+00
        -11   -1    0    0    0    0  0.00000000000E+00  0.00000000000E+00  0.45593999997E+02  0.45594000000E+02  0.51100000000E-03 0. -1.
         11   -1    0    0    0    0 -0.00000000000E+00 -0.00000000000E+00 -0.45593999997E+02  0.45594000000E+02  0.51100000000E-03 0.  1.
    9900012    2    1    2    0    0  0.73678668095E+01 -0.17138643244E+02 -0.16306021284E+01  0.72461617091E+02  0.70000060961E+02 0.  0.
        -12    1    1    2    0    0 -0.73678668095E+01  0.17138643244E+02  0.16306021284E+01  0.18726382909E+02  0.00000000000E+00 0.  1.
         11    1    3    3    0    0  0.16791886091E+02 -0.32460576615E+01 -0.14143876842E+02  0.22193548189E+02  0.51100000000E-03 0. -1.
        -11    1    3    3    0    0 -0.14521882373E+02 -0.21273478786E+02 -0.87395426445E+01  0.27199734800E+02  0.51100000000E-03 0.  1.
        -12    1    3    3    0    0  0.50978630914E+01  0.73808932037E+01  0.21252817358E+02  0.23068334102E+02  0.00000000000E+00 0.  1.
</event>
<event>
 7    1  0.2604986E-013  0.7246176E+02  0.7816164E-02  0.1226708E+00
        -11   -1    0    0    0    0  0.00000000000E+00  0.00000000000E+00  0.45593999997E+02  0.45594000000E+02  0.51100000000E-03 0. -1.
         11   -1    0    0    0    0 -0.00000000000E+00 -0.00000000000E+00 -0.45593999997E+02  0.45594000000E+02  0.51100000000E-03 0.  1.
    9900012    2    1    2    0    0 -0.41645173201E+01  0.52481849111E+01  0.17486724508E+02  0.72461756826E+02  0.70000242992E+02 0.  0.
        -12    1    1    2    0    0  0.41645173201E+01 -0.52481849111E+01 -0.17486724508E+02  0.18726243174E+02  0.00000000000E+00 0.  1.
         11    1    3    3    0    0 -0.13067171066E+02  0.16264357190E+02  0.11925634570E+02  0.24031251208E+02  0.51100000000E-03 0. -1.
        -11    1    3    3    0    0  0.21816816551E+02  0.68972549027E-01  0.17225705917E+02  0.27797539212E+02  0.51100000000E-03 0.  1.
         12    1    3    3    0    0 -0.12914162805E+02 -0.11085144828E+02 -0.11664615979E+02  0.20632966406E+02  0.00000000000E+00 0. -1.
</event>
<event>
 7    1  0.2604986E-013  0.7246163E+02  0.7816164E-02  0.1226708E+00
        -11   -1    0    0    0    0  0.00000000000E+00  0.00000000000E+00  0.45593999997E+02  0.45594000000E+02  0.51100000000E-03 0. -1.
         11   -1    0    0    0    0 -0.00000000000E+00 -0.00000000000E+00 -0.45593999997E+02  0.45594000000E+02  0.51100000000E-03 0.  1.
    9900012    2    1    2    0    0  0.77463268575E+01 -0.12096219926E+02  0.12014698372E+02  0.72461625732E+02  0.70000072217E+02 0.  0.
        -12    1    1    2    0    0 -0.77463268575E+01  0.12096219926E+02 -0.12014698372E+02  0.18726374268E+02  0.00000000000E+00 0.  1.
         11    1    3    3    0    0  0.10496575376E+02  0.17303180583E+02  0.27396662183E+02  0.34061051832E+02  0.51100000000E-03 0. -1.
        -11    1    3    3    0    0 -0.23462075044E+01 -0.53387853106E+01  0.43546487580E+01  0.72780687213E+01  0.51100000000E-03 0.  1.
        -12    1    3    3    0    0 -0.40404101417E+00 -0.24060615198E+02 -0.19736612569E+02  0.31122505178E+02  0.00000000000E+00 0.  1.
</event>
<event>
 7    1  0.2604986E-013  0.7246161E+02  0.7816164E-02  0.1226708E+00
        -11   -1    0    0    0    0  0.00000000000E+00  0.00000000000E+00  0.45593999997E+02  0.45594000000E+02  0.51100000000E-03 0.  1.
         11   -1    0    0    0    0 -0.00000000000E+00 -0.00000000000E+00 -0.45593999997E+02  0.45594000000E+02  0.51100000000E-03 0. -1.
    9900012    2    1    2    0    0  0.43671816550E+01 -0.30176681518E+01 -0.17958261430E+02  0.72461608189E+02  0.70000049364E+02 0.  0.
        -12    1    1    2    0    0 -0.43671816550E+01  0.30176681518E+01  0.17958261430E+02  0.18726391811E+02  0.00000000000E+00 0.  1.
         11    1    3    3    0    0 -0.31457292196E+01  0.48141963225E+01  0.98641950438E+01  0.11418162842E+02  0.51100000000E-03 0. -1.
        -11    1    3    3    0    0  0.51245537895E+01  0.22653384535E+02 -0.78341369953E+01  0.24511437843E+02  0.51100000000E-03 0.  1.
         12    1    3    3    0    0  0.23883570851E+01 -0.30485249009E+02 -0.19988319479E+02  0.36532007504E+02  0.00000000000E+00 0. -1.
</event>
<event>
 7    1  0.2604986E-013  0.7246170E+02  0.7816164E-02  0.1226708E+00
        -11   -1    0    0    0    0  0.00000000000E+00  0.00000000000E+00  0.45593999997E+02  0.45594000000E+02  0.51100000000E-03 0.  1.
         11   -1    0    0    0    0 -0.00000000000E+00 -0.00000000000E+00 -0.45593999997E+02  0.45594000000E+02  0.51100000000E-03 0. -1.
    9900012    2    1    2    0    0  0.13520216889E+02 -0.95837798654E+01 -0.87194685390E+01  0.72461702106E+02  0.70000171708E+02 0.  0.
        -12    1    1    2    0    0 -0.13520216889E+02  0.95837798654E+01  0.87194685390E+01  0.18726297894E+02  0.00000000000E+00 0.  1.
         11    1    3    3    0    0  0.25304975569E+01 -0.62234138945E+01 -0.11667962492E+02  0.13463864504E+02  0.51100000000E-03 0. -1.
        -11    1    3    3    0    0  0.23791810471E+02  0.54112341298E+01 -0.19825814644E+02  0.31438744040E+02  0.51100000000E-03 0.  1.
         12    1    3    3    0    0 -0.12802091139E+02 -0.87716001007E+01  0.22774308597E+02  0.27559093562E+02  0.00000000000E+00 0. -1.
</event>
<event>
 7    1  0.2604986E-013  0.7246159E+02  0.7816164E-02  0.1226708E+00
        -11   -1    0    0    0    0  0.00000000000E+00  0.00000000000E+00  0.45593999997E+02  0.45594000000E+02  0.51100000000E-03 0. -1.
         11   -1    0    0    0    0 -0.00000000000E+00 -0.00000000000E+00 -0.45593999997E+02  0.45594000000E+02  0.51100000000E-03 0.  1.
    9900012    2    1    2    0    0 -0.33400339853E+00  0.14970957656E+02  0.11244427977E+02  0.72461593726E+02  0.70000030524E+02 0.  0.
        -12    1    1    2    0    0  0.33400339853E+00 -0.14970957656E+02 -0.11244427977E+02  0.18726406274E+02  0.00000000000E+00 0.  1.
         11    1    3    3    0    0  0.93298685872E+01 -0.68787680113E+01 -0.79460065716E+00  0.11618747251E+02  0.51100000000E-03 0. -1.
        -11    1    3    3    0    0  0.65874415809E+01  0.27908955890E+02 -0.12095619492E+02  0.31122471248E+02  0.51100000000E-03 0.  1.
         12    1    3    3    0    0 -0.16251313567E+02 -0.60592302224E+01  0.24134648126E+02  0.29720375228E+02  0.00000000000E+00 0. -1.
</event>
<event>
 7    1  0.2604986E-013  0.7246150E+02  0.7816164E-02  0.1226708E+00
        -11   -1    0    0    0    0  0.00000000000E+00  0.00000000000E+00  0.45593999997E+02  0.45594000000E+02  0.51100000000E-03 0. -1.
         11   -1    0    0    0    0 -0.00000000000E+00 -0.00000000000E+00 -0.45593999997E+02  0.45594000000E+02  0.51100000000E-03 0.  1.
    9900012    2    1    2    0    0  0.35979250572E+01  0.17997609379E+02  0.37178910377E+01  0.72461502147E+02  0.69999911225E+02 0.  0.
        -12    1    1    2    0    0 -0.35979250572E+01 -0.17997609379E+02 -0.37178910377E+01  0.18726497853E+02  0.00000000000E+00 0.  1.
         11    1    3    3    0    0  0.41737149440E+01  0.13861882792E+01  0.32453260862E+02  0.32749893972E+02  0.51100000000E-03 0. -1.
        -11    1    3    3    0    0  0.92485382373E+01  0.58028372449E+01 -0.53968145268E+01  0.12179244103E+02  0.51100000000E-03 0.  1.
        -12    1    3    3    0    0 -0.98243281240E+01  0.10808583855E+02 -0.23338555297E+02  0.27532364072E+02  0.00000000000E+00 0.  1.
</event>
<event>
 7    1  0.2604986E-013  0.7246155E+02  0.7816164E-02  0.1226708E+00
        -11   -1    0    0    0    0  0.00000000000E+00  0.00000000000E+00  0.45593999997E+02  0.45594000000E+02  0.51100000000E-03 0.  1.
         11   -1    0    0    0    0 -0.00000000000E+00 -0.00000000000E+00 -0.45593999997E+02  0.45594000000E+02  0.51100000000E-03 0. -1.
    9900012    2    1    2    0    0  0.58279157761E+01  0.29502019853E+01 -0.17550255133E+02  0.72461554815E+02  0.69999979835E+02 0.  0.
        -12    1    1    2    0    0 -0.58279157761E+01 -0.29502019853E+01  0.17550255133E+02  0.18726445185E+02  0.00000000000E+00 0.  1.
         11    1    3    3    0    0  0.23302935315E+02  0.16559466878E+01 -0.73456790585E+01  0.24489343699E+02  0.51100000000E-03 0. -1.
        -11    1    3    3    0    0  0.78583033432E+01  0.10577862124E+02 -0.15638050797E+02  0.20449761161E+02  0.51100000000E-03 0.  1.
        -12    1    3    3    0    0 -0.25333322882E+02 -0.92836068262E+01  0.54334747226E+01  0.27522449955E+02  0.00000000000E+00 0.  1.
</event>
<event>
 7    1  0.2604986E-013  0.7246157E+02  0.7816164E-02  0.1226708E+00
        -11   -1    0    0    0    0  0.00000000000E+00  0.00000000000E+00  0.45593999997E+02  0.45594000000E+02  0.51100000000E-03 0. -1.
         11   -1    0    0    0    0 -0.00000000000E+00 -0.00000000000E+00 -0.45593999997E+02  0.45594000000E+02  0.51100000000E-03 0.  1.
    9900012    2    1    2    0    0 -0.18000630039E+02 -0.41019018634E+01  0.31354030771E+01  0.72461573935E+02  0.70000004743E+02 0.  0.
        -12    1    1    2    0    0  0.18000630039E+02  0.41019018634E+01 -0.31354030771E+01  0.18726426065E+02  0.00000000000E+00 0.  1.
         11    1    3    3    0    0 -0.52716344943E+01 -0.67946985489E+01 -0.95261992090E+01  0.12833804200E+02  0.51100000000E-03 0. -1.
        -11    1    3    3    0    0  0.14320953177E+02  0.14156026206E+02  0.20994301644E+02  0.29090264344E+02  0.51100000000E-03 0.  1.
         12    1    3    3    0    0 -0.27049948722E+02 -0.11463229521E+02 -0.83326993579E+01  0.30537505391E+02  0.00000000000E+00 0. -1.
</event>
<event>
 7    1  0.2604986E-013  0.7246157E+02  0.7816164E-02  0.1226708E+00
        -11   -1    0    0    0    0  0.00000000000E+00  0.00000000000E+00  0.45593999997E+02  0.45594000000E+02  0.51100000000E-03 0. -1.
         11   -1    0    0    0    0 -0.00000000000E+00 -0.00000000000E+00 -0.45593999997E+02  0.45594000000E+02  0.51100000000E-03 0.  1.
    9900012    2    1    2    0    0 -0.13900147861E+02  0.19234338738E+01  0.12400225095E+02  0.72461567055E+02  0.69999995780E+02 0.  0.
        -12    1    1    2    0    0  0.13900147861E+02 -0.19234338738E+01 -0.12400225095E+02  0.18726432945E+02  0.00000000000E+00 0.  1.
         11    1    3    3    0    0 -0.92761015812E+01 -0.10461073082E+02  0.25470158358E+02  0.29055276244E+02  0.51100000000E-03 0. -1.
        -11    1    3    3    0    0 -0.98876423516E+01 -0.11336145334E+01  0.11292245438E+02  0.15052088243E+02  0.51100000000E-03 0.  1.
        -12    1    3    3    0    0  0.52635960715E+01  0.13518121489E+02 -0.24362178701E+02  0.28354202568E+02  0.00000000000E+00 0.  1.
</event>
<event>
 7    1  0.2604986E-013  0.7246155E+02  0.7816164E-02  0.1226708E+00
        -11   -1    0    0    0    0  0.00000000000E+00  0.00000000000E+00  0.45593999997E+02  0.45594000000E+02  0.51100000000E-03 0.  1.
         11   -1    0    0    0    0 -0.00000000000E+00 -0.00000000000E+00 -0.45593999997E+02  0.45594000000E+02  0.51100000000E-03 0. -1.
    9900012    2    1    2    0    0 -0.11868063902E+01 -0.17508782071E+02 -0.65355924154E+01  0.72461550063E+02  0.69999973645E+02 0.  0.
        -12    1    1    2    0    0  0.11868063902E+01  0.17508782071E+02  0.65355924154E+01  0.18726449937E+02  0.00000000000E+00 0.  1.
         11    1    3    3    0    0  0.15906535633E+01  0.14676843415E+01 -0.46021136125E+01  0.50856391977E+01  0.51100000000E-03 0. -1.
        -11    1    3    3    0    0  0.88488167661E+01  0.18685933455E+02 -0.15337509494E+02  0.25743054694E+02  0.51100000000E-03 0.  1.
         12    1    3    3    0    0 -0.11626276720E+02 -0.37662399868E+02  0.13404030691E+02  0.41632856171E+02  0.00000000000E+00 0. -1.
</event>
<event>
 7    1  0.2604986E-013  0.7246158E+02  0.7816164E-02  0.1226708E+00
        -11   -1    0    0    0    0  0.00000000000E+00  0.00000000000E+00  0.45593999997E+02  0.45594000000E+02  0.51100000000E-03 0.  1.
         11   -1    0    0    0    0 -0.00000000000E+00 -0.00000000000E+00 -0.45593999997E+02  0.45594000000E+02  0.51100000000E-03 0. -1.
    9900012    2    1    2    0    0 -0.48678168889E+01  0.16766478598E+02  0.67726225170E+01  0.72461578516E+02  0.70000010711E+02 0.  0.
        -12    1    1    2    0    0  0.48678168889E+01 -0.16766478598E+02 -0.67726225170E+01  0.18726421484E+02  0.00000000000E+00 0.  1.
         11    1    3    3    0    0  0.21017385599E+02 -0.39376842880E+01  0.14747908025E+02  0.25975693376E+02  0.51100000000E-03 0. -1.
        -11    1    3    3    0    0 -0.35377260196E+01 -0.80000243369E+01  0.15456616108E+01  0.88828466641E+01  0.51100000000E-03 0.  1.
        -12    1    3    3    0    0 -0.22347476469E+02  0.28704187222E+02 -0.95209471187E+01  0.37603038476E+02  0.00000000000E+00 0.  1.
</event>
<event>
 7    1  0.2604986E-013  0.7246165E+02  0.7816164E-02  0.1226708E+00
        -11   -1    0    0    0    0  0.00000000000E+00  0.00000000000E+00  0.45593999997E+02  0.45594000000E+02  0.51100000000E-03 0.  1.
         11   -1    0    0    0    0 -0.00000000000E+00 -0.00000000000E+00 -0.45593999997E+02  0.45594000000E+02  0.51100000000E-03 0. -1.
    9900012    2    1    2    0    0  0.61714210519E+01 -0.55623793164E+00 -0.17671456320E+02  0.72461649397E+02  0.70000103046E+02 0.  0.
        -12    1    1    2    0    0 -0.61714210519E+01  0.55623793164E+00  0.17671456320E+02  0.18726350603E+02  0.00000000000E+00 0.  1.
         11    1    3    3    0    0  0.15902781065E+02 -0.57878221813E+01 -0.17203743833E+02  0.24132263328E+02  0.51100000000E-03 0. -1.
        -11    1    3    3    0    0  0.12773050409E+02 -0.13333862507E+02  0.37804814871E+01  0.18847672181E+02  0.51100000000E-03 0.  1.
        -12    1    3    3    0    0 -0.22504410422E+02  0.18565446757E+02 -0.42481939746E+01  0.29481713888E+02  0.00000000000E+00 0.  1.
</event>
<event>
 7    1  0.2604986E-013  0.7246152E+02  0.7816164E-02  0.1226708E+00
        -11   -1    0    0    0    0  0.00000000000E+00  0.00000000000E+00  0.45593999997E+02  0.45594000000E+02  0.51100000000E-03 0. -1.
         11   -1    0    0    0    0 -0.00000000000E+00 -0.00000000000E+00 -0.45593999997E+02  0.45594000000E+02  0.51100000000E-03 0.  1.
    9900012    2    1    2    0    0  0.31752949437E+01 -0.18165701953E+02 -0.32566680545E+01  0.72461518424E+02  0.69999932429E+02 0.  0.
        -12    1    1    2    0    0 -0.31752949437E+01  0.18165701953E+02  0.32566680545E+01  0.18726481576E+02  0.00000000000E+00 0.  1.
         11    1    3    3    0    0 -0.11617346826E+02 -0.25201279760E+02  0.99362323492E+01  0.29475344992E+02  0.51100000000E-03 0. -1.
        -11    1    3    3    0    0 -0.14603085109E+01 -0.25877821392E+01  0.11511238239E+02  0.11888554302E+02  0.51100000000E-03 0.  1.
        -12    1    3    3    0    0  0.16252950280E+02  0.96233599469E+01 -0.24704138642E+02  0.31097619130E+02  0.00000000000E+00 0.  1.
</event>
<event>
 7    1  0.2604986E-013  0.7246159E+02  0.7816164E-02  0.1226708E+00
        -11   -1    0    0    0    0  0.00000000000E+00  0.00000000000E+00  0.45593999997E+02  0.45594000000E+02  0.51100000000E-03 0. -1.
         11   -1    0    0    0    0 -0.00000000000E+00 -0.00000000000E+00 -0.45593999997E+02  0.45594000000E+02  0.51100000000E-03 0.  1.
    9900012    2    1    2    0    0  0.16111567773E+02 -0.73441618481E+00  0.95161074407E+01  0.72461593937E+02  0.70000030799E+02 0.  0.
        -12    1    1    2    0    0 -0.16111567773E+02  0.73441618481E+00 -0.95161074407E+01  0.18726406063E+02  0.00000000000E+00 0.  1.
         11    1    3    3    0    0  0.19169067200E+01 -0.63815447685E+01  0.19765943862E+02  0.20858839422E+02  0.51100000000E-03 0. -1.
        -11    1    3    3    0    0  0.15824991131E+02 -0.41679600483E+01  0.16392732724E+02  0.23162986027E+02  0.51100000000E-03 0.  1.
        -12    1    3    3    0    0 -0.16303300784E+01  0.98150886320E+01 -0.26642569145E+02  0.28439768488E+02  0.00000000000E+00 0.  1.
</event>
<event>
 7    1  0.2604986E-013  0.7246114E+02  0.7816164E-02  0.1226709E+00
        -11   -1    0    0    0    0  0.00000000000E+00  0.00000000000E+00  0.45593999997E+02  0.45594000000E+02  0.51100000000E-03 0. -1.
         11   -1    0    0    0    0 -0.00000000000E+00 -0.00000000000E+00 -0.45593999997E+02  0.45594000000E+02  0.51100000000E-03 0.  1.
    9900012    2    1    2    0    0  0.65170868922E+01 -0.10690702489E+02  0.13925935745E+02  0.72461141544E+02  0.69999441471E+02 0.  0.
        -12    1    1    2    0    0 -0.65170868922E+01  0.10690702489E+02 -0.13925935745E+02  0.18726858456E+02  0.00000000000E+00 0.  1.
         11    1    3    3    0    0 -0.12581713709E+02  0.17544490998E+02  0.16578534831E+02  0.27220516189E+02  0.51100000000E-03 0.  1.
        -11    1    3    3    0    0  0.35590831262E+01 -0.17171785927E+02  0.11946703220E+02  0.21219354908E+02  0.51100000000E-03 0. -1.
        -12    1    3    3    0    0  0.15539717475E+02 -0.11063407560E+02 -0.14599302306E+02  0.24021270446E+02  0.00000000000E+00 0.  1.
</event>
<event>
 7    1  0.2604986E-013  0.7246156E+02  0.7816164E-02  0.1226708E+00
        -11   -1    0    0    0    0  0.00000000000E+00  0.00000000000E+00  0.45593999997E+02  0.45594000000E+02  0.51100000000E-03 0.  1.
         11   -1    0    0    0    0 -0.00000000000E+00 -0.00000000000E+00 -0.45593999997E+02  0.45594000000E+02  0.51100000000E-03 0. -1.
    9900012    2    1    2    0    0 -0.15469277471E+02  0.91673630182E+01 -0.52288030459E+01  0.72461562232E+02  0.69999989498E+02 0.  0.
        -12    1    1    2    0    0  0.15469277471E+02 -0.91673630182E+01  0.52288030459E+01  0.18726437768E+02  0.00000000000E+00 0.  1.
         11    1    3    3    0    0  0.36289361712E+01 -0.30266755535E+00 -0.16948732552E+01  0.40166380216E+01  0.51100000000E-03 0. -1.
        -11    1    3    3    0    0  0.22799566098E+02  0.13097983703E+02 -0.17629959985E+01  0.26353093679E+02  0.51100000000E-03 0.  1.
         12    1    3    3    0    0 -0.41897779739E+02 -0.36279531296E+01 -0.17709337922E+01  0.42091830531E+02  0.00000000000E+00 0. -1.
</event>
<event>
 7    1  0.2604986E-013  0.7246161E+02  0.7816164E-02  0.1226708E+00
        -11   -1    0    0    0    0  0.00000000000E+00  0.00000000000E+00  0.45593999997E+02  0.45594000000E+02  0.51100000000E-03 0. -1.
         11   -1    0    0    0    0 -0.00000000000E+00 -0.00000000000E+00 -0.45593999997E+02  0.45594000000E+02  0.51100000000E-03 0.  1.
    9900012    2    1    2    0    0 -0.75798996385E+01  0.12885802866E+02  0.11277354324E+02  0.72461614482E+02  0.70000057563E+02 0.  0.
        -12    1    1    2    0    0  0.75798996385E+01 -0.12885802866E+02 -0.11277354324E+02  0.18726385518E+02  0.00000000000E+00 0.  1.
         11    1    3    3    0    0  0.12308225140E+02  0.13366697566E+02 -0.53139119328E+01  0.18931420185E+02  0.51100000000E-03 0. -1.
        -11    1    3    3    0    0  0.42823145667E+01 -0.81022656029E+01 -0.12145097397E+02  0.15214740122E+02  0.51100000000E-03 0.  1.
         12    1    3    3    0    0 -0.24170439345E+02  0.76213709021E+01  0.28736363654E+02  0.38315454175E+02  0.00000000000E+00 0. -1.
</event>
<event>
 7    1  0.2604986E-013  0.7246157E+02  0.7816164E-02  0.1226708E+00
        -11   -1    0    0    0    0  0.00000000000E+00  0.00000000000E+00  0.45593999997E+02  0.45594000000E+02  0.51100000000E-03 0.  1.
         11   -1    0    0    0    0 -0.00000000000E+00 -0.00000000000E+00 -0.45593999997E+02  0.45594000000E+02  0.51100000000E-03 0. -1.
    9900012    2    1    2    0    0  0.11492196087E+02 -0.14278867186E+02 -0.38370207713E+01  0.72461565545E+02  0.69999993813E+02 0.  0.
        -12    1    1    2    0    0 -0.11492196087E+02  0.14278867186E+02  0.38370207713E+01  0.18726434455E+02  0.00000000000E+00 0.  1.
         11    1    3    3    0    0 -0.12409539044E+01  0.58676542267E+01  0.56141029092E+01  0.82150766553E+01  0.51100000000E-03 0. -1.
        -11    1    3    3    0    0  0.30767910039E+02  0.63040622033E+01 -0.26540271344E+01  0.31519031532E+02  0.51100000000E-03 0.  1.
         12    1    3    3    0    0 -0.18034760048E+02 -0.26450583616E+02 -0.67970965461E+01  0.32727457357E+02  0.00000000000E+00 0. -1.
</event>
<event>
 7    1  0.2604986E-013  0.7246148E+02  0.7816164E-02  0.1226708E+00
        -11   -1    0    0    0    0  0.00000000000E+00  0.00000000000E+00  0.45593999997E+02  0.45594000000E+02  0.51100000000E-03 0. -1.
         11   -1    0    0    0    0 -0.00000000000E+00 -0.00000000000E+00 -0.45593999997E+02  0.45594000000E+02  0.51100000000E-03 0.  1.
    9900012    2    1    2    0    0 -0.28884274891E+00  0.13695319880E+02  0.12768605377E+02  0.72461481369E+02  0.69999884158E+02 0.  0.
        -12    1    1    2    0    0  0.28884274891E+00 -0.13695319880E+02 -0.12768605377E+02  0.18726518631E+02  0.00000000000E+00 0.  1.
         11    1    3    3    0    0  0.13470488599E+01  0.12374659724E+02 -0.38377539105E+01  0.13025939477E+02  0.51100000000E-03 0. -1.
        -11    1    3    3    0    0  0.11332307743E+02  0.21565024714E+02  0.24085162127E+02  0.34257357234E+02  0.51100000000E-03 0.  1.
         12    1    3    3    0    0 -0.12968199352E+02 -0.20244364558E+02 -0.74788028399E+01  0.25178184658E+02  0.00000000000E+00 0. -1.
</event>
<event>
 7    1  0.2604986E-013  0.7246158E+02  0.7816164E-02  0.1226708E+00
        -11   -1    0    0    0    0  0.00000000000E+00  0.00000000000E+00  0.45593999997E+02  0.45594000000E+02  0.51100000000E-03 0.  1.
         11   -1    0    0    0    0 -0.00000000000E+00 -0.00000000000E+00 -0.45593999997E+02  0.45594000000E+02  0.51100000000E-03 0. -1.
    9900012    2    1    2    0    0 -0.13325192219E+02 -0.60044997493E+01  0.11707442839E+02  0.72461575281E+02  0.70000006497E+02 0.  0.
        -12    1    1    2    0    0  0.13325192219E+02  0.60044997493E+01 -0.11707442839E+02  0.18726424719E+02  0.00000000000E+00 0.  1.
         11    1    3    3    0    0 -0.19628746442E+02 -0.17085720917E+02 -0.99833558868E+01  0.27872512287E+02  0.51100000000E-03 0. -1.
        -11    1    3    3    0    0  0.12937158323E+02  0.57224936169E+01 -0.61841062395E+01  0.15438917349E+02  0.51100000000E-03 0.  1.
        -12    1    3    3    0    0 -0.66336041002E+01  0.53587275511E+01  0.27874904965E+02  0.29150145645E+02  0.00000000000E+00 0.  1.
</event>
<event>
 7    1  0.2604986E-013  0.7246159E+02  0.7816164E-02  0.1226708E+00
        -11   -1    0    0    0    0  0.00000000000E+00  0.00000000000E+00  0.45593999997E+02  0.45594000000E+02  0.51100000000E-03 0.  1.
         11   -1    0    0    0    0 -0.00000000000E+00 -0.00000000000E+00 -0.45593999997E+02  0.45594000000E+02  0.51100000000E-03 0. -1.
    9900012    2    1    2    0    0  0.13845340301E+02  0.72431907891E+01 -0.10320910907E+02  0.72461589164E+02  0.70000024581E+02 0.  0.
        -12    1    1    2    0    0 -0.13845340301E+02 -0.72431907891E+01  0.10320910907E+02  0.18726410836E+02  0.00000000000E+00 0.  1.
         11    1    3    3    0    0  0.12525063298E+02  0.12098104313E+02  0.65267417761E+00  0.17426052979E+02  0.51100000000E-03 0. -1.
        -11    1    3    3    0    0 -0.11747216751E+02  0.62824507970E+01  0.17374123645E+02  0.21893525575E+02  0.51100000000E-03 0.  1.
        -12    1    3    3    0    0  0.13067493754E+02 -0.11137364321E+02 -0.28347708730E+02  0.33142010610E+02  0.00000000000E+00 0.  1.
</event>
<event>
 7    1  0.2604986E-013  0.7246160E+02  0.7816164E-02  0.1226708E+00
        -11   -1    0    0    0    0  0.00000000000E+00  0.00000000000E+00  0.45593999997E+02  0.45594000000E+02  0.51100000000E-03 0. -1.
         11   -1    0    0    0    0 -0.00000000000E+00 -0.00000000000E+00 -0.45593999997E+02  0.45594000000E+02  0.51100000000E-03 0.  1.
    9900012    2    1    2    0    0 -0.16697441051E+02 -0.20471271140E+01 -0.82269601415E+01  0.72461597776E+02  0.70000035800E+02 0.  0.
        -12    1    1    2    0    0  0.16697441051E+02  0.20471271140E+01  0.82269601415E+01  0.18726402224E+02  0.00000000000E+00 0.  1.
         11    1    3    3    0    0  0.11587349485E+02  0.28363081692E+01 -0.49302529910E+01  0.12908086881E+02  0.51100000000E-03 0. -1.
        -11    1    3    3    0    0  0.57664367455E+01  0.16011561142E+02 -0.89106681374E+01  0.19209942474E+02  0.51100000000E-03 0.  1.
         12    1    3    3    0    0 -0.34051227281E+02 -0.20894996425E+02  0.56139609869E+01  0.40343568421E+02  0.00000000000E+00 0. -1.
</event>
<event>
 7    1  0.2604986E-013  0.7246157E+02  0.7816164E-02  0.1226708E+00
        -11   -1    0    0    0    0  0.00000000000E+00  0.00000000000E+00  0.45593999997E+02  0.45594000000E+02  0.51100000000E-03 0.  1.
         11   -1    0    0    0    0 -0.00000000000E+00 -0.00000000000E+00 -0.45593999997E+02  0.45594000000E+02  0.51100000000E-03 0. -1.
    9900012    2    1    2    0    0  0.14661070823E+02 -0.22782597418E+01  0.11425492704E+02  0.72461565511E+02  0.69999993769E+02 0.  0.
        -12    1    1    2    0    0 -0.14661070823E+02  0.22782597418E+01 -0.11425492704E+02  0.18726434489E+02  0.00000000000E+00 0.  1.
         11    1    3    3    0    0  0.12306872743E+02 -0.16424004560E+02 -0.62255468336E+01  0.21446782420E+02  0.51100000000E-03 0. -1.
        -11    1    3    3    0    0  0.21664844306E+02  0.86332040443E+01  0.20094625099E+02  0.30784600842E+02  0.51100000000E-03 0.  1.
        -12    1    3    3    0    0 -0.19310646226E+02  0.55125407742E+01 -0.24435855618E+01  0.20230182250E+02  0.00000000000E+00 0.  1.
</event>
<event>
 7    1  0.2604986E-013  0.7246157E+02  0.7816164E-02  0.1226708E+00
        -11   -1    0    0    0    0  0.00000000000E+00  0.00000000000E+00  0.45593999997E+02  0.45594000000E+02  0.51100000000E-03 0. -1.
         11   -1    0    0    0    0 -0.00000000000E+00 -0.00000000000E+00 -0.45593999997E+02  0.45594000000E+02  0.51100000000E-03 0.  1.
    9900012    2    1    2    0    0 -0.94651183921E+01 -0.11606413668E+02  0.11241961736E+02  0.72461574605E+02  0.70000005615E+02 0.  0.
        -12    1    1    2    0    0  0.94651183921E+01  0.11606413668E+02 -0.11241961736E+02  0.18726425395E+02  0.00000000000E+00 0.  1.
         11    1    3    3    0    0  0.64894158079E+01  0.43553414117E+01 -0.11074445136E+02  0.13554514070E+02  0.51100000000E-03 0. -1.
        -11    1    3    3    0    0 -0.11440627838E+02 -0.44861287224E+01 -0.15124592209E+02  0.19487601340E+02  0.51100000000E-03 0.  1.
         12    1    3    3    0    0 -0.45139063619E+01 -0.11475626357E+02  0.37440999082E+02  0.39419459194E+02  0.00000000000E+00 0. -1.
</event>
<event>
 7    1  0.2604986E-013  0.7246149E+02  0.7816164E-02  0.1226708E+00
        -11   -1    0    0    0    0  0.00000000000E+00  0.00000000000E+00  0.45593999997E+02  0.45594000000E+02  0.51100000000E-03 0. -1.
         11   -1    0    0    0    0 -0.00000000000E+00 -0.00000000000E+00 -0.45593999997E+02  0.45594000000E+02  0.51100000000E-03 0.  1.
    9900012    2    1    2    0    0 -0.72970341235E+01  0.76185538344E+01  0.15472332294E+02  0.72461491085E+02  0.69999896815E+02 0.  0.
        -12    1    1    2    0    0  0.72970341235E+01 -0.76185538344E+01 -0.15472332294E+02  0.18726508915E+02  0.00000000000E+00 0.  1.
         11    1    3    3    0    0  0.18814039771E+02  0.27657302699E+01  0.17817595890E+02  0.26059241739E+02  0.51100000000E-03 0. -1.
        -11    1    3    3    0    0 -0.18973818250E+02 -0.14614437666E+02 -0.73882625187E+01  0.25063399422E+02  0.51100000000E-03 0.  1.
         12    1    3    3    0    0 -0.71372556442E+01  0.19467261231E+02  0.50429989221E+01  0.21338849924E+02  0.00000000000E+00 0. -1.
</event>
<event>
 7    1  0.2604986E-013  0.7246171E+02  0.7816164E-02  0.1226708E+00
        -11   -1    0    0    0    0  0.00000000000E+00  0.00000000000E+00  0.45593999997E+02  0.45594000000E+02  0.51100000000E-03 0. -1.
         11   -1    0    0    0    0 -0.00000000000E+00 -0.00000000000E+00 -0.45593999997E+02  0.45594000000E+02  0.51100000000E-03 0.  1.
    9900012    2    1    2    0    0  0.16807949650E+02 -0.37764237662E+01  0.73420234069E+01  0.72461712178E+02  0.70000184830E+02 0.  0.
        -12    1    1    2    0    0 -0.16807949650E+02  0.37764237662E+01 -0.73420234069E+01  0.18726287822E+02  0.00000000000E+00 0.  1.
         11    1    3    3    0    0  0.44760944598E+01  0.43507358640E+01  0.71476859184E-01  0.62425502300E+01  0.51100000000E-03 0. -1.
        -11    1    3    3    0    0  0.34536206551E+02 -0.61297610091E+01 -0.11669268392E+02  0.36966137992E+02  0.51100000000E-03 0.  1.
         12    1    3    3    0    0 -0.22204351361E+02 -0.19973986212E+01  0.18939814940E+02  0.29253023956E+02  0.00000000000E+00 0. -1.
</event>
<event>
 7    1  0.2604986E-013  0.7246173E+02  0.7816164E-02  0.1226708E+00
        -11   -1    0    0    0    0  0.00000000000E+00  0.00000000000E+00  0.45593999997E+02  0.45594000000E+02  0.51100000000E-03 0.  1.
         11   -1    0    0    0    0 -0.00000000000E+00 -0.00000000000E+00 -0.45593999997E+02  0.45594000000E+02  0.51100000000E-03 0. -1.
    9900012    2    1    2    0    0  0.15598658836E+02  0.64655379491E+01  0.80964175604E+01  0.72461726591E+02  0.70000203606E+02 0.  0.
        -12    1    1    2    0    0 -0.15598658836E+02 -0.64655379491E+01 -0.80964175604E+01  0.18726273409E+02  0.00000000000E+00 0.  1.
         11    1    3    3    0    0  0.40806845876E+01 -0.21981823259E+01 -0.14575977837E+02  0.15295199326E+02  0.51100000000E-03 0. -1.
        -11    1    3    3    0    0 -0.19657390682E+02  0.69888402904E+01  0.12547998980E+02  0.24345619230E+02  0.51100000000E-03 0.  1.
        -12    1    3    3    0    0  0.31175364930E+02  0.16748799847E+01  0.10124396418E+02  0.32820908036E+02  0.00000000000E+00 0.  1.
</event>
<event>
 7    1  0.2604986E-013  0.7246158E+02  0.7816164E-02  0.1226708E+00
        -11   -1    0    0    0    0  0.00000000000E+00  0.00000000000E+00  0.45593999997E+02  0.45594000000E+02  0.51100000000E-03 0.  1.
         11   -1    0    0    0    0 -0.00000000000E+00 -0.00000000000E+00 -0.45593999997E+02  0.45594000000E+02  0.51100000000E-03 0. -1.
    9900012    2    1    2    0    0  0.17469822345E+02 -0.38471585117E+01  0.55392592642E+01  0.72461582441E+02  0.70000015824E+02 0.  0.
        -12    1    1    2    0    0 -0.17469822345E+02  0.38471585117E+01 -0.55392592642E+01  0.18726417559E+02  0.00000000000E+00 0.  1.
         11    1    3    3    0    0  0.26776756213E+02 -0.49726698780E+00 -0.13189459272E+02  0.29853036427E+02  0.51100000000E-03 0. -1.
        -11    1    3    3    0    0 -0.15188512729E+01 -0.35454997535E+01 -0.11114745182E+02  0.11764992071E+02  0.51100000000E-03 0.  1.
        -12    1    3    3    0    0 -0.77880825953E+01  0.19560822969E+00  0.29843463719E+02  0.30843553943E+02  0.00000000000E+00 0.  1.
</event>
<event>
 7    1  0.2604986E-013  0.7246159E+02  0.7816164E-02  0.1226708E+00
        -11   -1    0    0    0    0  0.00000000000E+00  0.00000000000E+00  0.45593999997E+02  0.45594000000E+02  0.51100000000E-03 0. -1.
         11   -1    0    0    0    0 -0.00000000000E+00 -0.00000000000E+00 -0.45593999997E+02  0.45594000000E+02  0.51100000000E-03 0.  1.
    9900012    2    1    2    0    0 -0.28739881105E+01  0.11278672868E+00  0.18504217114E+02  0.72461586048E+02  0.70000020522E+02 0.  0.
        -12    1    1    2    0    0  0.28739881105E+01 -0.11278672868E+00 -0.18504217114E+02  0.18726413952E+02  0.00000000000E+00 0.  1.
         11    1    3    3    0    0 -0.16177955696E+02  0.49065423428E+01 -0.90130413367E+01  0.19158165952E+02  0.51100000000E-03 0. -1.
        -11    1    3    3    0    0  0.64157888051E+01  0.16633036007E+02  0.95232549984E-01  0.17827767732E+02  0.51100000000E-03 0.  1.
         12    1    3    3    0    0  0.68881787801E+01 -0.21426791621E+02  0.27422025901E+02  0.35475652363E+02  0.00000000000E+00 0. -1.
</event>
<event>
 7    1  0.2604986E-013  0.7246157E+02  0.7816164E-02  0.1226708E+00
        -11   -1    0    0    0    0  0.00000000000E+00  0.00000000000E+00  0.45593999997E+02  0.45594000000E+02  0.51100000000E-03 0.  1.
         11   -1    0    0    0    0 -0.00000000000E+00 -0.00000000000E+00 -0.45593999997E+02  0.45594000000E+02  0.51100000000E-03 0. -1.
    9900012    2    1    2    0    0 -0.12126853511E+02  0.11514107647E+02 -0.84287650182E+01  0.72461565990E+02  0.69999994393E+02 0.  0.
        -12    1    1    2    0    0  0.12126853511E+02 -0.11514107647E+02  0.84287650182E+01  0.18726434010E+02  0.00000000000E+00 0.  1.
         11    1    3    3    0    0 -0.17216886820E+02  0.12348626258E+02  0.51039835930E+00  0.21193637465E+02  0.51100000000E-03 0. -1.
        -11    1    3    3    0    0  0.63921826641E+01  0.13892536492E+02  0.16090224292E+02  0.22198150541E+02  0.51100000000E-03 0.  1.
         12    1    3    3    0    0 -0.13021493556E+01 -0.14727055103E+02 -0.25029387670E+02  0.29069777985E+02  0.00000000000E+00 0. -1.
</event>
<event>
 7    1  0.2604986E-013  0.7246158E+02  0.7816164E-02  0.1226708E+00
        -11   -1    0    0    0    0  0.00000000000E+00  0.00000000000E+00  0.45593999997E+02  0.45594000000E+02  0.51100000000E-03 0.  1.
         11   -1    0    0    0    0 -0.00000000000E+00 -0.00000000000E+00 -0.45593999997E+02  0.45594000000E+02  0.51100000000E-03 0. -1.
    9900012    2    1    2    0    0 -0.15295964220E+02  0.56905145581E+01 -0.91831478355E+01  0.72461583324E+02  0.70000016973E+02 0.  0.
        -12    1    1    2    0    0  0.15295964220E+02 -0.56905145581E+01  0.91831478355E+01  0.18726416676E+02  0.00000000000E+00 0.  1.
         11    1    3    3    0    0  0.94443468383E+01  0.73626510754E+01 -0.26750147117E+01  0.12270290218E+02  0.51100000000E-03 0. -1.
        -11    1    3    3    0    0  0.15076117026E+02  0.60096995236E+01 -0.10676970238E+02  0.19426875371E+02  0.51100000000E-03 0.  1.
        -12    1    3    3    0    0 -0.39816428085E+02 -0.76818360409E+01  0.41688371140E+01  0.40764417735E+02  0.00000000000E+00 0.  1.
</event>
<event>
 7    1  0.2604986E-013  0.7246159E+02  0.7816164E-02  0.1226708E+00
        -11   -1    0    0    0    0  0.00000000000E+00  0.00000000000E+00  0.45593999997E+02  0.45594000000E+02  0.51100000000E-03 0.  1.
         11   -1    0    0    0    0 -0.00000000000E+00 -0.00000000000E+00 -0.45593999997E+02  0.45594000000E+02  0.51100000000E-03 0. -1.
    9900012    2    1    2    0    0 -0.10381858254E+02  0.97430011098E+01 -0.12164267780E+02  0.72461589184E+02  0.70000024607E+02 0.  0.
        -12    1    1    2    0    0  0.10381858254E+02 -0.97430011098E+01  0.12164267780E+02  0.18726410816E+02  0.00000000000E+00 0.  1.
         11    1    3    3    0    0 -0.29698454095E+02  0.89484321108E+01 -0.15503930114E+02  0.34676280973E+02  0.51100000000E-03 0. -1.
        -11    1    3    3    0    0 -0.36538938755E+01  0.25864819998E+01 -0.10145160820E+02  0.11088963789E+02  0.51100000000E-03 0.  1.
        -12    1    3    3    0    0  0.22970489717E+02 -0.17919130008E+01  0.13484823153E+02  0.26696344422E+02  0.00000000000E+00 0.  1.
</event>
<event>
 7    1  0.2604986E-013  0.7246158E+02  0.7816164E-02  0.1226708E+00
        -11   -1    0    0    0    0  0.00000000000E+00  0.00000000000E+00  0.45593999997E+02  0.45594000000E+02  0.51100000000E-03 0. -1.
         11   -1    0    0    0    0 -0.00000000000E+00 -0.00000000000E+00 -0.45593999997E+02  0.45594000000E+02  0.51100000000E-03 0.  1.
    9900012    2    1    2    0    0  0.15659908823E+02 -0.80452909810E+01  0.63811728535E+01  0.72461579672E+02  0.70000012216E+02 0.  0.
        -12    1    1    2    0    0 -0.15659908823E+02  0.80452909810E+01 -0.63811728535E+01  0.18726420328E+02  0.00000000000E+00 0.  1.
         11    1    3    3    0    0  0.37523864545E+01  0.11602457928E+02 -0.33765461735E+01  0.12653003533E+02  0.51100000000E-03 0. -1.
        -11    1    3    3    0    0 -0.15934963252E+02  0.10951030064E+01 -0.10965579038E+02  0.19374370399E+02  0.51100000000E-03 0.  1.
        -12    1    3    3    0    0  0.27842485621E+02 -0.20742851915E+02  0.20723298065E+02  0.40434205740E+02  0.00000000000E+00 0.  1.
</event>
<event>
 7    1  0.2604986E-013  0.7246153E+02  0.7816164E-02  0.1226708E+00
        -11   -1    0    0    0    0  0.00000000000E+00  0.00000000000E+00  0.45593999997E+02  0.45594000000E+02  0.51100000000E-03 0.  1.
         11   -1    0    0    0    0 -0.00000000000E+00 -0.00000000000E+00 -0.45593999997E+02  0.45594000000E+02  0.51100000000E-03 0. -1.
    9900012    2    1    2    0    0 -0.14442112761E+02 -0.22364143061E+01 -0.11709156359E+02  0.72461534434E+02  0.69999953286E+02 0.  0.
        -12    1    1    2    0    0  0.14442112761E+02  0.22364143061E+01  0.11709156359E+02  0.18726465566E+02  0.00000000000E+00 0.  1.
         11    1    3    3    0    0 -0.15041138799E+02 -0.13321764014E+02 -0.17836477746E+02  0.26867176842E+02  0.51100000000E-03 0. -1.
        -11    1    3    3    0    0  0.98964375618E+01  0.11745065357E+01  0.22326686879E+02  0.24449946611E+02  0.51100000000E-03 0.  1.
         12    1    3    3    0    0 -0.92974115242E+01  0.99108431725E+01 -0.16199365491E+02  0.21144410982E+02  0.00000000000E+00 0. -1.
</event>
<event>
 7    1  0.2604986E-013  0.7246160E+02  0.7816164E-02  0.1226708E+00
        -11   -1    0    0    0    0  0.00000000000E+00  0.00000000000E+00  0.45593999997E+02  0.45594000000E+02  0.51100000000E-03 0.  1.
         11   -1    0    0    0    0 -0.00000000000E+00 -0.00000000000E+00 -0.45593999997E+02  0.45594000000E+02  0.51100000000E-03 0. -1.
    9900012    2    1    2    0    0  0.10060750922E+02  0.26908101208E+01 -0.15563387369E+02  0.72461596325E+02  0.70000033910E+02 0.  0.
        -12    1    1    2    0    0 -0.10060750922E+02 -0.26908101208E+01  0.15563387369E+02  0.18726403675E+02  0.00000000000E+00 0.  1.
         11    1    3    3    0    0 -0.15382101420E+01 -0.69396591973E+01 -0.54339505810E-01  0.71082989004E+01  0.51100000000E-03 0. -1.
        -11    1    3    3    0    0 -0.70043406304E+01 -0.23686566226E+02 -0.10603619619E+02  0.26880307969E+02  0.51100000000E-03 0.  1.
        -12    1    3    3    0    0  0.18603301695E+02  0.33317035544E+02 -0.49054282436E+01  0.38472989455E+02  0.00000000000E+00 0.  1.
</event>
<event>
 7    1  0.2604986E-013  0.7246153E+02  0.7816164E-02  0.1226708E+00
        -11   -1    0    0    0    0  0.00000000000E+00  0.00000000000E+00  0.45593999997E+02  0.45594000000E+02  0.51100000000E-03 0.  1.
         11   -1    0    0    0    0 -0.00000000000E+00 -0.00000000000E+00 -0.45593999997E+02  0.45594000000E+02  0.51100000000E-03 0. -1.
    9900012    2    1    2    0    0  0.15773062753E+02 -0.55408254872E+01 -0.84374386858E+01  0.72461531373E+02  0.69999949297E+02 0.  0.
        -12    1    1    2    0    0 -0.15773062753E+02  0.55408254872E+01  0.84374386858E+01  0.18726468627E+02  0.00000000000E+00 0.  1.
         11    1    3    3    0    0 -0.12285326091E+02  0.23907653573E+02 -0.83749358780E+01  0.28153946220E+02  0.51100000000E-03 0. -1.
        -11    1    3    3    0    0  0.15318177669E+02 -0.15542619802E+02 -0.87902860726E+01  0.23526341129E+02  0.51100000000E-03 0.  1.
        -12    1    3    3    0    0  0.12740211175E+02 -0.13905859257E+02  0.87277832647E+01  0.20781244024E+02  0.00000000000E+00 0.  1.
</event>
<event>
 7    1  0.2604986E-013  0.7246157E+02  0.7816164E-02  0.1226708E+00
        -11   -1    0    0    0    0  0.00000000000E+00  0.00000000000E+00  0.45593999997E+02  0.45594000000E+02  0.51100000000E-03 0. -1.
         11   -1    0    0    0    0 -0.00000000000E+00 -0.00000000000E+00 -0.45593999997E+02  0.45594000000E+02  0.51100000000E-03 0.  1.
    9900012    2    1    2    0    0 -0.13557208052E+02  0.28654448314E+01  0.12596455494E+02  0.72461565335E+02  0.69999993540E+02 0.  0.
        -12    1    1    2    0    0  0.13557208052E+02 -0.28654448314E+01 -0.12596455494E+02  0.18726434665E+02  0.00000000000E+00 0.  1.
         11    1    3    3    0    0  0.34356980981E+01 -0.28538698150E+01  0.83262209688E+01  0.94485210602E+01  0.51100000000E-03 0. -1.
        -11    1    3    3    0    0  0.27907477490E+01 -0.21788793684E+02  0.15978834392E+02  0.27163632894E+02  0.51100000000E-03 0.  1.
         12    1    3    3    0    0 -0.19783653899E+02  0.27508108330E+02 -0.11708599867E+02  0.35849411381E+02  0.00000000000E+00 0. -1.
</event>
<event>
 7    1  0.2604986E-013  0.7246149E+02  0.7816164E-02  0.1226708E+00
        -11   -1    0    0    0    0  0.00000000000E+00  0.00000000000E+00  0.45593999997E+02  0.45594000000E+02  0.51100000000E-03 0. -1.
         11   -1    0    0    0    0 -0.00000000000E+00 -0.00000000000E+00 -0.45593999997E+02  0.45594000000E+02  0.51100000000E-03 0.  1.
    9900012    2    1    2    0    0  0.16552450713E+02 -0.87535437075E+01  0.27207946552E+00  0.72461489933E+02  0.69999895315E+02 0.  0.
        -12    1    1    2    0    0 -0.16552450713E+02  0.87535437075E+01 -0.27207946552E+00  0.18726510067E+02  0.00000000000E+00 0.  1.
         11    1    3    3    0    0  0.17380954740E+01 -0.52509665756E+01 -0.28736213231E+01  0.62330831556E+01  0.51100000000E-03 0. -1.
        -11    1    3    3    0    0  0.20357565309E+02 -0.12801913975E+02 -0.25832712123E+02  0.35293745659E+02  0.51100000000E-03 0.  1.
         12    1    3    3    0    0 -0.55432100703E+01  0.92993368435E+01  0.28978412912E+02  0.30934661118E+02  0.00000000000E+00 0. -1.
</event>
<event>
 7    1  0.2604986E-013  0.7246162E+02  0.7816164E-02  0.1226708E+00
        -11   -1    0    0    0    0  0.00000000000E+00  0.00000000000E+00  0.45593999997E+02  0.45594000000E+02  0.51100000000E-03 0. -1.
         11   -1    0    0    0    0 -0.00000000000E+00 -0.00000000000E+00 -0.45593999997E+02  0.45594000000E+02  0.51100000000E-03 0.  1.
    9900012    2    1    2    0    0  0.13116932098E+02 -0.12189515367E+02 -0.54807792305E+01  0.72461624656E+02  0.70000070817E+02 0.  0.
        -12    1    1    2    0    0 -0.13116932098E+02  0.12189515367E+02  0.54807792305E+01  0.18726375344E+02  0.00000000000E+00 0.  1.
         11    1    3    3    0    0 -0.16504769124E+02 -0.14539818603E+02  0.38647508614E+00  0.21999161169E+02  0.51100000000E-03 0.  1.
        -11    1    3    3    0    0 -0.59441408758E+01  0.10959095578E+02  0.29729083183E+01  0.12816893959E+02  0.51100000000E-03 0. -1.
         12    1    3    3    0    0  0.35565842098E+02 -0.86087923410E+01 -0.88401626349E+01  0.37645569529E+02  0.00000000000E+00 0. -1.
</event>
<event>
 7    1  0.2604986E-013  0.7246154E+02  0.7816164E-02  0.1226708E+00
        -11   -1    0    0    0    0  0.00000000000E+00  0.00000000000E+00  0.45593999997E+02  0.45594000000E+02  0.51100000000E-03 0.  1.
         11   -1    0    0    0    0 -0.00000000000E+00 -0.00000000000E+00 -0.45593999997E+02  0.45594000000E+02  0.51100000000E-03 0. -1.
    9900012    2    1    2    0    0 -0.89972246197E+01 -0.16423459792E+02  0.16090726837E-01  0.72461539007E+02  0.69999959243E+02 0.  0.
        -12    1    1    2    0    0  0.89972246197E+01  0.16423459792E+02 -0.16090726837E-01  0.18726460993E+02  0.00000000000E+00 0.  1.
         11    1    3    3    0    0 -0.22684068642E+00 -0.15390545201E+02  0.69114226747E+01  0.16872702863E+02  0.51100000000E-03 0. -1.
        -11    1    3    3    0    0 -0.21166225514E+01 -0.22034777229E+02 -0.20103156510E+02  0.29902314300E+02  0.51100000000E-03 0.  1.
        -12    1    3    3    0    0 -0.66537613819E+01  0.21001862638E+02  0.13207824562E+02  0.25686521844E+02  0.00000000000E+00 0.  1.
</event>
<event>
 7    1  0.2604986E-013  0.7246155E+02  0.7816164E-02  0.1226708E+00
        -11   -1    0    0    0    0  0.00000000000E+00  0.00000000000E+00  0.45593999997E+02  0.45594000000E+02  0.51100000000E-03 0.  1.
         11   -1    0    0    0    0 -0.00000000000E+00 -0.00000000000E+00 -0.45593999997E+02  0.45594000000E+02  0.51100000000E-03 0. -1.
    9900012    2    1    2    0    0 -0.22462982153E+01  0.32374670521E+01 -0.18307185101E+02  0.72461546120E+02  0.69999968509E+02 0.  0.
        -12    1    1    2    0    0  0.22462982153E+01 -0.32374670521E+01  0.18307185101E+02  0.18726453880E+02  0.00000000000E+00 0.  1.
         11    1    3    3    0    0  0.18479258665E+02 -0.63326598315E+01  0.12308994649E+02  0.23088891937E+02  0.51100000000E-03 0. -1.
        -11    1    3    3    0    0 -0.14629178728E+01 -0.93125681246E+01 -0.12684800993E+01  0.95117346368E+01  0.51100000000E-03 0.  1.
        -12    1    3    3    0    0 -0.19262639007E+02  0.18882695008E+02 -0.29347699651E+02  0.39860919547E+02  0.00000000000E+00 0.  1.
</event>
<event>
 7    1  0.2604986E-013  0.7246156E+02  0.7816164E-02  0.1226708E+00
        -11   -1    0    0    0    0  0.00000000000E+00  0.00000000000E+00  0.45593999997E+02  0.45594000000E+02  0.51100000000E-03 0. -1.
         11   -1    0    0    0    0 -0.00000000000E+00 -0.00000000000E+00 -0.45593999997E+02  0.45594000000E+02  0.51100000000E-03 0.  1.
    9900012    2    1    2    0    0 -0.23771458739E+01  0.30961691828E+00  0.18572371184E+02  0.72461557291E+02  0.69999983061E+02 0.  0.
        -12    1    1    2    0    0  0.23771458739E+01 -0.30961691828E+00 -0.18572371184E+02  0.18726442709E+02  0.00000000000E+00 0.  1.
         11    1    3    3    0    0  0.23602168479E+02 -0.96385487237E+01  0.77834228030E+01  0.26656062147E+02  0.51100000000E-03 0. -1.
        -11    1    3    3    0    0  0.30479705443E+01  0.62323849825E+01 -0.83366274102E+01  0.10845833479E+02  0.51100000000E-03 0.  1.
        -12    1    3    3    0    0 -0.29027284897E+02  0.37157806594E+01  0.19125575791E+02  0.34959661665E+02  0.00000000000E+00 0.  1.
</event>
<event>
 7    1  0.2604986E-013  0.7246160E+02  0.7816164E-02  0.1226708E+00
        -11   -1    0    0    0    0  0.00000000000E+00  0.00000000000E+00  0.45593999997E+02  0.45594000000E+02  0.51100000000E-03 0.  1.
         11   -1    0    0    0    0 -0.00000000000E+00 -0.00000000000E+00 -0.45593999997E+02  0.45594000000E+02  0.51100000000E-03 0. -1.
    9900012    2    1    2    0    0  0.33295246293E+01  0.11771184010E+02 -0.14178554579E+02  0.72461603732E+02  0.70000043558E+02 0.  0.
        -12    1    1    2    0    0 -0.33295246293E+01 -0.11771184010E+02  0.14178554579E+02  0.18726396268E+02  0.00000000000E+00 0.  1.
         11    1    3    3    0    0 -0.94931724940E+01 -0.13939171510E+02  0.66138401122E+01  0.18115289335E+02  0.51100000000E-03 0. -1.
        -11    1    3    3    0    0 -0.97515309450E+01  0.16507715742E+02  0.39899266366E+01  0.19583578570E+02  0.51100000000E-03 0.  1.
        -12    1    3    3    0    0  0.22574228068E+02  0.92026397786E+01 -0.24782321328E+02  0.34762735827E+02  0.00000000000E+00 0.  1.
</event>
<event>
 7    1  0.2604986E-013  0.7246158E+02  0.7816164E-02  0.1226708E+00
        -11   -1    0    0    0    0  0.00000000000E+00  0.00000000000E+00  0.45593999997E+02  0.45594000000E+02  0.51100000000E-03 0.  1.
         11   -1    0    0    0    0 -0.00000000000E+00 -0.00000000000E+00 -0.45593999997E+02  0.45594000000E+02  0.51100000000E-03 0. -1.
    9900012    2    1    2    0    0 -0.56471391033E+01  0.76191059798E+01 -0.16147379842E+02  0.72461579313E+02  0.70000011748E+02 0.  0.
        -12    1    1    2    0    0  0.56471391033E+01 -0.76191059798E+01  0.16147379842E+02  0.18726420687E+02  0.00000000000E+00 0.  1.
         11    1    3    3    0    0  0.86775450147E+00 -0.47593885950E+00 -0.11792798525E+01  0.15395508775E+01  0.51100000000E-03 0. -1.
        -11    1    3    3    0    0  0.25846904059E+02  0.54974726804E+01 -0.25567907322E+02  0.36769587166E+02  0.51100000000E-03 0.  1.
         12    1    3    3    0    0 -0.32361797664E+02  0.25975721589E+01  0.10599807332E+02  0.34152441269E+02  0.00000000000E+00 0. -1.
</event>
<event>
 7    1  0.2604986E-013  0.7246155E+02  0.7816164E-02  0.1226708E+00
        -11   -1    0    0    0    0  0.00000000000E+00  0.00000000000E+00  0.45593999997E+02  0.45594000000E+02  0.51100000000E-03 0.  1.
         11   -1    0    0    0    0 -0.00000000000E+00 -0.00000000000E+00 -0.45593999997E+02  0.45594000000E+02  0.51100000000E-03 0. -1.
    9900012    2    1    2    0    0 -0.11594576614E+02  0.54674805756E+01 -0.13651097054E+02  0.72461548081E+02  0.69999971063E+02 0.  0.
        -12    1    1    2    0    0  0.11594576614E+02 -0.54674805756E+01  0.13651097054E+02  0.18726451919E+02  0.00000000000E+00 0.  1.
         11    1    3    3    0    0 -0.73893159084E+01  0.28513524055E+02 -0.73134113107E+00  0.29464519404E+02  0.51100000000E-03 0. -1.
        -11    1    3    3    0    0  0.79395692752E+00  0.70669684596E+01  0.39352065717E+01  0.81276233817E+01  0.51100000000E-03 0.  1.
        -12    1    3    3    0    0 -0.49992176331E+01 -0.30113011939E+02 -0.16854962494E+02  0.34869405295E+02  0.00000000000E+00 0.  1.
</event>
<event>
 7    1  0.2604986E-013  0.7246166E+02  0.7816164E-02  0.1226708E+00
        -11   -1    0    0    0    0  0.00000000000E+00  0.00000000000E+00  0.45593999997E+02  0.45594000000E+02  0.51100000000E-03 0.  1.
         11   -1    0    0    0    0 -0.00000000000E+00 -0.00000000000E+00 -0.45593999997E+02  0.45594000000E+02  0.51100000000E-03 0. -1.
    9900012    2    1    2    0    0  0.17622909653E+02 -0.30379581782E+01 -0.55569389539E+01  0.72461662796E+02  0.70000120500E+02 0.  0.
        -12    1    1    2    0    0 -0.17622909653E+02  0.30379581782E+01  0.55569389539E+01  0.18726337204E+02  0.00000000000E+00 0.  1.
         11    1    3    3    0    0  0.97441500635E+01 -0.19609871687E+02 -0.20282690462E+02  0.29847664241E+02  0.51100000000E-03 0. -1.
        -11    1    3    3    0    0 -0.11485761655E+02 -0.10611967599E+01 -0.17588731158E+01  0.11668011581E+02  0.51100000000E-03 0.  1.
         12    1    3    3    0    0  0.19364521245E+02  0.17633110269E+02  0.16484624624E+02  0.30945986974E+02  0.00000000000E+00 0. -1.
</event>
<event>
 7    1  0.2604986E-013  0.7246157E+02  0.7816164E-02  0.1226708E+00
        -11   -1    0    0    0    0  0.00000000000E+00  0.00000000000E+00  0.45593999997E+02  0.45594000000E+02  0.51100000000E-03 0. -1.
         11   -1    0    0    0    0 -0.00000000000E+00 -0.00000000000E+00 -0.45593999997E+02  0.45594000000E+02  0.51100000000E-03 0.  1.
    9900012    2    1    2    0    0  0.35956179384E+01  0.16943314249E+02 -0.71186361765E+01  0.72461565553E+02  0.69999993824E+02 0.  0.
        -12    1    1    2    0    0 -0.35956179384E+01 -0.16943314249E+02  0.71186361765E+01  0.18726434447E+02  0.00000000000E+00 0.  1.
         11    1    3    3    0    0 -0.28053633286E+01 -0.18264463365E+02  0.34291097258E+01  0.18794134170E+02  0.51100000000E-03 0. -1.
        -11    1    3    3    0    0  0.97652042482E+01 -0.58302433385E+01 -0.34455811200E+01  0.11883727568E+02  0.51100000000E-03 0.  1.
         12    1    3    3    0    0 -0.33642229812E+01  0.41038020952E+02 -0.71021647823E+01  0.41783703815E+02  0.00000000000E+00 0. -1.
</event>
<event>
 7    1  0.2604986E-013  0.7246156E+02  0.7816164E-02  0.1226708E+00
        -11   -1    0    0    0    0  0.00000000000E+00  0.00000000000E+00  0.45593999997E+02  0.45594000000E+02  0.51100000000E-03 0. -1.
         11   -1    0    0    0    0 -0.00000000000E+00 -0.00000000000E+00 -0.45593999997E+02  0.45594000000E+02  0.51100000000E-03 0.  1.
    9900012    2    1    2    0    0 -0.10714436503E+02  0.12467693512E+02  0.89686659915E+01  0.72461561450E+02  0.69999988479E+02 0.  0.
        -12    1    1    2    0    0  0.10714436503E+02 -0.12467693512E+02 -0.89686659915E+01  0.18726438550E+02  0.00000000000E+00 0.  1.
         11    1    3    3    0    0 -0.22019727183E+02  0.23686189909E+02  0.22936358704E+02  0.39648209651E+02  0.51100000000E-03 0. -1.
        -11    1    3    3    0    0 -0.46108114172E+01  0.40311503985E+01  0.94942153011E+00  0.61976735122E+01  0.51100000000E-03 0.  1.
        -12    1    3    3    0    0  0.15916102098E+02 -0.15249646796E+02 -0.14917114242E+02  0.26615678288E+02  0.00000000000E+00 0.  1.
</event>
<event>
 7    1  0.2604986E-013  0.7246154E+02  0.7816164E-02  0.1226708E+00
        -11   -1    0    0    0    0  0.00000000000E+00  0.00000000000E+00  0.45593999997E+02  0.45594000000E+02  0.51100000000E-03 0.  1.
         11   -1    0    0    0    0 -0.00000000000E+00 -0.00000000000E+00 -0.45593999997E+02  0.45594000000E+02  0.51100000000E-03 0. -1.
    9900012    2    1    2    0    0 -0.18056998034E+02 -0.36416480116E+00 -0.49490014679E+01  0.72461537186E+02  0.69999956870E+02 0.  0.
        -12    1    1    2    0    0  0.18056998034E+02  0.36416480116E+00  0.49490014679E+01  0.18726462814E+02  0.00000000000E+00 0.  1.
         11    1    3    3    0    0 -0.11309944475E+02 -0.59138340636E+01 -0.24524763773E+01  0.12996265540E+02  0.51100000000E-03 0. -1.
        -11    1    3    3    0    0 -0.19944327861E+02 -0.21493185690E+02 -0.13373831512E+01  0.29351692267E+02  0.51100000000E-03 0.  1.
         12    1    3    3    0    0  0.13197274302E+02  0.27042854952E+02 -0.11591419394E+01  0.30113579379E+02  0.00000000000E+00 0. -1.
</event>
<event>
 7    1  0.2604986E-013  0.7246132E+02  0.7816164E-02  0.1226709E+00
        -11   -1    0    0    0    0  0.00000000000E+00  0.00000000000E+00  0.45593999997E+02  0.45594000000E+02  0.51100000000E-03 0. -1.
         11   -1    0    0    0    0 -0.00000000000E+00 -0.00000000000E+00 -0.45593999997E+02  0.45594000000E+02  0.51100000000E-03 0.  1.
    9900012    2    1    2    0    0 -0.15234961587E+02  0.36166463260E+01  0.10271534745E+02  0.72461318200E+02  0.69999671600E+02 0.  0.
        -12    1    1    2    0    0  0.15234961587E+02 -0.36166463260E+01 -0.10271534745E+02  0.18726681800E+02  0.00000000000E+00 0.  1.
         11    1    3    3    0    0 -0.11304238238E+02  0.68859241129E+01  0.13465911249E+02  0.18882068717E+02  0.51100000000E-03 0. -1.
        -11    1    3    3    0    0  0.17490168535E+02 -0.47857897092E+01  0.16444153482E+02  0.24478969801E+02  0.51100000000E-03 0.  1.
         12    1    3    3    0    0 -0.21420891884E+02  0.15165119223E+01 -0.19638529987E+02  0.29100279682E+02  0.00000000000E+00 0. -1.
</event>
<event>
 7    1  0.2604986E-013  0.7246153E+02  0.7816164E-02  0.1226708E+00
        -11   -1    0    0    0    0  0.00000000000E+00  0.00000000000E+00  0.45593999997E+02  0.45594000000E+02  0.51100000000E-03 0. -1.
         11   -1    0    0    0    0 -0.00000000000E+00 -0.00000000000E+00 -0.45593999997E+02  0.45594000000E+02  0.51100000000E-03 0.  1.
    9900012    2    1    2    0    0  0.50025449362E+01  0.15242453666E+02  0.96603670069E+01  0.72461533694E+02  0.69999952321E+02 0.  0.
        -12    1    1    2    0    0 -0.50025449362E+01 -0.15242453666E+02 -0.96603670069E+01  0.18726466306E+02  0.00000000000E+00 0.  1.
         11    1    3    3    0    0  0.79107340751E+01  0.25158281769E+02 -0.35069816255E+01  0.26604844964E+02  0.51100000000E-03 0. -1.
        -11    1    3    3    0    0 -0.17030349643E+02  0.65975673783E+01 -0.33430849795E+01  0.18567092441E+02  0.51100000000E-03 0.  1.
         12    1    3    3    0    0  0.14122160504E+02 -0.16513395481E+02  0.16510433612E+02  0.27289596290E+02  0.00000000000E+00 0. -1.
</event>
<event>
 7    1  0.2604986E-013  0.7246205E+02  0.7816164E-02  0.1226707E+00
        -11   -1    0    0    0    0  0.00000000000E+00  0.00000000000E+00  0.45593999997E+02  0.45594000000E+02  0.51100000000E-03 0. -1.
         11   -1    0    0    0    0 -0.00000000000E+00 -0.00000000000E+00 -0.45593999997E+02  0.45594000000E+02  0.51100000000E-03 0.  1.
    9900012    2    1    2    0    0 -0.13462119740E+02  0.64267261416E+01  0.11319446435E+02  0.72462046236E+02  0.70000619999E+02 0.  0.
        -12    1    1    2    0    0  0.13462119740E+02 -0.64267261416E+01 -0.11319446435E+02  0.18725953764E+02  0.00000000000E+00 0.  1.
         11    1    3    3    0    0 -0.71590766061E+01 -0.95804197201E+01  0.10893221440E+02  0.16177116352E+02  0.51100000000E-03 0. -1.
        -11    1    3    3    0    0  0.16069560283E+02  0.20957398925E+02  0.13754984099E+02  0.29776549921E+02  0.51100000000E-03 0.  1.
         12    1    3    3    0    0 -0.22372603416E+02 -0.49502530629E+01 -0.13328759104E+02  0.26508379963E+02  0.00000000000E+00 0. -1.
</event>
<event>
 7    1  0.2604986E-013  0.7246156E+02  0.7816164E-02  0.1226708E+00
        -11   -1    0    0    0    0  0.00000000000E+00  0.00000000000E+00  0.45593999997E+02  0.45594000000E+02  0.51100000000E-03 0.  1.
         11   -1    0    0    0    0 -0.00000000000E+00 -0.00000000000E+00 -0.45593999997E+02  0.45594000000E+02  0.51100000000E-03 0. -1.
    9900012    2    1    2    0    0  0.56945191315E+01 -0.14001531077E+02 -0.11054821522E+02  0.72461561483E+02  0.69999988522E+02 0.  0.
        -12    1    1    2    0    0 -0.56945191315E+01  0.14001531077E+02  0.11054821522E+02  0.18726438517E+02  0.00000000000E+00 0.  1.
         11    1    3    3    0    0  0.19371105267E+02 -0.25822591920E+02 -0.25208353269E+02  0.40957380868E+02  0.51100000000E-03 0. -1.
        -11    1    3    3    0    0 -0.97194738130E+01  0.27581801304E+00 -0.32461502562E+01  0.10250938422E+02  0.51100000000E-03 0.  1.
        -12    1    3    3    0    0 -0.39571123225E+01  0.11545242831E+02  0.17399682003E+02  0.21253242194E+02  0.00000000000E+00 0.  1.
</event>
<event>
 7    1  0.2604986E-013  0.7246161E+02  0.7816164E-02  0.1226708E+00
        -11   -1    0    0    0    0  0.00000000000E+00  0.00000000000E+00  0.45593999997E+02  0.45594000000E+02  0.51100000000E-03 0.  1.
         11   -1    0    0    0    0 -0.00000000000E+00 -0.00000000000E+00 -0.45593999997E+02  0.45594000000E+02  0.51100000000E-03 0. -1.
    9900012    2    1    2    0    0 -0.94090515357E+01 -0.61130603704E+00 -0.16179420326E+02  0.72461612523E+02  0.70000055010E+02 0.  0.
        -12    1    1    2    0    0  0.94090515357E+01  0.61130603704E+00  0.16179420326E+02  0.18726387477E+02  0.00000000000E+00 0.  1.
         11    1    3    3    0    0  0.56147190895E+01 -0.39194804563E-02 -0.13765180469E+02  0.14866246313E+02  0.51100000000E-03 0.  1.
        -11    1    3    3    0    0  0.12789729370E+02 -0.16889820861E+02 -0.11505714785E+02  0.24108602179E+02  0.51100000000E-03 0. -1.
        -12    1    3    3    0    0 -0.27813499996E+02  0.16282434304E+02  0.90914749281E+01  0.33486764031E+02  0.00000000000E+00 0.  1.
</event>
<event>
 7    1  0.2604986E-013  0.7246156E+02  0.7816164E-02  0.1226708E+00
        -11   -1    0    0    0    0  0.00000000000E+00  0.00000000000E+00  0.45593999997E+02  0.45594000000E+02  0.51100000000E-03 0. -1.
         11   -1    0    0    0    0 -0.00000000000E+00 -0.00000000000E+00 -0.45593999997E+02  0.45594000000E+02  0.51100000000E-03 0.  1.
    9900012    2    1    2    0    0  0.63534858229E+01  0.11790939333E+02  0.13087650868E+02  0.72461557794E+02  0.69999983716E+02 0.  0.
        -12    1    1    2    0    0 -0.63534858229E+01 -0.11790939333E+02 -0.13087650868E+02  0.18726442206E+02  0.00000000000E+00 0.  1.
         11    1    3    3    0    0 -0.14016953943E+02  0.67809930385E+01  0.17131362432E+02  0.23150387545E+02  0.51100000000E-03 0. -1.
        -11    1    3    3    0    0  0.22919040081E+02 -0.43176907769E+01  0.15155855098E+02  0.27814111452E+02  0.51100000000E-03 0.  1.
         12    1    3    3    0    0 -0.25486003144E+01  0.93276370714E+01 -0.19199566662E+02  0.21497058797E+02  0.00000000000E+00 0. -1.
</event>
<event>
 7    1  0.2604986E-013  0.7246156E+02  0.7816164E-02  0.1226708E+00
        -11   -1    0    0    0    0  0.00000000000E+00  0.00000000000E+00  0.45593999997E+02  0.45594000000E+02  0.51100000000E-03 0.  1.
         11   -1    0    0    0    0 -0.00000000000E+00 -0.00000000000E+00 -0.45593999997E+02  0.45594000000E+02  0.51100000000E-03 0. -1.
    9900012    2    1    2    0    0  0.14392387298E+02  0.95453529450E+01 -0.72405092288E+01  0.72461560165E+02  0.69999986805E+02 0.  0.
        -12    1    1    2    0    0 -0.14392387298E+02 -0.95453529450E+01  0.72405092288E+01  0.18726439835E+02  0.00000000000E+00 0.  1.
         11    1    3    3    0    0  0.57966870588E+01 -0.14588362754E+01 -0.91013537072E+01  0.10888729205E+02  0.51100000000E-03 0. -1.
        -11    1    3    3    0    0  0.14375191618E+02  0.11503220145E+02 -0.26698017624E+02  0.32430762450E+02  0.51100000000E-03 0.  1.
        -12    1    3    3    0    0 -0.57794913785E+01 -0.49903092436E+00  0.28558862103E+02  0.29142068510E+02  0.00000000000E+00 0.  1.
</event>
<event>
 7    1  0.2604986E-013  0.7246154E+02  0.7816164E-02  0.1226708E+00
        -11   -1    0    0    0    0  0.00000000000E+00  0.00000000000E+00  0.45593999997E+02  0.45594000000E+02  0.51100000000E-03 0.  1.
         11   -1    0    0    0    0 -0.00000000000E+00 -0.00000000000E+00 -0.45593999997E+02  0.45594000000E+02  0.51100000000E-03 0. -1.
    9900012    2    1    2    0    0  0.38728385508E+01  0.17719185705E+02 -0.46596056648E+01  0.72461538897E+02  0.69999959099E+02 0.  0.
        -12    1    1    2    0    0 -0.38728385508E+01 -0.17719185705E+02  0.46596056648E+01  0.18726461103E+02  0.00000000000E+00 0.  1.
         11    1    3    3    0    0  0.99311781854E+01  0.38043650343E+01 -0.55900938723E+01  0.12014601251E+02  0.51100000000E-03 0. -1.
        -11    1    3    3    0    0 -0.20165637638E+02 -0.75416101664E+01 -0.18387594305E+02  0.28313114449E+02  0.51100000000E-03 0.  1.
         12    1    3    3    0    0  0.14107298004E+02  0.21456430837E+02  0.19318082512E+02  0.32133823196E+02  0.00000000000E+00 0. -1.
</event>
<event>
 7    1  0.2604986E-013  0.7246155E+02  0.7816164E-02  0.1226708E+00
        -11   -1    0    0    0    0  0.00000000000E+00  0.00000000000E+00  0.45593999997E+02  0.45594000000E+02  0.51100000000E-03 0.  1.
         11   -1    0    0    0    0 -0.00000000000E+00 -0.00000000000E+00 -0.45593999997E+02  0.45594000000E+02  0.51100000000E-03 0. -1.
    9900012    2    1    2    0    0 -0.22479714830E+01  0.15319729744E+02 -0.10532446065E+02  0.72461550382E+02  0.69999974060E+02 0.  0.
        -12    1    1    2    0    0  0.22479714830E+01 -0.15319729744E+02  0.10532446065E+02  0.18726449618E+02  0.00000000000E+00 0.  1.
         11    1    3    3    0    0 -0.15061327340E+01 -0.96443063269E+01 -0.10109457930E+02  0.14052836733E+02  0.51100000000E-03 0. -1.
        -11    1    3    3    0    0 -0.22883965185E+02  0.27489021467E+02  0.28635076897E+01  0.35882054572E+02  0.51100000000E-03 0.  1.
         12    1    3    3    0    0  0.22142126436E+02 -0.25249853963E+01 -0.32864958242E+01  0.22526659077E+02  0.00000000000E+00 0. -1.
</event>
<event>
 7    1  0.2604986E-013  0.7246165E+02  0.7816164E-02  0.1226708E+00
        -11   -1    0    0    0    0  0.00000000000E+00  0.00000000000E+00  0.45593999997E+02  0.45594000000E+02  0.51100000000E-03 0.  1.
         11   -1    0    0    0    0 -0.00000000000E+00 -0.00000000000E+00 -0.45593999997E+02  0.45594000000E+02  0.51100000000E-03 0. -1.
    9900012    2    1    2    0    0 -0.10328169578E+02 -0.89863686207E+01 -0.12776937382E+02  0.72461653942E+02  0.70000108966E+02 0.  0.
        -12    1    1    2    0    0  0.10328169578E+02  0.89863686207E+01  0.12776937382E+02  0.18726346058E+02  0.00000000000E+00 0.  1.
         11    1    3    3    0    0  0.16575058196E+01 -0.10811887785E+02 -0.94679208416E+01  0.14466712424E+02  0.51100000000E-03 0. -1.
        -11    1    3    3    0    0 -0.11716191427E+02 -0.18820615275E+02  0.17826460585E+02  0.28447625527E+02  0.51100000000E-03 0.  1.
        -12    1    3    3    0    0 -0.26948397089E+00  0.20646134440E+02 -0.21135477126E+02  0.29547315991E+02  0.00000000000E+00 0.  1.
</event>
<event>
 7    1  0.2604986E-013  0.7246149E+02  0.7816164E-02  0.1226708E+00
        -11   -1    0    0    0    0  0.00000000000E+00  0.00000000000E+00  0.45593999997E+02  0.45594000000E+02  0.51100000000E-03 0. -1.
         11   -1    0    0    0    0 -0.00000000000E+00 -0.00000000000E+00 -0.45593999997E+02  0.45594000000E+02  0.51100000000E-03 0.  1.
    9900012    2    1    2    0    0 -0.10939855053E+02  0.28540586580E+01  0.14928365688E+02  0.72461489874E+02  0.69999895237E+02 0.  0.
        -12    1    1    2    0    0  0.10939855053E+02 -0.28540586580E+01 -0.14928365688E+02  0.18726510126E+02  0.00000000000E+00 0.  1.
         11    1    3    3    0    0 -0.30331397802E+02  0.15179187908E+02  0.29329951005E+01  0.34044146320E+02  0.51100000000E-03 0. -1.
        -11    1    3    3    0    0 -0.82226824757E+00 -0.33304530763E+01  0.15624778896E+02  0.15996929661E+02  0.51100000000E-03 0.  1.
        -12    1    3    3    0    0  0.20213810996E+02 -0.89946761733E+01 -0.36294083082E+01  0.22420413893E+02  0.00000000000E+00 0.  1.
</event>
<event>
 7    1  0.2604986E-013  0.7246159E+02  0.7816164E-02  0.1226708E+00
        -11   -1    0    0    0    0  0.00000000000E+00  0.00000000000E+00  0.45593999997E+02  0.45594000000E+02  0.51100000000E-03 0. -1.
         11   -1    0    0    0    0 -0.00000000000E+00 -0.00000000000E+00 -0.45593999997E+02  0.45594000000E+02  0.51100000000E-03 0.  1.
    9900012    2    1    2    0    0  0.67366448324E+00 -0.14973597459E+02 -0.11225688053E+02  0.72461587717E+02  0.70000022697E+02 0.  0.
        -12    1    1    2    0    0 -0.67366448324E+00  0.14973597459E+02  0.11225688053E+02  0.18726412283E+02  0.00000000000E+00 0.  1.
         11    1    3    3    0    0  0.12097914666E+02 -0.28659051776E+02  0.21870329936E+01  0.31184674145E+02  0.51100000000E-03 0. -1.
        -11    1    3    3    0    0 -0.30316699040E+01 -0.32619336838E+01  0.10137935906E+02  0.11072893862E+02  0.51100000000E-03 0.  1.
        -12    1    3    3    0    0 -0.83925802791E+01  0.16947388000E+02 -0.23550656953E+02  0.30204019711E+02  0.00000000000E+00 0.  1.
</event>
<event>
 7    1  0.2604986E-013  0.7246158E+02  0.7816164E-02  0.1226708E+00
        -11   -1    0    0    0    0  0.00000000000E+00  0.00000000000E+00  0.45593999997E+02  0.45594000000E+02  0.51100000000E-03 0.  1.
         11   -1    0    0    0    0 -0.00000000000E+00 -0.00000000000E+00 -0.45593999997E+02  0.45594000000E+02  0.51100000000E-03 0. -1.
    9900012    2    1    2    0    0  0.21322274238E+01 -0.18600942058E+02 -0.37040632781E+00  0.72461584431E+02  0.70000018415E+02 0.  0.
        -12    1    1    2    0    0 -0.21322274238E+01  0.18600942058E+02  0.37040632781E+00  0.18726415569E+02  0.00000000000E+00 0.  1.
         11    1    3    3    0    0  0.15092652204E+02  0.22358227747E+01 -0.16275266125E+02  0.22308548625E+02  0.51100000000E-03 0. -1.
        -11    1    3    3    0    0  0.72611086976E+01  0.81549497657E+01  0.89718236212E+01  0.14132251220E+02  0.51100000000E-03 0.  1.
         12    1    3    3    0    0 -0.20221533478E+02 -0.28991714598E+02  0.69330361761E+01  0.36020784586E+02  0.00000000000E+00 0. -1.
</event>
<event>
 7    1  0.2604986E-013  0.7246158E+02  0.7816164E-02  0.1226708E+00
        -11   -1    0    0    0    0  0.00000000000E+00  0.00000000000E+00  0.45593999997E+02  0.45594000000E+02  0.51100000000E-03 0.  1.
         11   -1    0    0    0    0 -0.00000000000E+00 -0.00000000000E+00 -0.45593999997E+02  0.45594000000E+02  0.51100000000E-03 0. -1.
    9900012    2    1    2    0    0 -0.74703719879E+01  0.11241418121E+02 -0.12980859890E+02  0.72461583832E+02  0.70000017635E+02 0.  0.
        -12    1    1    2    0    0  0.74703719879E+01 -0.11241418121E+02  0.12980859890E+02  0.18726416168E+02  0.00000000000E+00 0.  1.
         11    1    3    3    0    0  0.59962202393E+01 -0.35370959298E+01  0.54276037473E+01  0.88274904403E+01  0.51100000000E-03 0. -1.
        -11    1    3    3    0    0 -0.25109038100E+02 -0.80295260896E+01 -0.25897011515E+02  0.36953921161E+02  0.51100000000E-03 0.  1.
         12    1    3    3    0    0  0.11642445873E+02  0.22808040140E+02  0.74885478770E+01  0.26680172230E+02  0.00000000000E+00 0. -1.
</event>
<event>
 7    1  0.2604986E-013  0.7246163E+02  0.7816164E-02  0.1226708E+00
        -11   -1    0    0    0    0  0.00000000000E+00  0.00000000000E+00  0.45593999997E+02  0.45594000000E+02  0.51100000000E-03 0.  1.
         11   -1    0    0    0    0 -0.00000000000E+00 -0.00000000000E+00 -0.45593999997E+02  0.45594000000E+02  0.51100000000E-03 0. -1.
    9900012    2    1    2    0    0  0.10434966852E+02  0.12869484832E+02 -0.87272343134E+01  0.72461633780E+02  0.70000082702E+02 0.  0.
        -12    1    1    2    0    0 -0.10434966852E+02 -0.12869484832E+02  0.87272343134E+01  0.18726366220E+02  0.00000000000E+00 0.  1.
         11    1    3    3    0    0  0.49119965386E+01 -0.12556807829E+02  0.14951443865E+01  0.13566008619E+02  0.51100000000E-03 0. -1.
        -11    1    3    3    0    0 -0.21819915629E+02  0.77674340405E+01  0.37700183522E+01  0.23466034780E+02  0.51100000000E-03 0.  1.
         12    1    3    3    0    0  0.27342885942E+02  0.17658858620E+02 -0.13992397052E+02  0.35429590382E+02  0.00000000000E+00 0. -1.
</event>
<event>
 7    1  0.2604986E-013  0.7246165E+02  0.7816164E-02  0.1226708E+00
        -11   -1    0    0    0    0  0.00000000000E+00  0.00000000000E+00  0.45593999997E+02  0.45594000000E+02  0.51100000000E-03 0.  1.
         11   -1    0    0    0    0 -0.00000000000E+00 -0.00000000000E+00 -0.45593999997E+02  0.45594000000E+02  0.51100000000E-03 0. -1.
    9900012    2    1    2    0    0  0.16099114422E+02 -0.13701374041E+01 -0.94666554500E+01  0.72461646188E+02  0.70000098866E+02 0.  0.
        -12    1    1    2    0    0 -0.16099114422E+02  0.13701374041E+01  0.94666554500E+01  0.18726353812E+02  0.00000000000E+00 0.  1.
         11    1    3    3    0    0  0.93934284230E+01  0.11150730471E+02 -0.23238709237E+02  0.27433791113E+02  0.51100000000E-03 0. -1.
        -11    1    3    3    0    0  0.10961477328E+02  0.11606946363E+02 -0.16939237634E+01  0.16054425155E+02  0.51100000000E-03 0.  1.
        -12    1    3    3    0    0 -0.42557913294E+01 -0.24127814238E+02  0.15465977550E+02  0.28973429920E+02  0.00000000000E+00 0.  1.
</event>
<event>
 7    1  0.2604986E-013  0.7246167E+02  0.7816164E-02  0.1226708E+00
        -11   -1    0    0    0    0  0.00000000000E+00  0.00000000000E+00  0.45593999997E+02  0.45594000000E+02  0.51100000000E-03 0. -1.
         11   -1    0    0    0    0 -0.00000000000E+00 -0.00000000000E+00 -0.45593999997E+02  0.45594000000E+02  0.51100000000E-03 0.  1.
    9900012    2    1    2    0    0 -0.43079634722E+00 -0.61990201606E+01  0.17665278674E+02  0.72461668082E+02  0.70000127387E+02 0.  0.
        -12    1    1    2    0    0  0.43079634722E+00  0.61990201606E+01 -0.17665278674E+02  0.18726331918E+02  0.00000000000E+00 0.  1.
         11    1    3    3    0    0 -0.78790240332E+01 -0.21233783383E+01  0.79478169679E+01  0.11391029370E+02  0.51100000000E-03 0. -1.
        -11    1    3    3    0    0  0.13663913619E+02 -0.12445236307E+02 -0.21386505570E+02  0.28266040807E+02  0.51100000000E-03 0.  1.
         12    1    3    3    0    0 -0.62156859329E+01  0.83695944850E+01  0.31103967276E+02  0.32804597906E+02  0.00000000000E+00 0. -1.
</event>
<event>
 7    1  0.2604986E-013  0.7246160E+02  0.7816164E-02  0.1226708E+00
        -11   -1    0    0    0    0  0.00000000000E+00  0.00000000000E+00  0.45593999997E+02  0.45594000000E+02  0.51100000000E-03 0. -1.
         11   -1    0    0    0    0 -0.00000000000E+00 -0.00000000000E+00 -0.45593999997E+02  0.45594000000E+02  0.51100000000E-03 0.  1.
    9900012    2    1    2    0    0 -0.14313912995E+02  0.11823459710E+02  0.24486576625E+01  0.72461595404E+02  0.70000032710E+02 0.  0.
        -12    1    1    2    0    0  0.14313912995E+02 -0.11823459710E+02 -0.24486576625E+01  0.18726404596E+02  0.00000000000E+00 0.  1.
         11    1    3    3    0    0  0.40975841001E-01  0.16715374445E+01 -0.10710675031E+02  0.10840400192E+02  0.51100000000E-03 0. -1.
        -11    1    3    3    0    0  0.37139244380E+01  0.15357268998E+02 -0.18789462742E+02  0.24549599920E+02  0.51100000000E-03 0.  1.
         12    1    3    3    0    0 -0.18068813274E+02 -0.52053467323E+01  0.31948795436E+02  0.37071595292E+02  0.00000000000E+00 0. -1.
</event>
<event>
 7    1  0.2604986E-013  0.7246149E+02  0.7816164E-02  0.1226708E+00
        -11   -1    0    0    0    0  0.00000000000E+00  0.00000000000E+00  0.45593999997E+02  0.45594000000E+02  0.51100000000E-03 0.  1.
         11   -1    0    0    0    0 -0.00000000000E+00 -0.00000000000E+00 -0.45593999997E+02  0.45594000000E+02  0.51100000000E-03 0. -1.
    9900012    2    1    2    0    0 -0.13969098686E+02 -0.11259151039E+02 -0.53645190350E+01  0.72461487653E+02  0.69999892344E+02 0.  0.
        -12    1    1    2    0    0  0.13969098686E+02  0.11259151039E+02  0.53645190350E+01  0.18726512347E+02  0.00000000000E+00 0.  1.
         11    1    3    3    0    0 -0.54925492170E+01 -0.36645274079E+01 -0.16197287122E+00  0.66047780807E+01  0.51100000000E-03 0. -1.
        -11    1    3    3    0    0  0.19712490680E+02 -0.15180264418E+01  0.19586255801E+02  0.27829985800E+02  0.51100000000E-03 0.  1.
         12    1    3    3    0    0 -0.28189040149E+02 -0.60765971892E+01 -0.24788801965E+02  0.38026723771E+02  0.00000000000E+00 0. -1.
</event>
<event>
 7    1  0.2604986E-013  0.7246150E+02  0.7816164E-02  0.1226708E+00
        -11   -1    0    0    0    0  0.00000000000E+00  0.00000000000E+00  0.45593999997E+02  0.45594000000E+02  0.51100000000E-03 0.  1.
         11   -1    0    0    0    0 -0.00000000000E+00 -0.00000000000E+00 -0.45593999997E+02  0.45594000000E+02  0.51100000000E-03 0. -1.
    9900012    2    1    2    0    0  0.13604836573E+02  0.13454328142E+01 -0.12797654152E+02  0.72461502211E+02  0.69999911309E+02 0.  0.
        -12    1    1    2    0    0 -0.13604836573E+02 -0.13454328142E+01  0.12797654152E+02  0.18726497789E+02  0.00000000000E+00 0.  1.
         11    1    3    3    0    0  0.14352094481E+02 -0.18820193830E+02 -0.22839489828E+02  0.32891102257E+02  0.51100000000E-03 0. -1.
        -11    1    3    3    0    0 -0.84111541360E+00  0.14597032103E+02 -0.10684328052E+02  0.18108994659E+02  0.51100000000E-03 0.  1.
        -12    1    3    3    0    0  0.93857505702E-01  0.55685945414E+01  0.20726163728E+02  0.21461405296E+02  0.00000000000E+00 0.  1.
</event>
<event>
 7    1  0.2604986E-013  0.7246156E+02  0.7816164E-02  0.1226708E+00
        -11   -1    0    0    0    0  0.00000000000E+00  0.00000000000E+00  0.45593999997E+02  0.45594000000E+02  0.51100000000E-03 0. -1.
         11   -1    0    0    0    0 -0.00000000000E+00 -0.00000000000E+00 -0.45593999997E+02  0.45594000000E+02  0.51100000000E-03 0.  1.
    9900012    2    1    2    0    0 -0.62857498728E+01 -0.58277566755E+00  0.17630355490E+02  0.72461555766E+02  0.69999981074E+02 0.  0.
        -12    1    1    2    0    0  0.62857498728E+01  0.58277566755E+00 -0.17630355490E+02  0.18726444234E+02  0.00000000000E+00 0.  1.
         11    1    3    3    0    0  0.11763063081E+01 -0.33334609558E+01 -0.43446296019E+01  0.56010235773E+01  0.51100000000E-03 0. -1.
        -11    1    3    3    0    0 -0.22836840225E+02 -0.47277112281E+01 -0.13879175857E+02  0.27138608064E+02  0.51100000000E-03 0.  1.
         12    1    3    3    0    0  0.15374784044E+02  0.74783965164E+01  0.35854160949E+02  0.39721924125E+02  0.00000000000E+00 0. -1.
</event>
<event>
 7    1  0.2604986E-013  0.7246157E+02  0.7816164E-02  0.1226708E+00
        -11   -1    0    0    0    0  0.00000000000E+00  0.00000000000E+00  0.45593999997E+02  0.45594000000E+02  0.51100000000E-03 0.  1.
         11   -1    0    0    0    0 -0.00000000000E+00 -0.00000000000E+00 -0.45593999997E+02  0.45594000000E+02  0.51100000000E-03 0. -1.
    9900012    2    1    2    0    0 -0.19927287476E+01 -0.11738347494E+02 -0.14454050667E+02  0.72461565464E+02  0.69999993707E+02 0.  0.
        -12    1    1    2    0    0  0.19927287476E+01  0.11738347494E+02  0.14454050667E+02  0.18726434536E+02  0.00000000000E+00 0.  1.
         11    1    3    3    0    0  0.11031877250E+02 -0.77472346831E+00 -0.11715799999E+02  0.16110942927E+02  0.51100000000E-03 0. -1.
        -11    1    3    3    0    0 -0.21398558773E+02 -0.50988293024E+01 -0.24123557532E+02  0.32647241937E+02  0.51100000000E-03 0.  1.
         12    1    3    3    0    0  0.83739527758E+01 -0.58647947233E+01  0.21385306863E+02  0.23703380600E+02  0.00000000000E+00 0. -1.
</event>
<event>
 7    1  0.2604986E-013  0.7246157E+02  0.7816164E-02  0.1226708E+00
        -11   -1    0    0    0    0  0.00000000000E+00  0.00000000000E+00  0.45593999997E+02  0.45594000000E+02  0.51100000000E-03 0. -1.
         11   -1    0    0    0    0 -0.00000000000E+00 -0.00000000000E+00 -0.45593999997E+02  0.45594000000E+02  0.51100000000E-03 0.  1.
    9900012    2    1    2    0    0  0.63859262810E+00 -0.35510352040E+01  0.18375567706E+02  0.72461571081E+02  0.70000001024E+02 0.  0.
        -12    1    1    2    0    0 -0.63859262810E+00  0.35510352040E+01 -0.18375567706E+02  0.18726428919E+02  0.00000000000E+00 0.  1.
         11    1    3    3    0    0  0.67933374271E+01  0.10086641459E+02  0.62242830884E+00  0.12176912030E+02  0.51100000000E-03 0. -1.
        -11    1    3    3    0    0  0.75989942592E+01  0.15016301126E+02 -0.86885416636E+01  0.18940030881E+02  0.51100000000E-03 0.  1.
         12    1    3    3    0    0 -0.13753739058E+02 -0.28653977789E+02  0.26441681060E+02  0.41344628170E+02  0.00000000000E+00 0. -1.
</event>
<event>
 7    1  0.2604986E-013  0.7246161E+02  0.7816164E-02  0.1226708E+00
        -11   -1    0    0    0    0  0.00000000000E+00  0.00000000000E+00  0.45593999997E+02  0.45594000000E+02  0.51100000000E-03 0. -1.
         11   -1    0    0    0    0 -0.00000000000E+00 -0.00000000000E+00 -0.45593999997E+02  0.45594000000E+02  0.51100000000E-03 0.  1.
    9900012    2    1    2    0    0 -0.15400165909E+01  0.86206973811E+01  0.16552626706E+02  0.72461614196E+02  0.70000057189E+02 0.  0.
        -12    1    1    2    0    0  0.15400165909E+01 -0.86206973811E+01 -0.16552626706E+02  0.18726385804E+02  0.00000000000E+00 0.  1.
         11    1    3    3    0    0  0.80895531091E+01 -0.10664209185E+02  0.17291265472E+02  0.21866734757E+02  0.51100000000E-03 0. -1.
        -11    1    3    3    0    0  0.11198216873E+02  0.13774443070E+02  0.15539245651E+02  0.23592445797E+02  0.51100000000E-03 0.  1.
        -12    1    3    3    0    0 -0.20827786573E+02  0.55104634962E+01 -0.16277884417E+02  0.27002433641E+02  0.00000000000E+00 0.  1.
</event>
<event>
 7    1  0.2604986E-013  0.7246156E+02  0.7816164E-02  0.1226708E+00
        -11   -1    0    0    0    0  0.00000000000E+00  0.00000000000E+00  0.45593999997E+02  0.45594000000E+02  0.51100000000E-03 0. -1.
         11   -1    0    0    0    0 -0.00000000000E+00 -0.00000000000E+00 -0.45593999997E+02  0.45594000000E+02  0.51100000000E-03 0.  1.
    9900012    2    1    2    0    0 -0.11807044165E+02 -0.46441341177E+01  0.13773349324E+02  0.72461563467E+02  0.69999991106E+02 0.  0.
        -12    1    1    2    0    0  0.11807044165E+02  0.46441341177E+01 -0.13773349324E+02  0.18726436533E+02  0.00000000000E+00 0.  1.
         11    1    3    3    0    0  0.10530791079E+02 -0.57467328351E+00 -0.38698990156E+01  0.11234052198E+02  0.51100000000E-03 0. -1.
        -11    1    3    3    0    0  0.13831836169E+02  0.77183277773E+00  0.20369080829E+02  0.24633612641E+02  0.51100000000E-03 0.  1.
         12    1    3    3    0    0 -0.36169671414E+02 -0.48412936119E+01 -0.27258324897E+01  0.36593898628E+02  0.00000000000E+00 0. -1.
</event>
<event>
 7    1  0.2604986E-013  0.7246153E+02  0.7816164E-02  0.1226708E+00
        -11   -1    0    0    0    0  0.00000000000E+00  0.00000000000E+00  0.45593999997E+02  0.45594000000E+02  0.51100000000E-03 0.  1.
         11   -1    0    0    0    0 -0.00000000000E+00 -0.00000000000E+00 -0.45593999997E+02  0.45594000000E+02  0.51100000000E-03 0. -1.
    9900012    2    1    2    0    0  0.27502036062E+01 -0.19769011942E+01 -0.18417629727E+02  0.72461525613E+02  0.69999941795E+02 0.  0.
        -12    1    1    2    0    0 -0.27502036062E+01  0.19769011942E+01  0.18417629727E+02  0.18726474387E+02  0.00000000000E+00 0.  1.
         11    1    3    3    0    0 -0.85229179313E+01 -0.18792484711E+01 -0.21243717081E+02  0.22966654536E+02  0.51100000000E-03 0. -1.
        -11    1    3    3    0    0 -0.12302745084E+02  0.48391927320E+01 -0.14651914919E+02  0.19734587250E+02  0.51100000000E-03 0.  1.
        -12    1    3    3    0    0  0.23575866622E+02 -0.49368454551E+01  0.17478002273E+02  0.29760283827E+02  0.00000000000E+00 0.  1.
</event>
<event>
 7    1  0.2604986E-013  0.7246153E+02  0.7816164E-02  0.1226708E+00
        -11   -1    0    0    0    0  0.00000000000E+00  0.00000000000E+00  0.45593999997E+02  0.45594000000E+02  0.51100000000E-03 0.  1.
         11   -1    0    0    0    0 -0.00000000000E+00 -0.00000000000E+00 -0.45593999997E+02  0.45594000000E+02  0.51100000000E-03 0. -1.
    9900012    2    1    2    0    0  0.18624231969E+02 -0.18070991140E+01  0.74357363367E+00  0.72461534092E+02  0.69999952840E+02 0.  0.
        -12    1    1    2    0    0 -0.18624231969E+02  0.18070991140E+01 -0.74357363367E+00  0.18726465908E+02  0.00000000000E+00 0.  1.
         11    1    3    3    0    0  0.11615027458E+02 -0.60484120003E+01  0.15884899708E+02  0.20586942211E+02  0.51100000000E-03 0. -1.
        -11    1    3    3    0    0  0.95245622560E+01 -0.43481519810E+00  0.16895836091E+02  0.19400402776E+02  0.51100000000E-03 0.  1.
         12    1    3    3    0    0 -0.25153577454E+01  0.46761280844E+01 -0.32037162165E+02  0.32474189105E+02  0.00000000000E+00 0. -1.
</event>
<event>
 7    1  0.2604986E-013  0.7246160E+02  0.7816164E-02  0.1226708E+00
        -11   -1    0    0    0    0  0.00000000000E+00  0.00000000000E+00  0.45593999997E+02  0.45594000000E+02  0.51100000000E-03 0.  1.
         11   -1    0    0    0    0 -0.00000000000E+00 -0.00000000000E+00 -0.45593999997E+02  0.45594000000E+02  0.51100000000E-03 0. -1.
    9900012    2    1    2    0    0 -0.31922113024E+01  0.18324530052E+02  0.21678620231E+01  0.72461595103E+02  0.70000032317E+02 0.  0.
        -12    1    1    2    0    0  0.31922113024E+01 -0.18324530052E+02 -0.21678620231E+01  0.18726404897E+02  0.00000000000E+00 0.  1.
         11    1    3    3    0    0 -0.39431783057E+01  0.66389408794E+01  0.56385258803E+00  0.77422297275E+01  0.51100000000E-03 0. -1.
        -11    1    3    3    0    0 -0.15168270769E+02  0.33893445906E+02  0.36900913401E+01  0.37315665449E+02  0.51100000000E-03 0.  1.
         12    1    3    3    0    0  0.15919237773E+02 -0.22207856733E+02 -0.20860819050E+01  0.27403699927E+02  0.00000000000E+00 0. -1.
</event>
<event>
 7    1  0.2604986E-013  0.7246156E+02  0.7816164E-02  0.1226708E+00
        -11   -1    0    0    0    0  0.00000000000E+00  0.00000000000E+00  0.45593999997E+02  0.45594000000E+02  0.51100000000E-03 0. -1.
         11   -1    0    0    0    0 -0.00000000000E+00 -0.00000000000E+00 -0.45593999997E+02  0.45594000000E+02  0.51100000000E-03 0.  1.
    9900012    2    1    2    0    0 -0.10443024861E+02  0.15418843079E+02 -0.19703242480E+01  0.72461556991E+02  0.69999982670E+02 0.  0.
        -12    1    1    2    0    0  0.10443024861E+02 -0.15418843079E+02  0.19703242480E+01  0.18726443009E+02  0.00000000000E+00 0.  1.
         11    1    3    3    0    0  0.10039935789E+02 -0.18372116640E+02 -0.11540676000E+01  0.20968234374E+02  0.51100000000E-03 0. -1.
        -11    1    3    3    0    0  0.57619103477E+01 -0.24158769223E+01  0.23210501584E+01  0.66650841148E+01  0.51100000000E-03 0.  1.
         12    1    3    3    0    0 -0.26244870998E+02  0.36206836640E+02 -0.31373068065E+01  0.44828238502E+02  0.00000000000E+00 0. -1.
</event>
<event>
 7    1  0.3007631E-013  0.7246163E+02  0.7816164E-02  0.1226708E+00
        -11   -1    0    0    0    0  0.00000000000E+00  0.00000000000E+00  0.45593999997E+02  0.45594000000E+02  0.51100000000E-03 0. -1.
         11   -1    0    0    0    0 -0.00000000000E+00 -0.00000000000E+00 -0.45593999997E+02  0.45594000000E+02  0.51100000000E-03 0.  1.
    9900012    2    1    2    0    0  0.83037742930E+00  0.13975887277E+02  0.12436315399E+02  0.72461631090E+02  0.70000079198E+02 0.  0.
        -12    1    1    2    0    0 -0.83037742930E+00 -0.13975887277E+02 -0.12436315399E+02  0.18726368910E+02  0.00000000000E+00 0.  1.
         11    1    3    3    0    0  0.11712673783E+02  0.25437448446E+01  0.59668117097E+01  0.13388809029E+02  0.51100000000E-03 0. -1.
        -11    1    3    3    0    0  0.56867764584E+01 -0.19349624362E+02 -0.73738871567E+01  0.21473742140E+02  0.51100000000E-03 0.  1.
         12    1    3    3    0    0 -0.16569072812E+02  0.30781766794E+02  0.13843390846E+02  0.37599079921E+02  0.00000000000E+00 0. -1.
</event>
<event>
 7    1  0.2604986E-013  0.7246155E+02  0.7816164E-02  0.1226708E+00
        -11   -1    0    0    0    0  0.00000000000E+00  0.00000000000E+00  0.45593999997E+02  0.45594000000E+02  0.51100000000E-03 0.  1.
         11   -1    0    0    0    0 -0.00000000000E+00 -0.00000000000E+00 -0.45593999997E+02  0.45594000000E+02  0.51100000000E-03 0. -1.
    9900012    2    1    2    0    0  0.74718414439E+01 -0.16595366239E+02 -0.44096662525E+01  0.72461554752E+02  0.69999979754E+02 0.  0.
        -12    1    1    2    0    0 -0.74718414439E+01  0.16595366239E+02  0.44096662525E+01  0.18726445248E+02  0.00000000000E+00 0.  1.
         11    1    3    3    0    0 -0.94397895352E+01 -0.85954350574E+01  0.36705259700E+01  0.13283971223E+02  0.51100000000E-03 0. -1.
        -11    1    3    3    0    0 -0.40079727802E+01 -0.28212129115E+02 -0.95458370448E+01  0.30051806604E+02  0.51100000000E-03 0.  1.
         12    1    3    3    0    0  0.20919603759E+02  0.20212197934E+02  0.14656448223E+01  0.29125776925E+02  0.00000000000E+00 0. -1.
</event>
<event>
 8    1  0.2604986E-013  0.7246161E+02  0.7816164E-02  0.1226708E+00
        -11   -1    0    0    0    0  0.00000000000E+00  0.00000000000E+00  0.45593999997E+02  0.45594000000E+02  0.51100000000E-03 0. -1.
         11   -1    0    0    0    0 -0.00000000000E+00 -0.00000000000E+00 -0.45593999997E+02  0.45594000000E+02  0.51100000000E-03 0.  1.
    9900012    2    1    2    0    0  0.10234219932E+01 -0.18156935246E+02  0.44672094699E+01  0.72461610851E+02  0.70000052833E+02 0.  0.
         23    2    3    3    0    0  0.51893536734E+01 -0.96165242751E+01  0.15652294413E+02  0.57785108152E+02  0.54540970591E+02 0.  0.
        -12    1    1    2    0    0 -0.10234219932E+01  0.18156935246E+02 -0.44672094699E+01  0.18726389149E+02  0.00000000000E+00 0.  1.
         11    1    4    4    0    0 -0.11598010290E+02 -0.48787786278E+01 -0.16771791974E+02  0.20966862662E+02  0.51100000000E-03 0.  1.
        -11    1    4    4    0    0  0.16787363964E+02 -0.47377456473E+01  0.32424086387E+02  0.36818245490E+02  0.51100000000E-03 0. -1.
         12    1    3    3    0    0 -0.41659316802E+01 -0.85404109708E+01 -0.11185084943E+02  0.14676502699E+02  0.00000000000E+00 0. -1.
</event>
<event>
 7    1  0.2604986E-013  0.7246157E+02  0.7816164E-02  0.1226708E+00
        -11   -1    0    0    0    0  0.00000000000E+00  0.00000000000E+00  0.45593999997E+02  0.45594000000E+02  0.51100000000E-03 0.  1.
         11   -1    0    0    0    0 -0.00000000000E+00 -0.00000000000E+00 -0.45593999997E+02  0.45594000000E+02  0.51100000000E-03 0. -1.
    9900012    2    1    2    0    0  0.82033059821E+01 -0.10997411846E+02 -0.12745270886E+02  0.72461568778E+02  0.69999998025E+02 0.  0.
        -12    1    1    2    0    0 -0.82033059821E+01  0.10997411846E+02  0.12745270886E+02  0.18726431222E+02  0.00000000000E+00 0.  1.
         11    1    3    3    0    0  0.90795257549E+00  0.65041791649E+01  0.98313463517E+01  0.11823032430E+02  0.51100000000E-03 0. -1.
        -11    1    3    3    0    0  0.14789460978E+02  0.95839440010E+00  0.13097203819E+02  0.19778357464E+02  0.51100000000E-03 0.  1.
         12    1    3    3    0    0 -0.74941075712E+01 -0.18459985411E+02 -0.35673821057E+02  0.40860178884E+02  0.00000000000E+00 0. -1.
</event>
<event>
 7    1  0.2604986E-013  0.7246165E+02  0.7816164E-02  0.1226708E+00
        -11   -1    0    0    0    0  0.00000000000E+00  0.00000000000E+00  0.45593999997E+02  0.45594000000E+02  0.51100000000E-03 0.  1.
         11   -1    0    0    0    0 -0.00000000000E+00 -0.00000000000E+00 -0.45593999997E+02  0.45594000000E+02  0.51100000000E-03 0. -1.
    9900012    2    1    2    0    0 -0.23130515566E+00 -0.18320704652E+02  0.38696802936E+01  0.72461651007E+02  0.70000105144E+02 0.  0.
        -12    1    1    2    0    0  0.23130515566E+00  0.18320704652E+02 -0.38696802936E+01  0.18726348993E+02  0.00000000000E+00 0.  1.
         11    1    3    3    0    0  0.10495729720E+02 -0.21046738278E+02  0.95804234766E+01  0.25395079223E+02  0.51100000000E-03 0. -1.
        -11    1    3    3    0    0  0.15153956645E+02  0.15991017021E+01  0.85729662858E+01  0.17484143658E+02  0.51100000000E-03 0.  1.
         12    1    3    3    0    0 -0.25880991521E+02  0.11269319236E+01 -0.14283709469E+02  0.29582428126E+02  0.00000000000E+00 0. -1.
</event>
<event>
 7    1  0.2604986E-013  0.7246112E+02  0.7816164E-02  0.1226709E+00
        -11   -1    0    0    0    0  0.00000000000E+00  0.00000000000E+00  0.45593999997E+02  0.45594000000E+02  0.51100000000E-03 0.  1.
         11   -1    0    0    0    0 -0.00000000000E+00 -0.00000000000E+00 -0.45593999997E+02  0.45594000000E+02  0.51100000000E-03 0. -1.
    9900012    2    1    2    0    0  0.22093816915E+01  0.62240741309E+01 -0.17523571990E+02  0.72461119814E+02  0.69999413163E+02 0.  0.
        -12    1    1    2    0    0 -0.22093816915E+01 -0.62240741309E+01  0.17523571990E+02  0.18726880186E+02  0.00000000000E+00 0.  1.
         11    1    3    3    0    0 -0.21599485390E+02  0.15713309881E+01 -0.96068968668E+01  0.23691756327E+02  0.51100000000E-03 0. -1.
        -11    1    3    3    0    0 -0.75789770913E+01  0.11974341102E+02  0.34641912547E+01  0.14588569494E+02  0.51100000000E-03 0.  1.
         12    1    3    3    0    0  0.31387844172E+02 -0.73215979592E+01 -0.11380866377E+02  0.34180793993E+02  0.00000000000E+00 0. -1.
</event>
<event>
 7    1  0.2604986E-013  0.7246153E+02  0.7816164E-02  0.1226708E+00
        -11   -1    0    0    0    0  0.00000000000E+00  0.00000000000E+00  0.45593999997E+02  0.45594000000E+02  0.51100000000E-03 0.  1.
         11   -1    0    0    0    0 -0.00000000000E+00 -0.00000000000E+00 -0.45593999997E+02  0.45594000000E+02  0.51100000000E-03 0. -1.
    9900012    2    1    2    0    0  0.16295084994E+02  0.71516281880E+01  0.58313821068E+01  0.72461532154E+02  0.69999950316E+02 0.  0.
        -12    1    1    2    0    0 -0.16295084994E+02 -0.71516281880E+01 -0.58313821068E+01  0.18726467846E+02  0.00000000000E+00 0.  1.
         11    1    3    3    0    0 -0.45916208823E+00 -0.28025187521E+01 -0.38866547515E+01  0.48136292543E+01  0.51100000000E-03 0. -1.
        -11    1    3    3    0    0  0.28863148007E+02 -0.10625169619E+02  0.24710692728E+02  0.39453692827E+02  0.51100000000E-03 0.  1.
         12    1    3    3    0    0 -0.12108900925E+02  0.20579316559E+02 -0.14992655869E+02  0.28194210073E+02  0.00000000000E+00 0. -1.
</event>
<event>
 7    1  0.2604986E-013  0.7246158E+02  0.7816164E-02  0.1226708E+00
        -11   -1    0    0    0    0  0.00000000000E+00  0.00000000000E+00  0.45593999997E+02  0.45594000000E+02  0.51100000000E-03 0. -1.
         11   -1    0    0    0    0 -0.00000000000E+00 -0.00000000000E+00 -0.45593999997E+02  0.45594000000E+02  0.51100000000E-03 0.  1.
    9900012    2    1    2    0    0  0.13004673494E+02 -0.12690934127E+02  0.45274268588E+01  0.72461576538E+02  0.70000008134E+02 0.  0.
        -12    1    1    2    0    0 -0.13004673494E+02  0.12690934127E+02 -0.45274268588E+01  0.18726423462E+02  0.00000000000E+00 0.  1.
         11    1    3    3    0    0  0.83672549209E+01  0.33223756907E+00 -0.60326321723E+00  0.83955502192E+01  0.51100000000E-03 0. -1.
        -11    1    3    3    0    0  0.28080383740E+02 -0.24476797359E+01 -0.14513439104E+02  0.31703927233E+02  0.51100000000E-03 0.  1.
         12    1    3    3    0    0 -0.23442965167E+02 -0.10575491960E+02  0.19644129180E+02  0.32362099086E+02  0.00000000000E+00 0. -1.
</event>
<event>
 7    1  0.2604986E-013  0.7246160E+02  0.7816164E-02  0.1226708E+00
        -11   -1    0    0    0    0  0.00000000000E+00  0.00000000000E+00  0.45593999997E+02  0.45594000000E+02  0.51100000000E-03 0.  1.
         11   -1    0    0    0    0 -0.00000000000E+00 -0.00000000000E+00 -0.45593999997E+02  0.45594000000E+02  0.51100000000E-03 0. -1.
    9900012    2    1    2    0    0  0.94138144918E+01 -0.12350292637E+02 -0.10465581346E+02  0.72461600869E+02  0.70000039829E+02 0.  0.
        -12    1    1    2    0    0 -0.94138144918E+01  0.12350292637E+02  0.10465581346E+02  0.18726399131E+02  0.00000000000E+00 0.  1.
         11    1    3    3    0    0  0.23132763488E+02 -0.41883580018E+01  0.15628575518E+02  0.28229761996E+02  0.51100000000E-03 0. -1.
        -11    1    3    3    0    0  0.51030781797E+01  0.12955396717E+01  0.46091071440E+01  0.69974065821E+01  0.51100000000E-03 0.  1.
         12    1    3    3    0    0 -0.18822027176E+02 -0.94574743067E+01 -0.30703264008E+02  0.37234432291E+02  0.00000000000E+00 0. -1.
</event>
<event>
 7    1  0.2604986E-013  0.7246156E+02  0.7816164E-02  0.1226708E+00
        -11   -1    0    0    0    0  0.00000000000E+00  0.00000000000E+00  0.45593999997E+02  0.45594000000E+02  0.51100000000E-03 0. -1.
         11   -1    0    0    0    0 -0.00000000000E+00 -0.00000000000E+00 -0.45593999997E+02  0.45594000000E+02  0.51100000000E-03 0.  1.
    9900012    2    1    2    0    0 -0.57568454100E+01  0.59377221867E+01  0.16801243767E+02  0.72461558641E+02  0.69999984820E+02 0.  0.
        -12    1    1    2    0    0  0.57568454100E+01 -0.59377221867E+01 -0.16801243767E+02  0.18726441359E+02  0.00000000000E+00 0.  1.
         11    1    3    3    0    0 -0.10377680761E+02  0.13372798217E+02  0.24909695666E+02  0.30116788152E+02  0.51100000000E-03 0. -1.
        -11    1    3    3    0    0 -0.15916954033E+02  0.17331460124E+01  0.44061328462E+01  0.16606240626E+02  0.51100000000E-03 0.  1.
        -12    1    3    3    0    0  0.20537789384E+02 -0.91682220429E+01 -0.12514584746E+02  0.25738529864E+02  0.00000000000E+00 0.  1.
</event>
<event>
 7    1  0.2604986E-013  0.7246148E+02  0.7816164E-02  0.1226708E+00
        -11   -1    0    0    0    0  0.00000000000E+00  0.00000000000E+00  0.45593999997E+02  0.45594000000E+02  0.51100000000E-03 0. -1.
         11   -1    0    0    0    0 -0.00000000000E+00 -0.00000000000E+00 -0.45593999997E+02  0.45594000000E+02  0.51100000000E-03 0.  1.
    9900012    2    1    2    0    0 -0.13034446681E+02  0.13444449787E+02 -0.18067410232E+00  0.72461476738E+02  0.69999878125E+02 0.  0.
        -12    1    1    2    0    0  0.13034446681E+02 -0.13444449787E+02  0.18067410232E+00  0.18726523262E+02  0.00000000000E+00 0.  1.
         11    1    3    3    0    0  0.65974396333E+01 -0.46347550488E+01  0.25528201111E+02  0.26771182572E+02  0.51100000000E-03 0. -1.
        -11    1    3    3    0    0  0.34226274495E+01 -0.26240357128E+01  0.13847706288E+01  0.45296282447E+01  0.51100000000E-03 0.  1.
         12    1    3    3    0    0 -0.23054513764E+02  0.20703240549E+02 -0.27093645842E+02  0.41160665921E+02  0.00000000000E+00 0. -1.
</event>
<event>
 7    1  0.2604986E-013  0.7246163E+02  0.7816164E-02  0.1226708E+00
        -11   -1    0    0    0    0  0.00000000000E+00  0.00000000000E+00  0.45593999997E+02  0.45594000000E+02  0.51100000000E-03 0.  1.
         11   -1    0    0    0    0 -0.00000000000E+00 -0.00000000000E+00 -0.45593999997E+02  0.45594000000E+02  0.51100000000E-03 0. -1.
    9900012    2    1    2    0    0  0.97556207651E+00 -0.16780007321E+02 -0.82556949141E+01  0.72461631810E+02  0.70000080136E+02 0.  0.
        -12    1    1    2    0    0 -0.97556207651E+00  0.16780007321E+02  0.82556949141E+01  0.18726368190E+02  0.00000000000E+00 0.  1.
         11    1    3    3    0    0 -0.11083632063E+02 -0.22263948274E+02 -0.21081429890E+02  0.32603021010E+02  0.51100000000E-03 0. -1.
        -11    1    3    3    0    0  0.70641631786E+00  0.18536698659E+01 -0.12083149222E+02  0.12244901444E+02  0.51100000000E-03 0.  1.
        -12    1    3    3    0    0  0.11352777822E+02  0.36302710875E+01  0.24908884198E+02  0.27613709357E+02  0.00000000000E+00 0.  1.
</event>
<event>
 7    1  0.2604986E-013  0.7246158E+02  0.7816164E-02  0.1226708E+00
        -11   -1    0    0    0    0  0.00000000000E+00  0.00000000000E+00  0.45593999997E+02  0.45594000000E+02  0.51100000000E-03 0. -1.
         11   -1    0    0    0    0 -0.00000000000E+00 -0.00000000000E+00 -0.45593999997E+02  0.45594000000E+02  0.51100000000E-03 0.  1.
    9900012    2    1    2    0    0  0.85736736149E+01  0.92114244625E+01 -0.13867972936E+02  0.72461577672E+02  0.70000009610E+02 0.  0.
        -12    1    1    2    0    0 -0.85736736149E+01 -0.92114244625E+01  0.13867972936E+02  0.18726422328E+02  0.00000000000E+00 0.  1.
         11    1    3    3    0    0 -0.15220391632E+02 -0.33654205632E+01 -0.81002463699E+01  0.17567025033E+02  0.51100000000E-03 0. -1.
        -11    1    3    3    0    0 -0.32749665373E+01 -0.81387063933E+01 -0.16895999147E+02  0.19037823800E+02  0.51100000000E-03 0.  1.
         12    1    3    3    0    0  0.27069031785E+02  0.20715551419E+02  0.11128272582E+02  0.35856728839E+02  0.00000000000E+00 0. -1.
</event>
<event>
 7    1  0.2604986E-013  0.7246152E+02  0.7816164E-02  0.1226708E+00
        -11   -1    0    0    0    0  0.00000000000E+00  0.00000000000E+00  0.45593999997E+02  0.45594000000E+02  0.51100000000E-03 0.  1.
         11   -1    0    0    0    0 -0.00000000000E+00 -0.00000000000E+00 -0.45593999997E+02  0.45594000000E+02  0.51100000000E-03 0. -1.
    9900012    2    1    2    0    0  0.42304768719E+01  0.11681340742E+02 -0.14011796961E+02  0.72461518479E+02  0.69999932501E+02 0.  0.
        -12    1    1    2    0    0 -0.42304768719E+01 -0.11681340742E+02  0.14011796961E+02  0.18726481521E+02  0.00000000000E+00 0.  1.
         11    1    3    3    0    0  0.12968946233E+02 -0.36475817735E+01 -0.25738925889E+02  0.29051518469E+02  0.51100000000E-03 0. -1.
        -11    1    3    3    0    0  0.42690071732E+01  0.15818341436E+02 -0.91808757546E+01  0.18781182814E+02  0.51100000000E-03 0.  1.
        -12    1    3    3    0    0 -0.13007476534E+02 -0.48941892062E+00  0.20908004683E+02  0.24628817196E+02  0.00000000000E+00 0.  1.
</event>
<event>
 7    1  0.2604986E-013  0.7246157E+02  0.7816164E-02  0.1226708E+00
        -11   -1    0    0    0    0  0.00000000000E+00  0.00000000000E+00  0.45593999997E+02  0.45594000000E+02  0.51100000000E-03 0.  1.
         11   -1    0    0    0    0 -0.00000000000E+00 -0.00000000000E+00 -0.45593999997E+02  0.45594000000E+02  0.51100000000E-03 0. -1.
    9900012    2    1    2    0    0 -0.85692781281E+01  0.10693914429E+02 -0.12762707952E+02  0.72461573546E+02  0.70000004236E+02 0.  0.
        -12    1    1    2    0    0  0.85692781281E+01 -0.10693914429E+02  0.12762707952E+02  0.18726426454E+02  0.00000000000E+00 0.  1.
         11    1    3    3    0    0 -0.13831489919E+02  0.28804315033E+02 -0.25866846383E+02  0.41110733635E+02  0.51100000000E-03 0. -1.
        -11    1    3    3    0    0 -0.11758139655E+01 -0.48164545029E+01 -0.56249417474E+01  0.74980492385E+01  0.51100000000E-03 0.  1.
        -12    1    3    3    0    0  0.64380257568E+01 -0.13293946102E+02  0.18729080178E+02  0.23852790673E+02  0.00000000000E+00 0.  1.
</event>
<event>
 7    1  0.2604986E-013  0.7246157E+02  0.7816164E-02  0.1226708E+00
        -11   -1    0    0    0    0  0.00000000000E+00  0.00000000000E+00  0.45593999997E+02  0.45594000000E+02  0.51100000000E-03 0. -1.
         11   -1    0    0    0    0 -0.00000000000E+00 -0.00000000000E+00 -0.45593999997E+02  0.45594000000E+02  0.51100000000E-03 0.  1.
    9900012    2    1    2    0    0 -0.15194504936E+02  0.10943260551E+02  0.22648501056E+00  0.72461568755E+02  0.69999997995E+02 0.  0.
        -12    1    1    2    0    0  0.15194504936E+02 -0.10943260551E+02 -0.22648501056E+00  0.18726431245E+02  0.00000000000E+00 0.  1.
         11    1    3    3    0    0  0.10417340470E+02 -0.19499083962E+02  0.11406598763E+02  0.24876610570E+02  0.51100000000E-03 0. -1.
        -11    1    3    3    0    0 -0.11637114073E+01  0.10142477680E+02 -0.12053193490E+02  0.15795681413E+02  0.51100000000E-03 0.  1.
        -12    1    3    3    0    0 -0.24448133999E+02  0.20299866833E+02  0.87307973776E+00  0.31789276772E+02  0.00000000000E+00 0.  1.
</event>
<event>
 7    1  0.2604986E-013  0.7246160E+02  0.7816164E-02  0.1226708E+00
        -11   -1    0    0    0    0  0.00000000000E+00  0.00000000000E+00  0.45593999997E+02  0.45594000000E+02  0.51100000000E-03 0.  1.
         11   -1    0    0    0    0 -0.00000000000E+00 -0.00000000000E+00 -0.45593999997E+02  0.45594000000E+02  0.51100000000E-03 0. -1.
    9900012    2    1    2    0    0 -0.11205383061E+02  0.15000076863E+02  0.33938273491E+00  0.72461598956E+02  0.70000037337E+02 0.  0.
        -12    1    1    2    0    0  0.11205383061E+02 -0.15000076863E+02 -0.33938273491E+00  0.18726401044E+02  0.00000000000E+00 0.  1.
         11    1    3    3    0    0  0.10718203675E+02 -0.16027181160E-01  0.36683633483E+01  0.11328593770E+02  0.51100000000E-03 0. -1.
        -11    1    3    3    0    0 -0.20087618598E+02  0.14668060505E+01  0.23542743472E+02  0.30982651781E+02  0.51100000000E-03 0.  1.
         12    1    3    3    0    0 -0.18359681373E+01  0.13549297994E+02 -0.26871724085E+02  0.30150353405E+02  0.00000000000E+00 0. -1.
</event>
<event>
 7    1  0.2604986E-013  0.7246165E+02  0.7816164E-02  0.1226708E+00
        -11   -1    0    0    0    0  0.00000000000E+00  0.00000000000E+00  0.45593999997E+02  0.45594000000E+02  0.51100000000E-03 0.  1.
         11   -1    0    0    0    0 -0.00000000000E+00 -0.00000000000E+00 -0.45593999997E+02  0.45594000000E+02  0.51100000000E-03 0. -1.
    9900012    2    1    2    0    0  0.14077667238E+02  0.11842259147E+02 -0.35009290044E+01  0.72461646365E+02  0.70000099096E+02 0.  0.
        -12    1    1    2    0    0 -0.14077667238E+02 -0.11842259147E+02  0.35009290044E+01  0.18726353635E+02  0.00000000000E+00 0.  1.
         11    1    3    3    0    0  0.24577697888E+01  0.31080738958E+02  0.62381748743E+01  0.31795719720E+02  0.51100000000E-03 0. -1.
        -11    1    3    3    0    0  0.71200266027E+01 -0.69952575279E+01  0.11818309264E+02  0.15469351661E+02  0.51100000000E-03 0.  1.
        -12    1    3    3    0    0  0.44998708461E+01 -0.12243222283E+02 -0.21557413143E+02  0.25196574984E+02  0.00000000000E+00 0.  1.
</event>
<event>
 7    1  0.2604986E-013  0.7246153E+02  0.7816164E-02  0.1226708E+00
        -11   -1    0    0    0    0  0.00000000000E+00  0.00000000000E+00  0.45593999997E+02  0.45594000000E+02  0.51100000000E-03 0. -1.
         11   -1    0    0    0    0 -0.00000000000E+00 -0.00000000000E+00 -0.45593999997E+02  0.45594000000E+02  0.51100000000E-03 0.  1.
    9900012    2    1    2    0    0 -0.66828912127E+01 -0.12470728813E+02  0.12267865106E+02  0.72461531397E+02  0.69999949329E+02 0.  0.
        -12    1    1    2    0    0  0.66828912127E+01  0.12470728813E+02 -0.12267865106E+02  0.18726468603E+02  0.00000000000E+00 0.  1.
         11    1    3    3    0    0  0.14002511927E+02 -0.18379981072E+01 -0.66807194092E+01  0.15623078743E+02  0.51100000000E-03 0. -1.
        -11    1    3    3    0    0 -0.21896707154E+02  0.12194449744E+02 -0.28833439522E+01  0.25228635741E+02  0.51100000000E-03 0.  1.
         12    1    3    3    0    0  0.12113040136E+01 -0.22827180450E+02  0.21831928467E+02  0.31609816913E+02  0.00000000000E+00 0. -1.
</event>
<event>
 7    1  0.2604986E-013  0.7246162E+02  0.7816164E-02  0.1226708E+00
        -11   -1    0    0    0    0  0.00000000000E+00  0.00000000000E+00  0.45593999997E+02  0.45594000000E+02  0.51100000000E-03 0. -1.
         11   -1    0    0    0    0 -0.00000000000E+00 -0.00000000000E+00 -0.45593999997E+02  0.45594000000E+02  0.51100000000E-03 0.  1.
    9900012    2    1    2    0    0 -0.52098049020E+01  0.17950858116E+02 -0.11410608340E+01  0.72461617700E+02  0.70000061755E+02 0.  0.
        -12    1    1    2    0    0  0.52098049020E+01 -0.17950858116E+02  0.11410608340E+01  0.18726382300E+02  0.00000000000E+00 0.  1.
         11    1    3    3    0    0  0.55327290491E+01 -0.99497716034E+01 -0.13115000619E+01  0.11459889980E+02  0.51100000000E-03 0. -1.
        -11    1    3    3    0    0  0.17006884842E+02  0.27404740310E+02  0.55620022344E+01  0.32729035925E+02  0.51100000000E-03 0.  1.
        -12    1    3    3    0    0 -0.27749418793E+02  0.49588940993E+00 -0.53915630065E+01  0.28272691795E+02  0.00000000000E+00 0.  1.
</event>
<event>
 7    1  0.2604986E-013  0.7246153E+02  0.7816164E-02  0.1226708E+00
        -11   -1    0    0    0    0  0.00000000000E+00  0.00000000000E+00  0.45593999997E+02  0.45594000000E+02  0.51100000000E-03 0.  1.
         11   -1    0    0    0    0 -0.00000000000E+00 -0.00000000000E+00 -0.45593999997E+02  0.45594000000E+02  0.51100000000E-03 0. -1.
    9900012    2    1    2    0    0  0.18012824053E+01 -0.17432614698E+02  0.65984905754E+01  0.72461528058E+02  0.69999944979E+02 0.  0.
        -12    1    1    2    0    0 -0.18012824053E+01  0.17432614698E+02 -0.65984905754E+01  0.18726471942E+02  0.00000000000E+00 0.  1.
         11    1    3    3    0    0  0.88746196869E+00 -0.10579235779E+01 -0.11283069207E+01  0.17832183857E+01  0.51100000000E-03 0. -1.
        -11    1    3    3    0    0  0.23771591578E+02 -0.33559564506E+02  0.88171353571E+01  0.42060371041E+02  0.51100000000E-03 0.  1.
         12    1    3    3    0    0 -0.22857771141E+02  0.17184873385E+02 -0.10903378609E+01  0.28617938631E+02  0.00000000000E+00 0. -1.
</event>
<event>
 7    1  0.2604986E-013  0.7246165E+02  0.7816164E-02  0.1226708E+00
        -11   -1    0    0    0    0  0.00000000000E+00  0.00000000000E+00  0.45593999997E+02  0.45594000000E+02  0.51100000000E-03 0.  1.
         11   -1    0    0    0    0 -0.00000000000E+00 -0.00000000000E+00 -0.45593999997E+02  0.45594000000E+02  0.51100000000E-03 0. -1.
    9900012    2    1    2    0    0 -0.98650677326E+01 -0.61108759833E+01 -0.14697410909E+02  0.72461648137E+02  0.70000101405E+02 0.  0.
        -12    1    1    2    0    0  0.98650677326E+01  0.61108759833E+01  0.14697410909E+02  0.18726351863E+02  0.00000000000E+00 0.  1.
         11    1    3    3    0    0 -0.74717263499E+00 -0.25746979033E+02  0.32860831252E+01  0.25966585044E+02  0.51100000000E-03 0. -1.
        -11    1    3    3    0    0  0.19478678352E+01  0.26340389236E+01 -0.24860259911E+02  0.25075184412E+02  0.51100000000E-03 0.  1.
        -12    1    3    3    0    0 -0.11065762933E+02  0.17002064126E+02  0.68767658773E+01  0.21419878682E+02  0.00000000000E+00 0.  1.
</event>
<event>
 7    1  0.2604986E-013  0.7246155E+02  0.7816164E-02  0.1226708E+00
        -11   -1    0    0    0    0  0.00000000000E+00  0.00000000000E+00  0.45593999997E+02  0.45594000000E+02  0.51100000000E-03 0.  1.
         11   -1    0    0    0    0 -0.00000000000E+00 -0.00000000000E+00 -0.45593999997E+02  0.45594000000E+02  0.51100000000E-03 0. -1.
    9900012    2    1    2    0    0 -0.99954534140E+01  0.14748064124E+02 -0.57676234405E+01  0.72461549068E+02  0.69999972349E+02 0.  0.
        -12    1    1    2    0    0  0.99954534140E+01 -0.14748064124E+02  0.57676234405E+01  0.18726450932E+02  0.00000000000E+00 0.  1.
         11    1    3    3    0    0 -0.22694760366E+02 -0.16602717136E+02  0.10920608160E+02  0.30165577190E+02  0.51100000000E-03 0. -1.
        -11    1    3    3    0    0 -0.23602738950E+01  0.35554121317E+00  0.19826095470E+01  0.31029088435E+01  0.51100000000E-03 0.  1.
        -12    1    3    3    0    0  0.15059580847E+02  0.30995240047E+02 -0.18670841147E+02  0.39193063034E+02  0.00000000000E+00 0.  1.
</event>
<event>
 7    1  0.2604986E-013  0.7246142E+02  0.7816164E-02  0.1226708E+00
        -11   -1    0    0    0    0  0.00000000000E+00  0.00000000000E+00  0.45593999997E+02  0.45594000000E+02  0.51100000000E-03 0.  1.
         11   -1    0    0    0    0 -0.00000000000E+00 -0.00000000000E+00 -0.45593999997E+02  0.45594000000E+02  0.51100000000E-03 0. -1.
    9900012    2    1    2    0    0  0.12635026426E+02  0.60954043344E+01 -0.12405111178E+02  0.72461424496E+02  0.69999810070E+02 0.  0.
        -12    1    1    2    0    0 -0.12635026426E+02 -0.60954043344E+01  0.12405111178E+02  0.18726575504E+02  0.00000000000E+00 0.  1.
         11    1    3    3    0    0  0.10993796881E+02  0.48689103428E+00 -0.67152458149E+01  0.12891670154E+02  0.51100000000E-03 0. -1.
        -11    1    3    3    0    0  0.11050229041E+02  0.30484665493E+02 -0.26860064249E+00  0.32426756523E+02  0.51100000000E-03 0.  1.
         12    1    3    3    0    0 -0.94089994959E+01 -0.24876152192E+02 -0.54212647206E+01  0.27142997819E+02  0.00000000000E+00 0. -1.
</event>
<event>
 7    1  0.2604986E-013  0.7246163E+02  0.7816164E-02  0.1226708E+00
        -11   -1    0    0    0    0  0.00000000000E+00  0.00000000000E+00  0.45593999997E+02  0.45594000000E+02  0.51100000000E-03 0.  1.
         11   -1    0    0    0    0 -0.00000000000E+00 -0.00000000000E+00 -0.45593999997E+02  0.45594000000E+02  0.51100000000E-03 0. -1.
    9900012    2    1    2    0    0  0.17407360373E+02 -0.55363946628E+00 -0.68814357948E+01  0.72461631682E+02  0.70000079968E+02 0.  0.
        -12    1    1    2    0    0 -0.17407360373E+02  0.55363946628E+00  0.68814357948E+01  0.18726368318E+02  0.00000000000E+00 0.  1.
         11    1    3    3    0    0 -0.48959239664E+01 -0.10481782252E+02 -0.20173532640E+01  0.11743404324E+02  0.51100000000E-03 0. -1.
        -11    1    3    3    0    0 -0.99524226063E+01  0.11847642373E+02 -0.19793130074E+02  0.25123402316E+02  0.51100000000E-03 0.  1.
         12    1    3    3    0    0  0.32255706945E+02 -0.19194995865E+01  0.14929047543E+02  0.35594825042E+02  0.00000000000E+00 0. -1.
</event>
<event>
 7    1  0.2604986E-013  0.7246156E+02  0.7816164E-02  0.1226708E+00
        -11   -1    0    0    0    0  0.00000000000E+00  0.00000000000E+00  0.45593999997E+02  0.45594000000E+02  0.51100000000E-03 0.  1.
         11   -1    0    0    0    0 -0.00000000000E+00 -0.00000000000E+00 -0.45593999997E+02  0.45594000000E+02  0.51100000000E-03 0. -1.
    9900012    2    1    2    0    0 -0.15126928335E+02  0.43195986665E+01  0.10158576301E+02  0.72461559710E+02  0.69999986212E+02 0.  0.
        -12    1    1    2    0    0  0.15126928335E+02 -0.43195986665E+01 -0.10158576301E+02  0.18726440290E+02  0.00000000000E+00 0.  1.
         11    1    3    3    0    0 -0.89241088858E+01  0.82216729480E-01  0.46466906004E+01  0.10061720171E+02  0.51100000000E-03 0. -1.
        -11    1    3    3    0    0 -0.30162387378E+02  0.85503572931E+00  0.18035728447E+02  0.35153779303E+02  0.51100000000E-03 0.  1.
         12    1    3    3    0    0  0.23959567929E+02  0.33823462077E+01 -0.12523842746E+02  0.27246060236E+02  0.00000000000E+00 0. -1.
</event>
<event>
 7    1  0.2604986E-013  0.7246154E+02  0.7816164E-02  0.1226708E+00
        -11   -1    0    0    0    0  0.00000000000E+00  0.00000000000E+00  0.45593999997E+02  0.45594000000E+02  0.51100000000E-03 0.  1.
         11   -1    0    0    0    0 -0.00000000000E+00 -0.00000000000E+00 -0.45593999997E+02  0.45594000000E+02  0.51100000000E-03 0. -1.
    9900012    2    1    2    0    0  0.12737863145E+02 -0.13197507514E+02 -0.37752943938E+01  0.72461542518E+02  0.69999963816E+02 0.  0.
        -12    1    1    2    0    0 -0.12737863145E+02  0.13197507514E+02  0.37752943938E+01  0.18726457482E+02  0.00000000000E+00 0.  1.
         11    1    3    3    0    0  0.28263224516E+02 -0.42597005497E+01 -0.12754510491E+02  0.31299080609E+02  0.51100000000E-03 0. -1.
        -11    1    3    3    0    0  0.74467687952E+01 -0.14044865787E+02  0.75156660013E+01  0.17584022752E+02  0.51100000000E-03 0.  1.
        -12    1    3    3    0    0 -0.22972130166E+02  0.51070588229E+01  0.14635500963E+01  0.23578439157E+02  0.00000000000E+00 0.  1.
</event>
<event>
 7    1  0.2604986E-013  0.7246159E+02  0.7816164E-02  0.1226708E+00
        -11   -1    0    0    0    0  0.00000000000E+00  0.00000000000E+00  0.45593999997E+02  0.45594000000E+02  0.51100000000E-03 0.  1.
         11   -1    0    0    0    0 -0.00000000000E+00 -0.00000000000E+00 -0.45593999997E+02  0.45594000000E+02  0.51100000000E-03 0. -1.
    9900012    2    1    2    0    0 -0.10566028395E+02  0.13804288228E+02  0.69627062555E+01  0.72461585289E+02  0.70000019534E+02 0.  0.
        -12    1    1    2    0    0  0.10566028395E+02 -0.13804288228E+02 -0.69627062555E+01  0.18726414711E+02  0.00000000000E+00 0.  1.
         11    1    3    3    0    0  0.33457612679E+01 -0.60084861637E+01 -0.50610705384E+01  0.85387621876E+01  0.51100000000E-03 0. -1.
        -11    1    3    3    0    0  0.12072463481E+02  0.31696370834E+02  0.95863545429E+01  0.35246311754E+02  0.51100000000E-03 0.  1.
         12    1    3    3    0    0 -0.25984253144E+02 -0.11883596443E+02  0.24374222510E+01  0.28676511348E+02  0.00000000000E+00 0. -1.
</event>
<event>
 7    1  0.2604986E-013  0.7246163E+02  0.7816164E-02  0.1226708E+00
        -11   -1    0    0    0    0  0.00000000000E+00  0.00000000000E+00  0.45593999997E+02  0.45594000000E+02  0.51100000000E-03 0. -1.
         11   -1    0    0    0    0 -0.00000000000E+00 -0.00000000000E+00 -0.45593999997E+02  0.45594000000E+02  0.51100000000E-03 0.  1.
    9900012    2    1    2    0    0  0.35505100141E+01 -0.13003502098E+02  0.12999225504E+02  0.72461626836E+02  0.70000073657E+02 0.  0.
        -12    1    1    2    0    0 -0.35505100141E+01  0.13003502098E+02 -0.12999225504E+02  0.18726373164E+02  0.00000000000E+00 0.  1.
         11    1    3    3    0    0  0.21490618674E+02 -0.24598133447E+01  0.15993564890E+02  0.26901514657E+02  0.51100000000E-03 0. -1.
        -11    1    3    3    0    0  0.12663440337E+02 -0.41828090624E+00  0.23458474998E+01  0.12885677353E+02  0.51100000000E-03 0.  1.
        -12    1    3    3    0    0 -0.30603548997E+02 -0.10125407847E+02 -0.53401868865E+01  0.32674434827E+02  0.00000000000E+00 0.  1.
</event>
<event>
 7    1  0.2604986E-013  0.7246162E+02  0.7816164E-02  0.1226708E+00
        -11   -1    0    0    0    0  0.00000000000E+00  0.00000000000E+00  0.45593999997E+02  0.45594000000E+02  0.51100000000E-03 0.  1.
         11   -1    0    0    0    0 -0.00000000000E+00 -0.00000000000E+00 -0.45593999997E+02  0.45594000000E+02  0.51100000000E-03 0. -1.
    9900012    2    1    2    0    0  0.17851670974E+02  0.86193076269E+00 -0.55903529873E+01  0.72461624810E+02  0.70000071017E+02 0.  0.
        -12    1    1    2    0    0 -0.17851670974E+02 -0.86193076269E+00  0.55903529873E+01  0.18726375190E+02  0.00000000000E+00 0.  1.
         11    1    3    3    0    0  0.44024822440E+00  0.14469567092E+02 -0.30316209321E+01  0.14790298038E+02  0.51100000000E-03 0. -1.
        -11    1    3    3    0    0 -0.57960152039E+01 -0.11126960411E+02 -0.23289810443E+02  0.26454079288E+02  0.51100000000E-03 0.  1.
         12    1    3    3    0    0  0.23207437954E+02 -0.24806759179E+01  0.20731078388E+02  0.31217247485E+02  0.00000000000E+00 0. -1.
</event>
<event>
 7    1  0.2604986E-013  0.7246155E+02  0.7816164E-02  0.1226708E+00
        -11   -1    0    0    0    0  0.00000000000E+00  0.00000000000E+00  0.45593999997E+02  0.45594000000E+02  0.51100000000E-03 0.  1.
         11   -1    0    0    0    0 -0.00000000000E+00 -0.00000000000E+00 -0.45593999997E+02  0.45594000000E+02  0.51100000000E-03 0. -1.
    9900012    2    1    2    0    0  0.16338941359E+02 -0.65097093280E+01  0.64298269931E+01  0.72461548243E+02  0.69999971274E+02 0.  0.
        -12    1    1    2    0    0 -0.16338941359E+02  0.65097093280E+01 -0.64298269931E+01  0.18726451757E+02  0.00000000000E+00 0.  1.
         11    1    3    3    0    0  0.12871201085E+02  0.15868160782E+02  0.16748842450E+02  0.26419501655E+02  0.51100000000E-03 0. -1.
        -11    1    3    3    0    0  0.18696036645E+02 -0.19565839490E+01 -0.81080096005E+01  0.20472172013E+02  0.51100000000E-03 0.  1.
        -12    1    3    3    0    0 -0.15228296372E+02 -0.20421286161E+02 -0.22110058568E+01  0.25569874575E+02  0.00000000000E+00 0.  1.
</event>
<event>
 7    1  0.2604986E-013  0.7246154E+02  0.7816164E-02  0.1226708E+00
        -11   -1    0    0    0    0  0.00000000000E+00  0.00000000000E+00  0.45593999997E+02  0.45594000000E+02  0.51100000000E-03 0.  1.
         11   -1    0    0    0    0 -0.00000000000E+00 -0.00000000000E+00 -0.45593999997E+02  0.45594000000E+02  0.51100000000E-03 0. -1.
    9900012    2    1    2    0    0  0.16636546569E+02 -0.67441711010E+01  0.53311905413E+01  0.72461544965E+02  0.69999967004E+02 0.  0.
        -12    1    1    2    0    0 -0.16636546569E+02  0.67441711010E+01 -0.53311905413E+01  0.18726455035E+02  0.00000000000E+00 0.  1.
         11    1    3    3    0    0  0.16287851408E+02  0.68528734645E+01  0.93095181900E+01  0.19973059540E+02  0.51100000000E-03 0. -1.
        -11    1    3    3    0    0 -0.19342296928E+02  0.30151815877E+01  0.11233693841E+02  0.22570149491E+02  0.51100000000E-03 0.  1.
         12    1    3    3    0    0  0.19690992090E+02 -0.16612226153E+02 -0.15212021490E+02  0.29918335934E+02  0.00000000000E+00 0. -1.
</event>
<event>
 7    1  0.2604986E-013  0.7246155E+02  0.7816164E-02  0.1226708E+00
        -11   -1    0    0    0    0  0.00000000000E+00  0.00000000000E+00  0.45593999997E+02  0.45594000000E+02  0.51100000000E-03 0.  1.
         11   -1    0    0    0    0 -0.00000000000E+00 -0.00000000000E+00 -0.45593999997E+02  0.45594000000E+02  0.51100000000E-03 0. -1.
    9900012    2    1    2    0    0  0.90189296371E+01 -0.10105882931E+02 -0.12930975233E+02  0.72461545929E+02  0.69999968259E+02 0.  0.
        -12    1    1    2    0    0 -0.90189296371E+01  0.10105882931E+02  0.12930975233E+02  0.18726454071E+02  0.00000000000E+00 0.  1.
         11    1    3    3    0    0  0.16775681433E+02 -0.10908128723E+02 -0.32356737718E+02  0.38044306221E+02  0.51100000000E-03 0. -1.
        -11    1    3    3    0    0 -0.41298171643E+01 -0.11635167380E+02  0.17017353144E+01  0.12463082007E+02  0.51100000000E-03 0.  1.
        -12    1    3    3    0    0 -0.36269346320E+01  0.12437413171E+02  0.17724027171E+02  0.21954157701E+02  0.00000000000E+00 0.  1.
</event>
<event>
 7    1  0.2604986E-013  0.7246163E+02  0.7816164E-02  0.1226708E+00
        -11   -1    0    0    0    0  0.00000000000E+00  0.00000000000E+00  0.45593999997E+02  0.45594000000E+02  0.51100000000E-03 0. -1.
         11   -1    0    0    0    0 -0.00000000000E+00 -0.00000000000E+00 -0.45593999997E+02  0.45594000000E+02  0.51100000000E-03 0.  1.
    9900012    2    1    2    0    0  0.15292393040E+02  0.10727106718E+02 -0.13224630890E+01  0.72461627899E+02  0.70000075041E+02 0.  0.
        -12    1    1    2    0    0 -0.15292393040E+02 -0.10727106718E+02  0.13224630890E+01  0.18726372101E+02  0.00000000000E+00 0.  1.
         11    1    3    3    0    0 -0.15823114506E+02  0.15067567443E+02 -0.12808508418E+01  0.21887053719E+02  0.51100000000E-03 0. -1.
        -11    1    3    3    0    0 -0.52474094434E+01  0.14031896426E+01 -0.10912246230E+02  0.12189395599E+02  0.51100000000E-03 0.  1.
        -12    1    3    3    0    0  0.36362916990E+02 -0.57436503679E+01  0.10870633982E+02  0.38385178582E+02  0.00000000000E+00 0.  1.
</event>
<event>
 7    1  0.2604986E-013  0.7246184E+02  0.7816164E-02  0.1226707E+00
        -11   -1    0    0    0    0  0.00000000000E+00  0.00000000000E+00  0.45593999997E+02  0.45594000000E+02  0.51100000000E-03 0.  1.
         11   -1    0    0    0    0 -0.00000000000E+00 -0.00000000000E+00 -0.45593999997E+02  0.45594000000E+02  0.51100000000E-03 0. -1.
    9900012    2    1    2    0    0  0.11991125760E+02  0.15274104620E+01 -0.14302066405E+02  0.72461836934E+02  0.70000347346E+02 0.  0.
        -12    1    1    2    0    0 -0.11991125760E+02 -0.15274104620E+01  0.14302066405E+02  0.18726163066E+02  0.00000000000E+00 0.  1.
         11    1    3    3    0    0 -0.14488784782E+02  0.16144156459E+02 -0.10889597723E+02  0.24272247754E+02  0.51100000000E-03 0. -1.
        -11    1    3    3    0    0  0.54994055172E+01  0.12485522984E+02 -0.27026558155E+01  0.13908130498E+02  0.51100000000E-03 0.  1.
         12    1    3    3    0    0  0.20980505025E+02 -0.27102268981E+02 -0.70981286662E+00  0.34281458681E+02  0.00000000000E+00 0. -1.
</event>
<event>
 7    1  0.2604986E-013  0.7246154E+02  0.7816164E-02  0.1226708E+00
        -11   -1    0    0    0    0  0.00000000000E+00  0.00000000000E+00  0.45593999997E+02  0.45594000000E+02  0.51100000000E-03 0.  1.
         11   -1    0    0    0    0 -0.00000000000E+00 -0.00000000000E+00 -0.45593999997E+02  0.45594000000E+02  0.51100000000E-03 0. -1.
    9900012    2    1    2    0    0  0.82974690665E+01 -0.15374842198E+02 -0.67413933313E+01  0.72461544127E+02  0.69999965912E+02 0.  0.
        -12    1    1    2    0    0 -0.82974690665E+01  0.15374842198E+02  0.67413933313E+01  0.18726455873E+02  0.00000000000E+00 0.  1.
         11    1    3    3    0    0 -0.30619450051E+00  0.59202186045E+01 -0.18211161928E+02  0.19151740455E+02  0.51100000000E-03 0. -1.
        -11    1    3    3    0    0  0.11818181748E+02  0.50851250072E+01  0.21375189501E+02  0.24948479766E+02  0.51100000000E-03 0.  1.
         12    1    3    3    0    0 -0.32145181807E+01 -0.26380185809E+02 -0.99054209040E+01  0.28361323907E+02  0.00000000000E+00 0. -1.
</event>
<event>
 7    1  0.2604986E-013  0.7246155E+02  0.7816164E-02  0.1226708E+00
        -11   -1    0    0    0    0  0.00000000000E+00  0.00000000000E+00  0.45593999997E+02  0.45594000000E+02  0.51100000000E-03 0. -1.
         11   -1    0    0    0    0 -0.00000000000E+00 -0.00000000000E+00 -0.45593999997E+02  0.45594000000E+02  0.51100000000E-03 0.  1.
    9900012    2    1    2    0    0 -0.17648246771E+02  0.12698907879E+00  0.62612449155E+01  0.72461550037E+02  0.69999973612E+02 0.  0.
        -12    1    1    2    0    0  0.17648246771E+02 -0.12698907879E+00 -0.62612449155E+01  0.18726449963E+02  0.00000000000E+00 0.  1.
         11    1    3    3    0    0 -0.35730371832E+01  0.21732797864E+02 -0.36985266604E+01  0.22332939740E+02  0.51100000000E-03 0. -1.
        -11    1    3    3    0    0  0.11673560412E+02  0.66484645763E+00  0.11021542952E+02  0.16068243302E+02  0.51100000000E-03 0.  1.
        -12    1    3    3    0    0 -0.25748769999E+02 -0.22270655243E+02 -0.10617713764E+01  0.34060366996E+02  0.00000000000E+00 0.  1.
</event>
<event>
 7    1  0.2604986E-013  0.7246147E+02  0.7816164E-02  0.1226708E+00
        -11   -1    0    0    0    0  0.00000000000E+00  0.00000000000E+00  0.45593999997E+02  0.45594000000E+02  0.51100000000E-03 0.  1.
         11   -1    0    0    0    0 -0.00000000000E+00 -0.00000000000E+00 -0.45593999997E+02  0.45594000000E+02  0.51100000000E-03 0. -1.
    9900012    2    1    2    0    0  0.92904300064E+01 -0.26596038186E+01 -0.16040486442E+02  0.72461473694E+02  0.69999874160E+02 0.  0.
        -12    1    1    2    0    0 -0.92904300064E+01  0.26596038186E+01  0.16040486442E+02  0.18726526306E+02  0.00000000000E+00 0.  1.
         11    1    3    3    0    0  0.11759547413E+01  0.51328639124E+00 -0.69691210137E+00  0.14601435584E+01  0.51100000000E-03 0. -1.
        -11    1    3    3    0    0  0.26284820531E+02 -0.23807877799E+02 -0.23233389858E+02  0.42396901304E+02  0.51100000000E-03 0.  1.
         12    1    3    3    0    0 -0.18170345266E+02  0.20634987589E+02  0.78898155168E+01  0.28604428832E+02  0.00000000000E+00 0. -1.
</event>
<event>
 7    1  0.2604986E-013  0.7246154E+02  0.7816164E-02  0.1226708E+00
        -11   -1    0    0    0    0  0.00000000000E+00  0.00000000000E+00  0.45593999997E+02  0.45594000000E+02  0.51100000000E-03 0. -1.
         11   -1    0    0    0    0 -0.00000000000E+00 -0.00000000000E+00 -0.45593999997E+02  0.45594000000E+02  0.51100000000E-03 0.  1.
    9900012    2    1    2    0    0  0.21477089626E+01  0.12823918182E+02 -0.13476452060E+02  0.72461540339E+02  0.69999960978E+02 0.  0.
        -12    1    1    2    0    0 -0.21477089626E+01 -0.12823918182E+02  0.13476452060E+02  0.18726459661E+02  0.00000000000E+00 0.  1.
         11    1    3    3    0    0 -0.76090457429E+01  0.21348361687E+02  0.11456832098E+02  0.25395061051E+02  0.51100000000E-03 0. -1.
        -11    1    3    3    0    0  0.36370687284E+01  0.13079838613E+02 -0.85913211991E-01  0.13576370222E+02  0.51100000000E-03 0.  1.
        -12    1    3    3    0    0  0.61196859770E+01 -0.21604282118E+02 -0.24847370946E+02  0.33490109065E+02  0.00000000000E+00 0.  1.
</event>
<event>
 7    1  0.2604986E-013  0.7246159E+02  0.7816164E-02  0.1226708E+00
        -11   -1    0    0    0    0  0.00000000000E+00  0.00000000000E+00  0.45593999997E+02  0.45594000000E+02  0.51100000000E-03 0.  1.
         11   -1    0    0    0    0 -0.00000000000E+00 -0.00000000000E+00 -0.45593999997E+02  0.45594000000E+02  0.51100000000E-03 0. -1.
    9900012    2    1    2    0    0  0.22815944157E+01  0.31048808482E+01 -0.18325727836E+02  0.72461594609E+02  0.70000031674E+02 0.  0.
        -12    1    1    2    0    0 -0.22815944157E+01 -0.31048808482E+01  0.18325727836E+02  0.18726405391E+02  0.00000000000E+00 0.  1.
         11    1    3    3    0    0 -0.14725158511E+01  0.48447098077E+01  0.28315433480E+01  0.58014786086E+01  0.51100000000E-03 0. -1.
        -11    1    3    3    0    0 -0.13212005028E+02 -0.19858143894E+02  0.10810453549E+02  0.26187188890E+02  0.51100000000E-03 0.  1.
         12    1    3    3    0    0  0.16966115295E+02  0.18118314934E+02 -0.31967724733E+02  0.40472927110E+02  0.00000000000E+00 0. -1.
</event>
<event>
 7    1  0.2604986E-013  0.7246161E+02  0.7816164E-02  0.1226708E+00
        -11   -1    0    0    0    0  0.00000000000E+00  0.00000000000E+00  0.45593999997E+02  0.45594000000E+02  0.51100000000E-03 0. -1.
         11   -1    0    0    0    0 -0.00000000000E+00 -0.00000000000E+00 -0.45593999997E+02  0.45594000000E+02  0.51100000000E-03 0.  1.
    9900012    2    1    2    0    0 -0.20933889939E+01  0.15583759513E+02  0.10170635772E+02  0.72461610330E+02  0.70000052154E+02 0.  0.
        -12    1    1    2    0    0  0.20933889939E+01 -0.15583759513E+02 -0.10170635772E+02  0.18726389670E+02  0.00000000000E+00 0.  1.
         11    1    3    3    0    0 -0.94105341543E+01  0.31401205099E+01  0.17400892875E+02  0.20030216749E+02  0.51100000000E-03 0. -1.
        -11    1    3    3    0    0 -0.19622714367E+02 -0.44159149506E+01 -0.18457401693E+01  0.20197969725E+02  0.51100000000E-03 0.  1.
         12    1    3    3    0    0  0.26939859527E+02  0.16859553954E+02 -0.53845169337E+01  0.32233423856E+02  0.00000000000E+00 0. -1.
</event>
<event>
 7    1  0.2604986E-013  0.7246150E+02  0.7816164E-02  0.1226708E+00
        -11   -1    0    0    0    0  0.00000000000E+00  0.00000000000E+00  0.45593999997E+02  0.45594000000E+02  0.51100000000E-03 0.  1.
         11   -1    0    0    0    0 -0.00000000000E+00 -0.00000000000E+00 -0.45593999997E+02  0.45594000000E+02  0.51100000000E-03 0. -1.
    9900012    2    1    2    0    0 -0.69411228360E+01  0.10303945219E+02 -0.14011829476E+02  0.72461499030E+02  0.69999907165E+02 0.  0.
        -12    1    1    2    0    0  0.69411228360E+01 -0.10303945219E+02  0.14011829476E+02  0.18726500970E+02  0.00000000000E+00 0.  1.
         11    1    3    3    0    0 -0.19661657853E+02 -0.70196974663E+01 -0.18095324712E+02  0.27627843179E+02  0.51100000000E-03 0. -1.
        -11    1    3    3    0    0 -0.13495073734E+02  0.51148919878E+01  0.64709780025E+01  0.15816216099E+02  0.51100000000E-03 0.  1.
        -12    1    3    3    0    0  0.26215608751E+02  0.12208750698E+02 -0.23874827667E+01  0.29017439751E+02  0.00000000000E+00 0.  1.
</event>
<event>
 7    1  0.2604986E-013  0.7246165E+02  0.7816164E-02  0.1226708E+00
        -11   -1    0    0    0    0  0.00000000000E+00  0.00000000000E+00  0.45593999997E+02  0.45594000000E+02  0.51100000000E-03 0.  1.
         11   -1    0    0    0    0 -0.00000000000E+00 -0.00000000000E+00 -0.45593999997E+02  0.45594000000E+02  0.51100000000E-03 0. -1.
    9900012    2    1    2    0    0  0.17278389922E+02  0.16393342589E+01 -0.70317831409E+01  0.72461650937E+02  0.70000105051E+02 0.  0.
        -12    1    1    2    0    0 -0.17278389922E+02 -0.16393342589E+01  0.70317831409E+01  0.18726349063E+02  0.00000000000E+00 0.  1.
         11    1    3    3    0    0 -0.24040641230E+00 -0.79561466646E+01 -0.13297072534E+02  0.15497425697E+02  0.51100000000E-03 0. -1.
        -11    1    3    3    0    0  0.23213814680E+02  0.29857489595E+01  0.26243400055E+02  0.35164071658E+02  0.51100000000E-03 0.  1.
         12    1    3    3    0    0 -0.56950183459E+01  0.66097319639E+01 -0.19978110661E+02  0.21800153582E+02  0.00000000000E+00 0. -1.
</event>
<event>
 7    1  0.2604986E-013  0.7246163E+02  0.7816164E-02  0.1226708E+00
        -11   -1    0    0    0    0  0.00000000000E+00  0.00000000000E+00  0.45593999997E+02  0.45594000000E+02  0.51100000000E-03 0.  1.
         11   -1    0    0    0    0 -0.00000000000E+00 -0.00000000000E+00 -0.45593999997E+02  0.45594000000E+02  0.51100000000E-03 0. -1.
    9900012    2    1    2    0    0  0.10675304447E+02  0.80655729404E+01 -0.13101958389E+02  0.72461630744E+02  0.70000078747E+02 0.  0.
        -12    1    1    2    0    0 -0.10675304447E+02 -0.80655729404E+01  0.13101958389E+02  0.18726369256E+02  0.00000000000E+00 0.  1.
         11    1    3    3    0    0 -0.33609632939E+01  0.76000850085E+01 -0.11024334624E+02  0.13805553975E+02  0.51100000000E-03 0. -1.
        -11    1    3    3    0    0  0.12368981474E+02  0.24856251210E+02 -0.14402834152E+02  0.31277253057E+02  0.51100000000E-03 0.  1.
         12    1    3    3    0    0  0.16672862671E+01 -0.24390763278E+02  0.12325210387E+02  0.27378823712E+02  0.00000000000E+00 0. -1.
</event>
<event>
 7    1  0.2604986E-013  0.7246161E+02  0.7816164E-02  0.1226708E+00
        -11   -1    0    0    0    0  0.00000000000E+00  0.00000000000E+00  0.45593999997E+02  0.45594000000E+02  0.51100000000E-03 0.  1.
         11   -1    0    0    0    0 -0.00000000000E+00 -0.00000000000E+00 -0.45593999997E+02  0.45594000000E+02  0.51100000000E-03 0. -1.
    9900012    2    1    2    0    0 -0.45372500180E+01 -0.12260277268E+02 -0.13408076751E+02  0.72461613308E+02  0.70000056033E+02 0.  0.
        -12    1    1    2    0    0  0.45372500180E+01  0.12260277268E+02  0.13408076751E+02  0.18726386692E+02  0.00000000000E+00 0.  1.
         11    1    3    3    0    0  0.21402853197E+02  0.11117348106E+02 -0.23073773654E+02  0.33377785798E+02  0.51100000000E-03 0. -1.
        -11    1    3    3    0    0 -0.21236133864E+01 -0.35973483592E+01 -0.34917357191E+01  0.54445263913E+01  0.51100000000E-03 0.  1.
        -12    1    3    3    0    0 -0.23816489828E+02 -0.19780277015E+02  0.13157432623E+02  0.33639301118E+02  0.00000000000E+00 0.  1.
</event>
<event>
 7    1  0.2604986E-013  0.7246157E+02  0.7816164E-02  0.1226708E+00
        -11   -1    0    0    0    0  0.00000000000E+00  0.00000000000E+00  0.45593999997E+02  0.45594000000E+02  0.51100000000E-03 0. -1.
         11   -1    0    0    0    0 -0.00000000000E+00 -0.00000000000E+00 -0.45593999997E+02  0.45594000000E+02  0.51100000000E-03 0.  1.
    9900012    2    1    2    0    0 -0.64024775689E+01  0.63476391958E+01 -0.16413257211E+02  0.72461568021E+02  0.69999997039E+02 0.  0.
        -12    1    1    2    0    0  0.64024775689E+01 -0.63476391958E+01  0.16413257211E+02  0.18726431979E+02  0.00000000000E+00 0.  1.
         11    1    3    3    0    0  0.21527136302E+01  0.20885333964E+01 -0.68557964660E+01  0.74831873667E+01  0.51100000000E-03 0. -1.
        -11    1    3    3    0    0  0.12461206989E+02 -0.10711398226E+02 -0.28548542707E+02  0.32939869802E+02  0.51100000000E-03 0.  1.
         12    1    3    3    0    0 -0.21016398188E+02  0.14970504025E+02  0.18991081962E+02  0.32038510853E+02  0.00000000000E+00 0. -1.
</event>
<event>
 7    1  0.2604986E-013  0.7246157E+02  0.7816164E-02  0.1226708E+00
        -11   -1    0    0    0    0  0.00000000000E+00  0.00000000000E+00  0.45593999997E+02  0.45594000000E+02  0.51100000000E-03 0. -1.
         11   -1    0    0    0    0 -0.00000000000E+00 -0.00000000000E+00 -0.45593999997E+02  0.45594000000E+02  0.51100000000E-03 0.  1.
    9900012    2    1    2    0    0 -0.10546304246E+02  0.55665618528E-01  0.15474217793E+02  0.72461573533E+02  0.70000004219E+02 0.  0.
        -12    1    1    2    0    0  0.10546304246E+02 -0.55665618528E-01 -0.15474217793E+02  0.18726426467E+02  0.00000000000E+00 0.  1.
         11    1    3    3    0    0  0.23658981207E+02 -0.30529401181E+01  0.92082418611E+01  0.25570677612E+02  0.51100000000E-03 0. -1.
        -11    1    3    3    0    0 -0.11106266430E+02  0.12353869847E+02  0.13023852167E+02  0.21108954965E+02  0.51100000000E-03 0.  1.
        -12    1    3    3    0    0 -0.23099019022E+02 -0.92452641099E+01 -0.67578762348E+01  0.25781940956E+02  0.00000000000E+00 0.  1.
</event>
<event>
 7    1  0.2604986E-013  0.7246159E+02  0.7816164E-02  0.1226708E+00
        -11   -1    0    0    0    0  0.00000000000E+00  0.00000000000E+00  0.45593999997E+02  0.45594000000E+02  0.51100000000E-03 0.  1.
         11   -1    0    0    0    0 -0.00000000000E+00 -0.00000000000E+00 -0.45593999997E+02  0.45594000000E+02  0.51100000000E-03 0. -1.
    9900012    2    1    2    0    0  0.15623216415E+02 -0.57737059747E+00 -0.10308262490E+02  0.72461587543E+02  0.70000022470E+02 0.  0.
        -12    1    1    2    0    0 -0.15623216415E+02  0.57737059747E+00  0.10308262490E+02  0.18726412457E+02  0.00000000000E+00 0.  1.
         11    1    3    3    0    0 -0.60948503864E+01 -0.20931460946E+01 -0.22034206896E+02  0.22957237107E+02  0.51100000000E-03 0. -1.
        -11    1    3    3    0    0  0.11840543569E+01 -0.23422343846E+01  0.24746949398E+02  0.24885729875E+02  0.51100000000E-03 0.  1.
         12    1    3    3    0    0  0.20534012444E+02  0.38580098817E+01 -0.13021004993E+02  0.24618620561E+02  0.00000000000E+00 0. -1.
</event>
<event>
 7    1  0.2604986E-013  0.7246158E+02  0.7816164E-02  0.1226708E+00
        -11   -1    0    0    0    0  0.00000000000E+00  0.00000000000E+00  0.45593999997E+02  0.45594000000E+02  0.51100000000E-03 0. -1.
         11   -1    0    0    0    0 -0.00000000000E+00 -0.00000000000E+00 -0.45593999997E+02  0.45594000000E+02  0.51100000000E-03 0.  1.
    9900012    2    1    2    0    0 -0.14808304889E+01 -0.13253466929E+00  0.18667311843E+02  0.72461576001E+02  0.70000007433E+02 0.  0.
        -12    1    1    2    0    0  0.14808304889E+01  0.13253466929E+00 -0.18667311843E+02  0.18726423999E+02  0.00000000000E+00 0.  1.
         11    1    3    3    0    0  0.11157665265E+02  0.12197344955E+02  0.22764223607E+02  0.28133229370E+02  0.51100000000E-03 0. -1.
        -11    1    3    3    0    0  0.10710207533E+02 -0.21641570028E+01  0.10349723548E+02  0.15050212580E+02  0.51100000000E-03 0.  1.
        -12    1    3    3    0    0 -0.23348703287E+02 -0.10165722622E+02 -0.14446635312E+02  0.29278134050E+02  0.00000000000E+00 0.  1.
</event>
<event>
 7    1  0.2604986E-013  0.7246167E+02  0.7816164E-02  0.1226708E+00
        -11   -1    0    0    0    0  0.00000000000E+00  0.00000000000E+00  0.45593999997E+02  0.45594000000E+02  0.51100000000E-03 0.  1.
         11   -1    0    0    0    0 -0.00000000000E+00 -0.00000000000E+00 -0.45593999997E+02  0.45594000000E+02  0.51100000000E-03 0. -1.
    9900012    2    1    2    0    0  0.18571191520E+02 -0.24033169561E+01  0.10201777363E+00  0.72461668419E+02  0.70000127825E+02 0.  0.
        -12    1    1    2    0    0 -0.18571191520E+02  0.24033169561E+01 -0.10201777363E+00  0.18726331581E+02  0.00000000000E+00 0.  1.
         11    1    3    3    0    0 -0.60734258011E+01  0.47102043625E+01 -0.90591371376E+01  0.11880256396E+02  0.51100000000E-03 0. -1.
        -11    1    3    3    0    0 -0.11751322366E+02  0.10218126135E+02  0.12727556124E+02  0.20112045252E+02  0.51100000000E-03 0.  1.
         12    1    3    3    0    0  0.36395939688E+02 -0.17331647453E+02 -0.35664012128E+01  0.40469366771E+02  0.00000000000E+00 0. -1.
</event>
<event>
 7    1  0.2604986E-013  0.7246154E+02  0.7816164E-02  0.1226708E+00
        -11   -1    0    0    0    0  0.00000000000E+00  0.00000000000E+00  0.45593999997E+02  0.45594000000E+02  0.51100000000E-03 0.  1.
         11   -1    0    0    0    0 -0.00000000000E+00 -0.00000000000E+00 -0.45593999997E+02  0.45594000000E+02  0.51100000000E-03 0. -1.
    9900012    2    1    2    0    0 -0.17617339302E+02  0.67957308534E+00  0.63125236888E+01  0.72461536934E+02  0.69999956541E+02 0.  0.
        -12    1    1    2    0    0  0.17617339302E+02 -0.67957308534E+00 -0.63125236888E+01  0.18726463066E+02  0.00000000000E+00 0.  1.
         11    1    3    3    0    0  0.18475477135E+02  0.26374820934E+01 -0.87289627014E+01  0.20603260841E+02  0.51100000000E-03 0. -1.
        -11    1    3    3    0    0 -0.84656717731E+01 -0.15976852445E+02  0.18132129005E+01  0.18171823076E+02  0.51100000000E-03 0.  1.
        -12    1    3    3    0    0 -0.27627144664E+02  0.14018943437E+02  0.13228273490E+02  0.33686453017E+02  0.00000000000E+00 0.  1.
</event>
<event>
 7    1  0.2604986E-013  0.7246157E+02  0.7816164E-02  0.1226708E+00
        -11   -1    0    0    0    0  0.00000000000E+00  0.00000000000E+00  0.45593999997E+02  0.45594000000E+02  0.51100000000E-03 0. -1.
         11   -1    0    0    0    0 -0.00000000000E+00 -0.00000000000E+00 -0.45593999997E+02  0.45594000000E+02  0.51100000000E-03 0.  1.
    9900012    2    1    2    0    0  0.81637257668E+01 -0.16479658589E+02 -0.35289772740E+01  0.72461568247E+02  0.69999997333E+02 0.  0.
        -12    1    1    2    0    0 -0.81637257668E+01  0.16479658589E+02  0.35289772740E+01  0.18726431753E+02  0.00000000000E+00 0.  1.
         11    1    3    3    0    0 -0.85399284218E+01 -0.10174785445E+02  0.24073499024E+02  0.27495272172E+02  0.51100000000E-03 0. -1.
        -11    1    3    3    0    0  0.14227461811E+02 -0.12348715245E+02 -0.24715915919E+01  0.19000531652E+02  0.51100000000E-03 0.  1.
        -12    1    3    3    0    0  0.24761923774E+01  0.60438421010E+01 -0.25130884706E+02  0.25965764424E+02  0.00000000000E+00 0.  1.
</event>
<event>
 7    1  0.2604986E-013  0.7246167E+02  0.7816164E-02  0.1226708E+00
        -11   -1    0    0    0    0  0.00000000000E+00  0.00000000000E+00  0.45593999997E+02  0.45594000000E+02  0.51100000000E-03 0.  1.
         11   -1    0    0    0    0 -0.00000000000E+00 -0.00000000000E+00 -0.45593999997E+02  0.45594000000E+02  0.51100000000E-03 0. -1.
    9900012    2    1    2    0    0 -0.10642723279E+02 -0.65522281089E+01 -0.13945469956E+02  0.72461671362E+02  0.70000131659E+02 0.  0.
        -12    1    1    2    0    0  0.10642723279E+02  0.65522281089E+01  0.13945469956E+02  0.18726328638E+02  0.00000000000E+00 0.  1.
         11    1    3    3    0    0  0.84801047800E+01 -0.32050397955E+01  0.23699898172E+01  0.93702352780E+01  0.51100000000E-03 0. -1.
        -11    1    3    3    0    0  0.18042665826E+02 -0.13353815886E+02 -0.54755392068E+01  0.23105058292E+02  0.51100000000E-03 0.  1.
         12    1    3    3    0    0 -0.37165493885E+02  0.10006627572E+02 -0.10839920566E+02  0.39986377792E+02  0.00000000000E+00 0. -1.
</event>
<event>
 7    1  0.2604986E-013  0.7246157E+02  0.7816164E-02  0.1226708E+00
        -11   -1    0    0    0    0  0.00000000000E+00  0.00000000000E+00  0.45593999997E+02  0.45594000000E+02  0.51100000000E-03 0.  1.
         11   -1    0    0    0    0 -0.00000000000E+00 -0.00000000000E+00 -0.45593999997E+02  0.45594000000E+02  0.51100000000E-03 0. -1.
    9900012    2    1    2    0    0  0.30678875427E+01  0.17734867051E+02  0.51712429781E+01  0.72461569554E+02  0.69999999036E+02 0.  0.
        -12    1    1    2    0    0 -0.30678875427E+01 -0.17734867051E+02 -0.51712429781E+01  0.18726430446E+02  0.00000000000E+00 0.  1.
         11    1    3    3    0    0 -0.53574324177E+01  0.25665714616E+02  0.17779844573E+02  0.31678918261E+02  0.51100000000E-03 0. -1.
        -11    1    3    3    0    0 -0.93510684685E+01  0.95141806928E+01 -0.76809155204E+01  0.15393458976E+02  0.51100000000E-03 0.  1.
         12    1    3    3    0    0  0.17776388429E+02 -0.17445028258E+02 -0.49276860747E+01  0.25389192317E+02  0.00000000000E+00 0. -1.
</event>
<event>
 7    1  0.2604986E-013  0.7246157E+02  0.7816164E-02  0.1226708E+00
        -11   -1    0    0    0    0  0.00000000000E+00  0.00000000000E+00  0.45593999997E+02  0.45594000000E+02  0.51100000000E-03 0. -1.
         11   -1    0    0    0    0 -0.00000000000E+00 -0.00000000000E+00 -0.45593999997E+02  0.45594000000E+02  0.51100000000E-03 0.  1.
    9900012    2    1    2    0    0 -0.64967478345E+01 -0.32848305461E+01  0.17253443288E+02  0.72461570831E+02  0.70000000699E+02 0.  0.
        -12    1    1    2    0    0  0.64967478345E+01  0.32848305461E+01 -0.17253443288E+02  0.18726429169E+02  0.00000000000E+00 0.  1.
         11    1    3    3    0    0  0.50029072143E-01 -0.14729888376E+02  0.14359965130E+02  0.20571356622E+02  0.51100000000E-03 0. -1.
        -11    1    3    3    0    0 -0.19158229654E+02 -0.11842792753E+02  0.97356881780E+01  0.24537178489E+02  0.51100000000E-03 0.  1.
         12    1    3    3    0    0  0.12611452747E+02  0.23287850582E+02 -0.68422100202E+01  0.27353035720E+02  0.00000000000E+00 0. -1.
</event>
<event>
 7    1  0.2604986E-013  0.7246180E+02  0.7816164E-02  0.1226707E+00
        -11   -1    0    0    0    0  0.00000000000E+00  0.00000000000E+00  0.45593999997E+02  0.45594000000E+02  0.51100000000E-03 0.  1.
         11   -1    0    0    0    0 -0.00000000000E+00 -0.00000000000E+00 -0.45593999997E+02  0.45594000000E+02  0.51100000000E-03 0. -1.
    9900012    2    1    2    0    0 -0.18048223058E+02 -0.78089164129E+00 -0.49317735562E+01  0.72461800767E+02  0.70000300233E+02 0.  0.
        -12    1    1    2    0    0  0.18048223058E+02  0.78089164129E+00  0.49317735562E+01  0.18726199233E+02  0.00000000000E+00 0.  1.
         11    1    3    3    0    0  0.82083839786E+00 -0.88061608747E+00 -0.18725338662E+02  0.18763996606E+02  0.51100000000E-03 0. -1.
        -11    1    3    3    0    0  0.85213334248E+01  0.14656126965E+02  0.15027994615E+02  0.22655149599E+02  0.51100000000E-03 0.  1.
         12    1    3    3    0    0 -0.27390394880E+02 -0.14556402519E+02 -0.12344295085E+01  0.31042654561E+02  0.00000000000E+00 0. -1.
</event>
<event>
 7    1  0.2604986E-013  0.7246126E+02  0.7816164E-02  0.1226709E+00
        -11   -1    0    0    0    0  0.00000000000E+00  0.00000000000E+00  0.45593999997E+02  0.45594000000E+02  0.51100000000E-03 0.  1.
         11   -1    0    0    0    0 -0.00000000000E+00 -0.00000000000E+00 -0.45593999997E+02  0.45594000000E+02  0.51100000000E-03 0. -1.
    9900012    2    1    2    0    0  0.14077628330E+02 -0.86004041553E+01 -0.88625265560E+01  0.72461255809E+02  0.69999590323E+02 0.  0.
        -12    1    1    2    0    0 -0.14077628330E+02  0.86004041553E+01  0.88625265560E+01  0.18726744191E+02  0.00000000000E+00 0.  1.
         11    1    3    3    0    0  0.26741671155E+02 -0.96460184350E+01 -0.97345893140E+01  0.30048708411E+02  0.51100000000E-03 0. -1.
        -11    1    3    3    0    0  0.13994385018E+02 -0.52563256767E+01 -0.78257213551E+00  0.14969441909E+02  0.51100000000E-03 0.  1.
         12    1    3    3    0    0 -0.26658427843E+02  0.63019399565E+01  0.16546348935E+01  0.27443105489E+02  0.00000000000E+00 0. -1.
</event>
<event>
 7    1  0.2604986E-013  0.7246158E+02  0.7816164E-02  0.1226708E+00
        -11   -1    0    0    0    0  0.00000000000E+00  0.00000000000E+00  0.45593999997E+02  0.45594000000E+02  0.51100000000E-03 0.  1.
         11   -1    0    0    0    0 -0.00000000000E+00 -0.00000000000E+00 -0.45593999997E+02  0.45594000000E+02  0.51100000000E-03 0. -1.
    9900012    2    1    2    0    0 -0.83545294142E+00  0.55507851809E+01 -0.17865317966E+02  0.72461580594E+02  0.70000013417E+02 0.  0.
        -12    1    1    2    0    0  0.83545294142E+00 -0.55507851809E+01  0.17865317966E+02  0.18726419406E+02  0.00000000000E+00 0.  1.
         11    1    3    3    0    0  0.19794494829E+02 -0.17648465927E+02 -0.60556128503E+01  0.27202220909E+02  0.51100000000E-03 0. -1.
        -11    1    3    3    0    0  0.27374659494E+01  0.39707427132E+01  0.78207086593E+01  0.91882534637E+01  0.51100000000E-03 0.  1.
         12    1    3    3    0    0 -0.23367413720E+02  0.19228508395E+02 -0.19630413775E+02  0.36071106221E+02  0.00000000000E+00 0. -1.
</event>
<event>
 7    1  0.2604986E-013  0.7246158E+02  0.7816164E-02  0.1226708E+00
        -11   -1    0    0    0    0  0.00000000000E+00  0.00000000000E+00  0.45593999997E+02  0.45594000000E+02  0.51100000000E-03 0. -1.
         11   -1    0    0    0    0 -0.00000000000E+00 -0.00000000000E+00 -0.45593999997E+02  0.45594000000E+02  0.51100000000E-03 0.  1.
    9900012    2    1    2    0    0  0.69951336160E+00 -0.18683204990E+02  0.10617883150E+01  0.72461578504E+02  0.70000010694E+02 0.  0.
        -12    1    1    2    0    0 -0.69951336160E+00  0.18683204990E+02 -0.10617883150E+01  0.18726421496E+02  0.00000000000E+00 0.  1.
         11    1    3    3    0    0  0.75117556987E+01 -0.32895619456E+02 -0.96591533857E+01  0.35097685072E+02  0.51100000000E-03 0. -1.
        -11    1    3    3    0    0  0.11391875852E+02 -0.16919048078E+00  0.81800780659E+01  0.14025588696E+02  0.51100000000E-03 0.  1.
        -12    1    3    3    0    0 -0.18204118189E+02  0.14381604947E+02  0.25408636348E+01  0.23338304735E+02  0.00000000000E+00 0.  1.
</event>
<event>
 7    1  0.2604986E-013  0.7246143E+02  0.7816164E-02  0.1226708E+00
        -11   -1    0    0    0    0  0.00000000000E+00  0.00000000000E+00  0.45593999997E+02  0.45594000000E+02  0.51100000000E-03 0.  1.
         11   -1    0    0    0    0 -0.00000000000E+00 -0.00000000000E+00 -0.45593999997E+02  0.45594000000E+02  0.51100000000E-03 0. -1.
    9900012    2    1    2    0    0  0.18330408025E+02 -0.13369702958E+01 -0.35907109992E+01  0.72461426544E+02  0.69999812738E+02 0.  0.
        -12    1    1    2    0    0 -0.18330408025E+02  0.13369702958E+01  0.35907109992E+01  0.18726573456E+02  0.00000000000E+00 0.  1.
         11    1    3    3    0    0  0.22555090557E+02  0.18129382585E+02 -0.17419482474E+01  0.28990360587E+02  0.51100000000E-03 0. -1.
        -11    1    3    3    0    0  0.16025390531E+02 -0.14819665400E+02 -0.51689440755E+01  0.22431085737E+02  0.51100000000E-03 0.  1.
         12    1    3    3    0    0 -0.20250073064E+02 -0.46466874817E+01  0.33201813237E+01  0.21039980220E+02  0.00000000000E+00 0. -1.
</event>
<event>
 7    1  0.2604986E-013  0.7246157E+02  0.7816164E-02  0.1226708E+00
        -11   -1    0    0    0    0  0.00000000000E+00  0.00000000000E+00  0.45593999997E+02  0.45594000000E+02  0.51100000000E-03 0. -1.
         11   -1    0    0    0    0 -0.00000000000E+00 -0.00000000000E+00 -0.45593999997E+02  0.45594000000E+02  0.51100000000E-03 0.  1.
    9900012    2    1    2    0    0 -0.94769408967E+01 -0.15756270023E+02  0.35505976710E+01  0.72461569544E+02  0.69999999023E+02 0.  0.
        -12    1    1    2    0    0  0.94769408967E+01  0.15756270023E+02 -0.35505976710E+01  0.18726430456E+02  0.00000000000E+00 0.  1.
         11    1    3    3    0    0 -0.86959272583E+01 -0.30381010276E+02 -0.20464549925E+02  0.37648675145E+02  0.51100000000E-03 0. -1.
        -11    1    3    3    0    0 -0.81129004193E+00 -0.46961732409E+01  0.95633989616E+01  0.10685075320E+02  0.51100000000E-03 0.  1.
        -12    1    3    3    0    0  0.30276403487E-01  0.19320913495E+02  0.14451748634E+02  0.24127819079E+02  0.00000000000E+00 0.  1.
</event>
<event>
 7    1  0.2604986E-013  0.7246153E+02  0.7816164E-02  0.1226708E+00
        -11   -1    0    0    0    0  0.00000000000E+00  0.00000000000E+00  0.45593999997E+02  0.45594000000E+02  0.51100000000E-03 0.  1.
         11   -1    0    0    0    0 -0.00000000000E+00 -0.00000000000E+00 -0.45593999997E+02  0.45594000000E+02  0.51100000000E-03 0. -1.
    9900012    2    1    2    0    0  0.16818037337E+02  0.72455675971E+01 -0.39161208595E+01  0.72461531239E+02  0.69999949123E+02 0.  0.
        -12    1    1    2    0    0 -0.16818037337E+02 -0.72455675971E+01  0.39161208595E+01  0.18726468761E+02  0.00000000000E+00 0.  1.
         11    1    3    3    0    0 -0.10083592841E+02 -0.42721892471E+01  0.12664608182E+02  0.16742841641E+02  0.51100000000E-03 0. -1.
        -11    1    3    3    0    0  0.23121892230E+02  0.81162802640E+01  0.11579427691E+02  0.27103118853E+02  0.51100000000E-03 0.  1.
         12    1    3    3    0    0  0.37797379478E+01  0.34014765802E+01 -0.28160156732E+02  0.28615570745E+02  0.00000000000E+00 0. -1.
</event>
<event>
 7    1  0.2604986E-013  0.7246157E+02  0.7816164E-02  0.1226708E+00
        -11   -1    0    0    0    0  0.00000000000E+00  0.00000000000E+00  0.45593999997E+02  0.45594000000E+02  0.51100000000E-03 0. -1.
         11   -1    0    0    0    0 -0.00000000000E+00 -0.00000000000E+00 -0.45593999997E+02  0.45594000000E+02  0.51100000000E-03 0.  1.
    9900012    2    1    2    0    0 -0.16729352550E+02  0.48887776973E+01  0.68489352785E+01  0.72461566849E+02  0.69999995512E+02 0.  0.
        -12    1    1    2    0    0  0.16729352550E+02 -0.48887776973E+01 -0.68489352785E+01  0.18726433151E+02  0.00000000000E+00 0.  1.
         11    1    3    3    0    0 -0.83237659748E+01  0.41044240611E+01 -0.18965761760E+02  0.21114722264E+02  0.51100000000E-03 0. -1.
        -11    1    3    3    0    0  0.73502437016E+01 -0.46374236150E+01 -0.91470467912E+01  0.12617457966E+02  0.51100000000E-03 0.  1.
         12    1    3    3    0    0 -0.15755830277E+02  0.54217772513E+01  0.34961743830E+02  0.38729386619E+02  0.00000000000E+00 0. -1.
</event>
<event>
 7    1  0.2604986E-013  0.7246159E+02  0.7816164E-02  0.1226708E+00
        -11   -1    0    0    0    0  0.00000000000E+00  0.00000000000E+00  0.45593999997E+02  0.45594000000E+02  0.51100000000E-03 0.  1.
         11   -1    0    0    0    0 -0.00000000000E+00 -0.00000000000E+00 -0.45593999997E+02  0.45594000000E+02  0.51100000000E-03 0. -1.
    9900012    2    1    2    0    0  0.26559967598E+01 -0.14822465990E+02  0.11131879208E+02  0.72461586795E+02  0.70000021495E+02 0.  0.
        -12    1    1    2    0    0 -0.26559967598E+01  0.14822465990E+02 -0.11131879208E+02  0.18726413205E+02  0.00000000000E+00 0.  1.
         11    1    3    3    0    0  0.19871425627E+02 -0.33084348281E+01  0.58113024434E+01  0.20966414425E+02  0.51100000000E-03 0. -1.
        -11    1    3    3    0    0  0.24665120376E+01  0.14555780369E+02  0.10907575217E+02  0.18355642761E+02  0.51100000000E-03 0.  1.
         12    1    3    3    0    0 -0.19681940905E+02 -0.26069811531E+02 -0.55869984523E+01  0.33139529610E+02  0.00000000000E+00 0. -1.
</event>
<event>
 7    1  0.2604986E-013  0.7246164E+02  0.7816164E-02  0.1226708E+00
        -11   -1    0    0    0    0  0.00000000000E+00  0.00000000000E+00  0.45593999997E+02  0.45594000000E+02  0.51100000000E-03 0. -1.
         11   -1    0    0    0    0 -0.00000000000E+00 -0.00000000000E+00 -0.45593999997E+02  0.45594000000E+02  0.51100000000E-03 0.  1.
    9900012    2    1    2    0    0  0.14100392158E+02  0.12210483966E+02  0.16612334180E+01  0.72461636921E+02  0.70000086794E+02 0.  0.
        -12    1    1    2    0    0 -0.14100392158E+02 -0.12210483966E+02 -0.16612334180E+01  0.18726363079E+02  0.00000000000E+00 0.  1.
         11    1    3    3    0    0 -0.50274506660E+01  0.16861127885E+01  0.82796764815E+01  0.98321553809E+01  0.51100000000E-03 0. -1.
        -11    1    3    3    0    0  0.36271244204E+02 -0.61457061259E+01  0.28781828035E+01  0.36900634092E+02  0.51100000000E-03 0.  1.
         12    1    3    3    0    0 -0.17143401379E+02  0.16670077303E+02 -0.94966258669E+01  0.25728847448E+02  0.00000000000E+00 0. -1.
</event>
<event>
 7    1  0.2604986E-013  0.7246161E+02  0.7816164E-02  0.1226708E+00
        -11   -1    0    0    0    0  0.00000000000E+00  0.00000000000E+00  0.45593999997E+02  0.45594000000E+02  0.51100000000E-03 0.  1.
         11   -1    0    0    0    0 -0.00000000000E+00 -0.00000000000E+00 -0.45593999997E+02  0.45594000000E+02  0.51100000000E-03 0. -1.
    9900012    2    1    2    0    0 -0.11665233026E+02  0.15079698365E+01 -0.14571405725E+02  0.72461614888E+02  0.70000058091E+02 0.  0.
        -12    1    1    2    0    0  0.11665233026E+02 -0.15079698365E+01  0.14571405725E+02  0.18726385112E+02  0.00000000000E+00 0.  1.
         11    1    3    3    0    0  0.10738117167E+02  0.13998580616E+02  0.59263895106E+01  0.18611542452E+02  0.51100000000E-03 0. -1.
        -11    1    3    3    0    0  0.87978340114E+01  0.47187219537E+01 -0.14669044842E+02  0.17743987630E+02  0.51100000000E-03 0.  1.
         12    1    3    3    0    0 -0.31201184204E+02 -0.17209332733E+02 -0.58287503935E+01  0.36106084806E+02  0.00000000000E+00 0. -1.
</event>
<event>
 7    1  0.2604986E-013  0.7246159E+02  0.7816164E-02  0.1226708E+00
        -11   -1    0    0    0    0  0.00000000000E+00  0.00000000000E+00  0.45593999997E+02  0.45594000000E+02  0.51100000000E-03 0.  1.
         11   -1    0    0    0    0 -0.00000000000E+00 -0.00000000000E+00 -0.45593999997E+02  0.45594000000E+02  0.51100000000E-03 0. -1.
    9900012    2    1    2    0    0 -0.23427531827E+01  0.74294901250E+01 -0.17029171320E+02  0.72461588389E+02  0.70000023571E+02 0.  0.
        -12    1    1    2    0    0  0.23427531827E+01 -0.74294901250E+01  0.17029171320E+02  0.18726411611E+02  0.00000000000E+00 0.  1.
         11    1    3    3    0    0 -0.12221118250E+02 -0.14149222374E+02 -0.56940007706E+01  0.19544254145E+02  0.51100000000E-03 0. -1.
        -11    1    3    3    0    0 -0.43904196469E+01 -0.12622913159E+02 -0.83050859007E+01  0.15734934807E+02  0.51100000000E-03 0.  1.
         12    1    3    3    0    0  0.14268784714E+02  0.34201625658E+02 -0.30300846488E+01  0.37182399436E+02  0.00000000000E+00 0. -1.
</event>
<event>
 7    1  0.2604986E-013  0.7246156E+02  0.7816164E-02  0.1226708E+00
        -11   -1    0    0    0    0  0.00000000000E+00  0.00000000000E+00  0.45593999997E+02  0.45594000000E+02  0.51100000000E-03 0. -1.
         11   -1    0    0    0    0 -0.00000000000E+00 -0.00000000000E+00 -0.45593999997E+02  0.45594000000E+02  0.51100000000E-03 0.  1.
    9900012    2    1    2    0    0  0.10949577300E+02 -0.26186236159E+01  0.14964257036E+02  0.72461563571E+02  0.69999991242E+02 0.  0.
        -12    1    1    2    0    0 -0.10949577300E+02  0.26186236159E+01 -0.14964257036E+02  0.18726436429E+02  0.00000000000E+00 0.  1.
         11    1    3    3    0    0  0.16550971200E+02  0.11853052863E+02 -0.12930901940E+01  0.20398568390E+02  0.51100000000E-03 0. -1.
        -11    1    3    3    0    0  0.15079792337E+02  0.87759795846E+01  0.11808616033E+01  0.17487492358E+02  0.51100000000E-03 0.  1.
        -12    1    3    3    0    0 -0.20681186237E+02 -0.23247656063E+02  0.15076485627E+02  0.34575502823E+02  0.00000000000E+00 0.  1.
</event>
<event>
 7    1  0.2604986E-013  0.7246156E+02  0.7816164E-02  0.1226708E+00
        -11   -1    0    0    0    0  0.00000000000E+00  0.00000000000E+00  0.45593999997E+02  0.45594000000E+02  0.51100000000E-03 0. -1.
         11   -1    0    0    0    0 -0.00000000000E+00 -0.00000000000E+00 -0.45593999997E+02  0.45594000000E+02  0.51100000000E-03 0.  1.
    9900012    2    1    2    0    0  0.43776981284E+01  0.16682698339E+02  0.72940284032E+01  0.72461561067E+02  0.69999987979E+02 0.  0.
        -12    1    1    2    0    0 -0.43776981284E+01 -0.16682698339E+02 -0.72940284032E+01  0.18726438933E+02  0.00000000000E+00 0.  1.
         11    1    3    3    0    0 -0.71783076126E+01  0.35316831677E+01  0.82391545301E+01  0.11484100044E+02  0.51100000000E-03 0. -1.
        -11    1    3    3    0    0  0.48622880839E+01  0.11922988593E+02  0.28225325988E+02  0.31023676923E+02  0.51100000000E-03 0.  1.
        -12    1    3    3    0    0  0.66937176571E+01  0.12280265783E+01 -0.29170452115E+02  0.29953784101E+02  0.00000000000E+00 0.  1.
</event>
<event>
 7    1  0.2604986E-013  0.7246156E+02  0.7816164E-02  0.1226708E+00
        -11   -1    0    0    0    0  0.00000000000E+00  0.00000000000E+00  0.45593999997E+02  0.45594000000E+02  0.51100000000E-03 0.  1.
         11   -1    0    0    0    0 -0.00000000000E+00 -0.00000000000E+00 -0.45593999997E+02  0.45594000000E+02  0.51100000000E-03 0. -1.
    9900012    2    1    2    0    0 -0.53231721675E+01  0.87269214751E+01 -0.15690258228E+02  0.72461560840E+02  0.69999987684E+02 0.  0.
        -12    1    1    2    0    0  0.53231721675E+01 -0.87269214751E+01  0.15690258228E+02  0.18726439160E+02  0.00000000000E+00 0.  1.
         11    1    3    3    0    0  0.12345077463E+02  0.21878550931E+02 -0.22550322818E+02  0.33757798919E+02  0.51100000000E-03 0. -1.
        -11    1    3    3    0    0 -0.18790445072E+01  0.80112682060E+01 -0.51386726810E+01  0.97014011211E+01  0.51100000000E-03 0.  1.
        -12    1    3    3    0    0 -0.15789205123E+02 -0.21162897662E+02  0.11998737272E+02  0.29002360800E+02  0.00000000000E+00 0.  1.
</event>
<event>
 7    1  0.2604986E-013  0.7246158E+02  0.7816164E-02  0.1226708E+00
        -11   -1    0    0    0    0  0.00000000000E+00  0.00000000000E+00  0.45593999997E+02  0.45594000000E+02  0.51100000000E-03 0.  1.
         11   -1    0    0    0    0 -0.00000000000E+00 -0.00000000000E+00 -0.45593999997E+02  0.45594000000E+02  0.51100000000E-03 0. -1.
    9900012    2    1    2    0    0  0.54157671833E+01 -0.17503305229E+02 -0.38707249395E+01  0.72461581772E+02  0.70000014951E+02 0.  0.
        -12    1    1    2    0    0 -0.54157671833E+01  0.17503305229E+02  0.38707249395E+01  0.18726418228E+02  0.00000000000E+00 0.  1.
         11    1    3    3    0    0  0.87410652101E+00  0.47370564551E+01  0.32252820862E+01  0.57970864118E+01  0.51100000000E-03 0. -1.
        -11    1    3    3    0    0  0.12701738388E+02  0.79244312115E+01  0.20220279308E+02  0.25159301733E+02  0.51100000000E-03 0.  1.
         12    1    3    3    0    0 -0.81600777262E+01 -0.30164792895E+02 -0.27316286334E+02  0.41505193627E+02  0.00000000000E+00 0. -1.
</event>
<event>
 7    1  0.2604986E-013  0.7246163E+02  0.7816164E-02  0.1226708E+00
        -11   -1    0    0    0    0  0.00000000000E+00  0.00000000000E+00  0.45593999997E+02  0.45594000000E+02  0.51100000000E-03 0. -1.
         11   -1    0    0    0    0 -0.00000000000E+00 -0.00000000000E+00 -0.45593999997E+02  0.45594000000E+02  0.51100000000E-03 0.  1.
    9900012    2    1    2    0    0 -0.13033180468E+02 -0.93810312344E+01  0.96337721407E+01  0.72461625397E+02  0.70000071781E+02 0.  0.
        -12    1    1    2    0    0  0.13033180468E+02  0.93810312344E+01 -0.96337721407E+01  0.18726374603E+02  0.00000000000E+00 0.  1.
         11    1    3    3    0    0 -0.28964639508E+02  0.75492284421E+01  0.11701057808E+01  0.29955138787E+02  0.51100000000E-03 0. -1.
        -11    1    3    3    0    0  0.75411752786E+00 -0.42992016377E+01 -0.12779053614E+02  0.13503926818E+02  0.51100000000E-03 0.  1.
         12    1    3    3    0    0  0.15177341513E+02 -0.12631058039E+02  0.21242719974E+02  0.29002559792E+02  0.00000000000E+00 0. -1.
</event>
<event>
 7    1  0.2604986E-013  0.7246159E+02  0.7816164E-02  0.1226708E+00
        -11   -1    0    0    0    0  0.00000000000E+00  0.00000000000E+00  0.45593999997E+02  0.45594000000E+02  0.51100000000E-03 0. -1.
         11   -1    0    0    0    0 -0.00000000000E+00 -0.00000000000E+00 -0.45593999997E+02  0.45594000000E+02  0.51100000000E-03 0.  1.
    9900012    2    1    2    0    0  0.11964316393E+01  0.14840646206E+01  0.18629133784E+02  0.72461587583E+02  0.70000022522E+02 0.  0.
        -12    1    1    2    0    0 -0.11964316393E+01 -0.14840646206E+01 -0.18629133784E+02  0.18726412417E+02  0.00000000000E+00 0.  1.
         11    1    3    3    0    0  0.16611698031E+02  0.21077296577E+02  0.31888541544E+01  0.27025353533E+02  0.51100000000E-03 0. -1.
        -11    1    3    3    0    0  0.42790331411E+01  0.70013019537E+01 -0.13693708166E+01  0.83188659302E+01  0.51100000000E-03 0.  1.
         12    1    3    3    0    0 -0.19694299533E+02 -0.26594533911E+02  0.16809650446E+02  0.37117368120E+02  0.00000000000E+00 0. -1.
</event>
<event>
 7    1  0.2604986E-013  0.7246167E+02  0.7816164E-02  0.1226708E+00
        -11   -1    0    0    0    0  0.00000000000E+00  0.00000000000E+00  0.45593999997E+02  0.45594000000E+02  0.51100000000E-03 0.  1.
         11   -1    0    0    0    0 -0.00000000000E+00 -0.00000000000E+00 -0.45593999997E+02  0.45594000000E+02  0.51100000000E-03 0. -1.
    9900012    2    1    2    0    0 -0.18642595775E+02 -0.11319121897E-01 -0.17689074272E+01  0.72461667234E+02  0.70000126282E+02 0.  0.
        -12    1    1    2    0    0  0.18642595775E+02  0.11319121897E-01  0.17689074272E+01  0.18726332766E+02  0.00000000000E+00 0.  1.
         11    1    3    3    0    0 -0.15260437343E+02 -0.18184550076E+02  0.24456983065E+01  0.23865042422E+02  0.51100000000E-03 0. -1.
        -11    1    3    3    0    0 -0.13829650271E+02  0.73191755518E-01  0.14861319380E+02  0.20300822585E+02  0.51100000000E-03 0.  1.
        -12    1    3    3    0    0  0.10447491838E+02  0.18100039199E+02 -0.19075925114E+02  0.28295802227E+02  0.00000000000E+00 0.  1.
</event>
<event>
 7    1  0.2604986E-013  0.7246155E+02  0.7816164E-02  0.1226708E+00
        -11   -1    0    0    0    0  0.00000000000E+00  0.00000000000E+00  0.45593999997E+02  0.45594000000E+02  0.51100000000E-03 0.  1.
         11   -1    0    0    0    0 -0.00000000000E+00 -0.00000000000E+00 -0.45593999997E+02  0.45594000000E+02  0.51100000000E-03 0. -1.
    9900012    2    1    2    0    0 -0.13645726315E+02  0.12816295578E+02  0.46563474005E+00  0.72461545591E+02  0.69999967819E+02 0.  0.
        -12    1    1    2    0    0  0.13645726315E+02 -0.12816295578E+02 -0.46563474005E+00  0.18726454409E+02  0.00000000000E+00 0.  1.
         11    1    3    3    0    0  0.11977043866E+02 -0.52702056629E+01 -0.19528439363E+02  0.23507117895E+02  0.51100000000E-03 0. -1.
        -11    1    3    3    0    0 -0.72519415303E+01  0.16730043867E+01 -0.84931485016E+01  0.11292615789E+02  0.51100000000E-03 0.  1.
        -12    1    3    3    0    0 -0.18370828651E+02  0.16413496855E+02  0.28487222605E+02  0.37661811906E+02  0.00000000000E+00 0.  1.
</event>
<event>
 7    1  0.2604986E-013  0.7246158E+02  0.7816164E-02  0.1226708E+00
        -11   -1    0    0    0    0  0.00000000000E+00  0.00000000000E+00  0.45593999997E+02  0.45594000000E+02  0.51100000000E-03 0.  1.
         11   -1    0    0    0    0 -0.00000000000E+00 -0.00000000000E+00 -0.45593999997E+02  0.45594000000E+02  0.51100000000E-03 0. -1.
    9900012    2    1    2    0    0 -0.43675052771E-01 -0.45982571768E+00 -0.18720721097E+02  0.72461581614E+02  0.70000014746E+02 0.  0.
        -12    1    1    2    0    0  0.43675052771E-01  0.45982571768E+00  0.18720721097E+02  0.18726418386E+02  0.00000000000E+00 0.  1.
         11    1    3    3    0    0 -0.10747244390E+02 -0.11281700377E+02 -0.38744854304E+02  0.41760552686E+02  0.51100000000E-03 0. -1.
        -11    1    3    3    0    0  0.67784714796E+00  0.31026735065E+01 -0.30385711535E+01  0.43953355457E+01  0.51100000000E-03 0.  1.
        -12    1    3    3    0    0  0.10025722190E+02  0.77192011524E+01  0.23062704361E+02  0.26305693382E+02  0.00000000000E+00 0.  1.
</event>
<event>
 7    1  0.2604986E-013  0.7246155E+02  0.7816164E-02  0.1226708E+00
        -11   -1    0    0    0    0  0.00000000000E+00  0.00000000000E+00  0.45593999997E+02  0.45594000000E+02  0.51100000000E-03 0.  1.
         11   -1    0    0    0    0 -0.00000000000E+00 -0.00000000000E+00 -0.45593999997E+02  0.45594000000E+02  0.51100000000E-03 0. -1.
    9900012    2    1    2    0    0 -0.64564973610E+01  0.63446150246E+01 -0.16393270267E+02  0.72461553246E+02  0.69999977792E+02 0.  0.
        -12    1    1    2    0    0  0.64564973610E+01 -0.63446150246E+01  0.16393270267E+02  0.18726446754E+02  0.00000000000E+00 0.  1.
         11    1    3    3    0    0 -0.20557716970E+01 -0.89705724734E+01 -0.38167414916E+00  0.92110283459E+01  0.51100000000E-03 0. -1.
        -11    1    3    3    0    0 -0.26670557557E+01  0.23520256746E+02  0.17030489532E+02  0.29160816823E+02  0.51100000000E-03 0.  1.
         12    1    3    3    0    0 -0.17336699083E+01 -0.82050692482E+01 -0.33042085650E+02  0.34089708077E+02  0.00000000000E+00 0. -1.
</event>
<event>
 7    1  0.2604986E-013  0.7246161E+02  0.7816164E-02  0.1226708E+00
        -11   -1    0    0    0    0  0.00000000000E+00  0.00000000000E+00  0.45593999997E+02  0.45594000000E+02  0.51100000000E-03 0. -1.
         11   -1    0    0    0    0 -0.00000000000E+00 -0.00000000000E+00 -0.45593999997E+02  0.45594000000E+02  0.51100000000E-03 0.  1.
    9900012    2    1    2    0    0  0.17262334172E+01 -0.17644882139E+02  0.60295761706E+01  0.72461613902E+02  0.70000056807E+02 0.  0.
        -12    1    1    2    0    0 -0.17262334172E+01  0.17644882139E+02 -0.60295761706E+01  0.18726386098E+02  0.00000000000E+00 0.  1.
         11    1    3    3    0    0  0.19331212967E+02 -0.30121597657E+02  0.37857974374E+01  0.35990814143E+02  0.51100000000E-03 0. -1.
        -11    1    3    3    0    0  0.37549737671E+01  0.52778108610E+01 -0.91529288731E+01  0.11212993476E+02  0.51100000000E-03 0.  1.
         12    1    3    3    0    0 -0.21359953317E+02  0.71989046570E+01  0.11396707606E+02  0.25257806283E+02  0.00000000000E+00 0. -1.
</event>
<event>
 7    1  0.2604986E-013  0.7246157E+02  0.7816164E-02  0.1226708E+00
        -11   -1    0    0    0    0  0.00000000000E+00  0.00000000000E+00  0.45593999997E+02  0.45594000000E+02  0.51100000000E-03 0.  1.
         11   -1    0    0    0    0 -0.00000000000E+00 -0.00000000000E+00 -0.45593999997E+02  0.45594000000E+02  0.51100000000E-03 0. -1.
    9900012    2    1    2    0    0  0.72320066248E+01  0.14718659465E+02 -0.90409319244E+01  0.72461566641E+02  0.69999995241E+02 0.  0.
        -12    1    1    2    0    0 -0.72320066248E+01 -0.14718659465E+02  0.90409319244E+01  0.18726433359E+02  0.00000000000E+00 0.  1.
         11    1    3    3    0    0  0.12476127465E+00  0.61027463067E+01  0.86288441437E+01  0.10569580379E+02  0.51100000000E-03 0. -1.
        -11    1    3    3    0    0  0.22088888137E+02  0.41457320233E+01  0.14066547917E+02  0.26513653910E+02  0.51100000000E-03 0.  1.
         12    1    3    3    0    0 -0.14981642787E+02  0.44701811352E+01 -0.31736323985E+02  0.35378332352E+02  0.00000000000E+00 0. -1.
</event>
<event>
 7    1  0.2604986E-013  0.7246150E+02  0.7816164E-02  0.1226708E+00
        -11   -1    0    0    0    0  0.00000000000E+00  0.00000000000E+00  0.45593999997E+02  0.45594000000E+02  0.51100000000E-03 0.  1.
         11   -1    0    0    0    0 -0.00000000000E+00 -0.00000000000E+00 -0.45593999997E+02  0.45594000000E+02  0.51100000000E-03 0. -1.
    9900012    2    1    2    0    0  0.41422810753E+01  0.18094486497E+02  0.24723962180E+01  0.72461503340E+02  0.69999912780E+02 0.  0.
        -12    1    1    2    0    0 -0.41422810753E+01 -0.18094486497E+02 -0.24723962180E+01  0.18726496660E+02  0.00000000000E+00 0.  1.
         11    1    3    3    0    0  0.19081275416E+01  0.12447592330E+02 -0.33666085491E+01  0.13035242956E+02  0.51100000000E-03 0. -1.
        -11    1    3    3    0    0  0.71373638715E+01  0.29584138862E+02 -0.78360008482E+01  0.31425565147E+02  0.51100000000E-03 0.  1.
        -12    1    3    3    0    0 -0.49032103378E+01 -0.23937244695E+02  0.13675005615E+02  0.28000695238E+02  0.00000000000E+00 0.  1.
</event>
<event>
 7    1  0.2604986E-013  0.7246156E+02  0.7816164E-02  0.1226708E+00
        -11   -1    0    0    0    0  0.00000000000E+00  0.00000000000E+00  0.45593999997E+02  0.45594000000E+02  0.51100000000E-03 0. -1.
         11   -1    0    0    0    0 -0.00000000000E+00 -0.00000000000E+00 -0.45593999997E+02  0.45594000000E+02  0.51100000000E-03 0.  1.
    9900012    2    1    2    0    0  0.15146309431E+02 -0.11009028117E+02  0.26462781120E+00  0.72461563678E+02  0.69999991381E+02 0.  0.
        -12    1    1    2    0    0 -0.15146309431E+02  0.11009028117E+02 -0.26462781120E+00  0.18726436322E+02  0.00000000000E+00 0.  1.
         11    1    3    3    0    0 -0.17818982736E+02  0.65281868982E+01  0.18315722542E+02  0.26374212072E+02  0.51100000000E-03 0. -1.
        -11    1    3    3    0    0  0.75772826872E+01  0.36901978426E+01 -0.76927192246E+01  0.11410990420E+02  0.51100000000E-03 0.  1.
        -12    1    3    3    0    0  0.25388009479E+02 -0.21227412858E+02 -0.10358375506E+02  0.34676361186E+02  0.00000000000E+00 0.  1.
</event>
<event>
 7    1  0.2604986E-013  0.7246168E+02  0.7816164E-02  0.1226708E+00
        -11   -1    0    0    0    0  0.00000000000E+00  0.00000000000E+00  0.45593999997E+02  0.45594000000E+02  0.51100000000E-03 0.  1.
         11   -1    0    0    0    0 -0.00000000000E+00 -0.00000000000E+00 -0.45593999997E+02  0.45594000000E+02  0.51100000000E-03 0. -1.
    9900012    2    1    2    0    0 -0.99761794374E+01 -0.13739873631E+02  0.78972696592E+01  0.72461677573E+02  0.70000139751E+02 0.  0.
        -12    1    1    2    0    0  0.99761794374E+01  0.13739873631E+02 -0.78972696592E+01  0.18726322427E+02  0.00000000000E+00 0.  1.
         11    1    3    3    0    0 -0.39116851167E+02 -0.61605432463E+01  0.32724555301E+01  0.39733981726E+02  0.51100000000E-03 0. -1.
        -11    1    3    3    0    0 -0.90430810757E+00 -0.10236378317E+01  0.11398025565E+01  0.17789765858E+01  0.51100000000E-03 0.  1.
        -12    1    3    3    0    0  0.30044979837E+02 -0.65556925527E+01  0.34850115726E+01  0.30948719262E+02  0.00000000000E+00 0.  1.
</event>
<event>
 7    1  0.2604986E-013  0.7246159E+02  0.7816164E-02  0.1226708E+00
        -11   -1    0    0    0    0  0.00000000000E+00  0.00000000000E+00  0.45593999997E+02  0.45594000000E+02  0.51100000000E-03 0.  1.
         11   -1    0    0    0    0 -0.00000000000E+00 -0.00000000000E+00 -0.45593999997E+02  0.45594000000E+02  0.51100000000E-03 0. -1.
    9900012    2    1    2    0    0  0.10090335720E+02  0.10587121765E+02 -0.11695149304E+02  0.72461587117E+02  0.70000021915E+02 0.  0.
        -12    1    1    2    0    0 -0.10090335720E+02 -0.10587121765E+02  0.11695149304E+02  0.18726412883E+02  0.00000000000E+00 0.  1.
         11    1    3    3    0    0 -0.90295374068E+01  0.28582461803E+02 -0.18919907840E+02  0.35446474880E+02  0.51100000000E-03 0. -1.
        -11    1    3    3    0    0  0.91422070840E+00  0.42905994178E+01  0.69717347357E+01  0.82371189353E+01  0.51100000000E-03 0.  1.
        -12    1    3    3    0    0  0.18205652419E+02 -0.22285939456E+02  0.25302379994E+00  0.28777993302E+02  0.00000000000E+00 0.  1.
</event>
<event>
 7    1  0.2604986E-013  0.7246144E+02  0.7816164E-02  0.1226708E+00
        -11   -1    0    0    0    0  0.00000000000E+00  0.00000000000E+00  0.45593999997E+02  0.45594000000E+02  0.51100000000E-03 0.  1.
         11   -1    0    0    0    0 -0.00000000000E+00 -0.00000000000E+00 -0.45593999997E+02  0.45594000000E+02  0.51100000000E-03 0. -1.
    9900012    2    1    2    0    0 -0.20685857614E+01  0.18107175668E+02 -0.43052639013E+01  0.72461437182E+02  0.69999826596E+02 0.  0.
        -12    1    1    2    0    0  0.20685857614E+01 -0.18107175668E+02  0.43052639013E+01  0.18726562818E+02  0.00000000000E+00 0.  1.
         11    1    3    3    0    0  0.15075856202E+02 -0.79640941909E+01 -0.21217742359E+02  0.27219493521E+02  0.51100000000E-03 0. -1.
        -11    1    3    3    0    0  0.28916554829E+01  0.80544006771E+00 -0.52963930759E+01  0.60878719607E+01  0.51100000000E-03 0.  1.
        -12    1    3    3    0    0 -0.20036097446E+02  0.25265829791E+02  0.22208871533E+02  0.39154071700E+02  0.00000000000E+00 0.  1.
</event>
<event>
 7    1  0.2604986E-013  0.7246155E+02  0.7816164E-02  0.1226708E+00
        -11   -1    0    0    0    0  0.00000000000E+00  0.00000000000E+00  0.45593999997E+02  0.45594000000E+02  0.51100000000E-03 0.  1.
         11   -1    0    0    0    0 -0.00000000000E+00 -0.00000000000E+00 -0.45593999997E+02  0.45594000000E+02  0.51100000000E-03 0. -1.
    9900012    2    1    2    0    0 -0.45526181170E+01 -0.27075409469E+01 -0.17961701454E+02  0.72461552691E+02  0.69999977068E+02 0.  0.
        -12    1    1    2    0    0  0.45526181170E+01  0.27075409469E+01  0.17961701454E+02  0.18726447309E+02  0.00000000000E+00 0.  1.
         11    1    3    3    0    0 -0.23220073511E+01  0.50441837806E+01 -0.19157160709E+02  0.19945734252E+02  0.51100000000E-03 0. -1.
        -11    1    3    3    0    0 -0.27022709285E+02 -0.23687393252E+01  0.10184646644E+01  0.27145441857E+02  0.51100000000E-03 0.  1.
         12    1    3    3    0    0  0.24792098519E+02 -0.53829854022E+01  0.17699459033E+00  0.25370376582E+02  0.00000000000E+00 0. -1.
</event>
<event>
 7    1  0.2604986E-013  0.7246157E+02  0.7816164E-02  0.1226708E+00
        -11   -1    0    0    0    0  0.00000000000E+00  0.00000000000E+00  0.45593999997E+02  0.45594000000E+02  0.51100000000E-03 0.  1.
         11   -1    0    0    0    0 -0.00000000000E+00 -0.00000000000E+00 -0.45593999997E+02  0.45594000000E+02  0.51100000000E-03 0. -1.
    9900012    2    1    2    0    0  0.65060886804E+01  0.17306046281E+02 -0.29750137535E+01  0.72461571226E+02  0.70000001213E+02 0.  0.
        -12    1    1    2    0    0 -0.65060886804E+01 -0.17306046281E+02  0.29750137535E+01  0.18726428774E+02  0.00000000000E+00 0.  1.
         11    1    3    3    0    0  0.81350770554E+00 -0.53574773055E+01  0.11560396705E+02  0.12767424569E+02  0.51100000000E-03 0. -1.
        -11    1    3    3    0    0  0.29285591368E+02  0.15684229933E+02 -0.68697506235E+01  0.33923950305E+02  0.51100000000E-03 0.  1.
         12    1    3    3    0    0 -0.23593010393E+02  0.69792936534E+01 -0.76656598354E+01  0.25770196352E+02  0.00000000000E+00 0. -1.
</event>
<event>
 7    1  0.2604986E-013  0.7246156E+02  0.7816164E-02  0.1226708E+00
        -11   -1    0    0    0    0  0.00000000000E+00  0.00000000000E+00  0.45593999997E+02  0.45594000000E+02  0.51100000000E-03 0.  1.
         11   -1    0    0    0    0 -0.00000000000E+00 -0.00000000000E+00 -0.45593999997E+02  0.45594000000E+02  0.51100000000E-03 0. -1.
    9900012    2    1    2    0    0 -0.69037072024E+01 -0.13153027884E+02 -0.11402462890E+02  0.72461562122E+02  0.69999989354E+02 0.  0.
        -12    1    1    2    0    0  0.69037072024E+01  0.13153027884E+02  0.11402462890E+02  0.18726437878E+02  0.00000000000E+00 0.  1.
         11    1    3    3    0    0  0.97576315360E+01 -0.44128598693E+01 -0.63470147980E+01  0.12448666697E+02  0.51100000000E-03 0. -1.
        -11    1    3    3    0    0  0.20306943827E+02 -0.98577464590E+01  0.69232517993E+00  0.22583765126E+02  0.51100000000E-03 0.  1.
        -12    1    3    3    0    0 -0.36968282565E+02  0.11175784443E+01 -0.57477732716E+01  0.37429130300E+02  0.00000000000E+00 0.  1.
</event>
<event>
 7    1  0.2604986E-013  0.7246161E+02  0.7816164E-02  0.1226708E+00
        -11   -1    0    0    0    0  0.00000000000E+00  0.00000000000E+00  0.45593999997E+02  0.45594000000E+02  0.51100000000E-03 0.  1.
         11   -1    0    0    0    0 -0.00000000000E+00 -0.00000000000E+00 -0.45593999997E+02  0.45594000000E+02  0.51100000000E-03 0. -1.
    9900012    2    1    2    0    0 -0.16410131616E+02 -0.12948233324E+01 -0.89279645572E+01  0.72461613850E+02  0.70000056739E+02 0.  0.
        -12    1    1    2    0    0  0.16410131616E+02  0.12948233324E+01  0.89279645572E+01  0.18726386150E+02  0.00000000000E+00 0.  1.
         11    1    3    3    0    0 -0.10704427411E+02  0.16260130285E+02  0.21568180014E+01  0.19586435797E+02  0.51100000000E-03 0. -1.
        -11    1    3    3    0    0 -0.15559051325E+02  0.10541762454E+02  0.44184807462E+01  0.19306366984E+02  0.51100000000E-03 0.  1.
        -12    1    3    3    0    0  0.98533471199E+01 -0.28096716072E+02 -0.15503263305E+02  0.33568811069E+02  0.00000000000E+00 0.  1.
</event>
<event>
 7    1  0.2604986E-013  0.7246150E+02  0.7816164E-02  0.1226708E+00
        -11   -1    0    0    0    0  0.00000000000E+00  0.00000000000E+00  0.45593999997E+02  0.45594000000E+02  0.51100000000E-03 0.  1.
         11   -1    0    0    0    0 -0.00000000000E+00 -0.00000000000E+00 -0.45593999997E+02  0.45594000000E+02  0.51100000000E-03 0. -1.
    9900012    2    1    2    0    0  0.16476459369E+01 -0.18379019842E+02 -0.31904022305E+01  0.72461500757E+02  0.69999909415E+02 0.  0.
        -12    1    1    2    0    0 -0.16476459369E+01  0.18379019842E+02  0.31904022305E+01  0.18726499243E+02  0.00000000000E+00 0.  1.
         11    1    3    3    0    0  0.35738044253E+01  0.29153241102E+01 -0.35828662049E+01  0.58402160269E+01  0.51100000000E-03 0. -1.
        -11    1    3    3    0    0 -0.10981138858E+02  0.14116556090E+02  0.18585821297E+02  0.25793319290E+02  0.51100000000E-03 0.  1.
        -12    1    3    3    0    0  0.90549803700E+01 -0.35410900043E+02 -0.18193357322E+02  0.40827965440E+02  0.00000000000E+00 0.  1.
</event>
<event>
 7    1  0.2604986E-013  0.7246156E+02  0.7816164E-02  0.1226708E+00
        -11   -1    0    0    0    0  0.00000000000E+00  0.00000000000E+00  0.45593999997E+02  0.45594000000E+02  0.51100000000E-03 0. -1.
         11   -1    0    0    0    0 -0.00000000000E+00 -0.00000000000E+00 -0.45593999997E+02  0.45594000000E+02  0.51100000000E-03 0.  1.
    9900012    2    1    2    0    0  0.12139887751E+02  0.70809949844E+01 -0.12375865348E+02  0.72461563935E+02  0.69999991716E+02 0.  0.
        -12    1    1    2    0    0 -0.12139887751E+02 -0.70809949844E+01  0.12375865348E+02  0.18726436065E+02  0.00000000000E+00 0.  1.
         11    1    3    3    0    0  0.87455927136E+01  0.18120804449E+02  0.11407057664E+02  0.23129416564E+02  0.51100000000E-03 0. -1.
        -11    1    3    3    0    0  0.15586734004E+02  0.98617547602E+01 -0.63434194869E+01  0.19504857213E+02  0.51100000000E-03 0.  1.
         12    1    3    3    0    0 -0.12192438966E+02 -0.20901564224E+02 -0.17439503525E+02  0.29827290158E+02  0.00000000000E+00 0. -1.
</event>
<event>
 7    1  0.2604986E-013  0.7246157E+02  0.7816164E-02  0.1226708E+00
        -11   -1    0    0    0    0  0.00000000000E+00  0.00000000000E+00  0.45593999997E+02  0.45594000000E+02  0.51100000000E-03 0. -1.
         11   -1    0    0    0    0 -0.00000000000E+00 -0.00000000000E+00 -0.45593999997E+02  0.45594000000E+02  0.51100000000E-03 0.  1.
    9900012    2    1    2    0    0 -0.14799875251E+02  0.15423251075E+01 -0.11369431768E+02  0.72461573408E+02  0.70000004056E+02 0.  0.
        -12    1    1    2    0    0  0.14799875251E+02 -0.15423251075E+01  0.11369431768E+02  0.18726426592E+02  0.00000000000E+00 0.  1.
         11    1    3    3    0    0 -0.12855726913E+02  0.10192817830E+02  0.23793469050E+02  0.28901425907E+02  0.51100000000E-03 0. -1.
        -11    1    3    3    0    0 -0.11645304887E+02 -0.42060132449E+01 -0.90063807918E+01  0.15310733770E+02  0.51100000000E-03 0.  1.
        -12    1    3    3    0    0  0.97011565495E+01 -0.44444794778E+01 -0.26156520027E+02  0.28249413731E+02  0.00000000000E+00 0.  1.
</event>
<event>
 7    1  0.2604986E-013  0.7246156E+02  0.7816164E-02  0.1226708E+00
        -11   -1    0    0    0    0  0.00000000000E+00  0.00000000000E+00  0.45593999997E+02  0.45594000000E+02  0.51100000000E-03 0.  1.
         11   -1    0    0    0    0 -0.00000000000E+00 -0.00000000000E+00 -0.45593999997E+02  0.45594000000E+02  0.51100000000E-03 0. -1.
    9900012    2    1    2    0    0 -0.83524427742E+00  0.18706401270E+02  0.22902726349E+00  0.72461560537E+02  0.69999987289E+02 0.  0.
        -12    1    1    2    0    0  0.83524427742E+00 -0.18706401270E+02 -0.22902726349E+00  0.18726439463E+02  0.00000000000E+00 0.  1.
         11    1    3    3    0    0 -0.10111861326E+02  0.96145653356E+00 -0.68300594055E+01  0.12240255303E+02  0.51100000000E-03 0. -1.
        -11    1    3    3    0    0  0.12339804248E+01 -0.17637967042E+02  0.14872233675E+02  0.23104197104E+02  0.51100000000E-03 0.  1.
        -12    1    3    3    0    0  0.80426366240E+01  0.35382911779E+02 -0.78131470058E+01  0.37117108130E+02  0.00000000000E+00 0.  1.
</event>
<event>
 7    1  0.2604986E-013  0.7246160E+02  0.7816164E-02  0.1226708E+00
        -11   -1    0    0    0    0  0.00000000000E+00  0.00000000000E+00  0.45593999997E+02  0.45594000000E+02  0.51100000000E-03 0.  1.
         11   -1    0    0    0    0 -0.00000000000E+00 -0.00000000000E+00 -0.45593999997E+02  0.45594000000E+02  0.51100000000E-03 0. -1.
    9900012    2    1    2    0    0  0.10224801397E+02 -0.11734557552E+02  0.10413050615E+02  0.72461600782E+02  0.70000039716E+02 0.  0.
        -12    1    1    2    0    0 -0.10224801397E+02  0.11734557552E+02 -0.10413050615E+02  0.18726399218E+02  0.00000000000E+00 0.  1.
         11    1    3    3    0    0  0.13409526508E+02 -0.24105176850E+02  0.33812406624E+02  0.43636610708E+02  0.51100000000E-03 0.  1.
        -11    1    3    3    0    0 -0.62333804208E+01  0.68759759206E+01 -0.82248719624E+01  0.12400911071E+02  0.51100000000E-03 0. -1.
        -12    1    3    3    0    0  0.30486553099E+01  0.54946433769E+01 -0.15174484046E+02  0.16424079003E+02  0.00000000000E+00 0.  1.
</event>
<event>
 7    1  0.2604986E-013  0.7246166E+02  0.7816164E-02  0.1226708E+00
        -11   -1    0    0    0    0  0.00000000000E+00  0.00000000000E+00  0.45593999997E+02  0.45594000000E+02  0.51100000000E-03 0.  1.
         11   -1    0    0    0    0 -0.00000000000E+00 -0.00000000000E+00 -0.45593999997E+02  0.45594000000E+02  0.51100000000E-03 0. -1.
    9900012    2    1    2    0    0 -0.74814462766E+01 -0.57965922990E+01 -0.16158685707E+02  0.72461664415E+02  0.70000122609E+02 0.  0.
        -12    1    1    2    0    0  0.74814462766E+01  0.57965922990E+01  0.16158685707E+02  0.18726335585E+02  0.00000000000E+00 0.  1.
         11    1    3    3    0    0  0.10507055811E+02  0.13224997418E+01 -0.19483390677E+02  0.22175430997E+02  0.51100000000E-03 0. -1.
        -11    1    3    3    0    0  0.48957847117E+01  0.86514895006E+01  0.16706489463E+02  0.19440261546E+02  0.51100000000E-03 0.  1.
        -12    1    3    3    0    0 -0.22884286800E+02 -0.15770581541E+02 -0.13381784494E+02  0.30845971872E+02  0.00000000000E+00 0.  1.
</event>
<event>
 7    1  0.2604986E-013  0.7246160E+02  0.7816164E-02  0.1226708E+00
        -11   -1    0    0    0    0  0.00000000000E+00  0.00000000000E+00  0.45593999997E+02  0.45594000000E+02  0.51100000000E-03 0.  1.
         11   -1    0    0    0    0 -0.00000000000E+00 -0.00000000000E+00 -0.45593999997E+02  0.45594000000E+02  0.51100000000E-03 0. -1.
    9900012    2    1    2    0    0  0.15214666303E+02 -0.10917461391E+02  0.29904534696E-01  0.72461603438E+02  0.70000043175E+02 0.  0.
        -12    1    1    2    0    0 -0.15214666303E+02  0.10917461391E+02 -0.29904534696E-01  0.18726396562E+02  0.00000000000E+00 0.  1.
         11    1    3    3    0    0  0.77474439339E+01 -0.23058161548E+01  0.97054917891E+01  0.12630765882E+02  0.51100000000E-03 0. -1.
        -11    1    3    3    0    0  0.20512984213E+02 -0.10352341720E+02  0.17997944812E+02  0.29186975145E+02  0.51100000000E-03 0.  1.
         12    1    3    3    0    0 -0.13045761844E+02  0.17406964843E+01 -0.27673532067E+02  0.30643862410E+02  0.00000000000E+00 0. -1.
</event>
<event>
 7    1  0.2604986E-013  0.7246148E+02  0.7816164E-02  0.1226708E+00
        -11   -1    0    0    0    0  0.00000000000E+00  0.00000000000E+00  0.45593999997E+02  0.45594000000E+02  0.51100000000E-03 0. -1.
         11   -1    0    0    0    0 -0.00000000000E+00 -0.00000000000E+00 -0.45593999997E+02  0.45594000000E+02  0.51100000000E-03 0.  1.
    9900012    2    1    2    0    0  0.13454165282E+02 -0.86621737798E+01  0.97280339741E+01  0.72461482357E+02  0.69999885446E+02 0.  0.
        -12    1    1    2    0    0 -0.13454165282E+02  0.86621737798E+01 -0.97280339741E+01  0.18726517643E+02  0.00000000000E+00 0.  1.
         11    1    3    3    0    0 -0.27561446013E+01  0.22470606389E+02  0.19582606321E+02  0.29933308456E+02  0.51100000000E-03 0. -1.
        -11    1    3    3    0    0 -0.46431477595E+01 -0.75060191203E+01  0.16529510377E+01  0.89794984016E+01  0.51100000000E-03 0.  1.
        -12    1    3    3    0    0  0.20853457643E+02 -0.23626761049E+02 -0.11507523385E+02  0.33548675499E+02  0.00000000000E+00 0.  1.
</event>
<event>
 7    1  0.2604986E-013  0.7246157E+02  0.7816164E-02  0.1226708E+00
        -11   -1    0    0    0    0  0.00000000000E+00  0.00000000000E+00  0.45593999997E+02  0.45594000000E+02  0.51100000000E-03 0.  1.
         11   -1    0    0    0    0 -0.00000000000E+00 -0.00000000000E+00 -0.45593999997E+02  0.45594000000E+02  0.51100000000E-03 0. -1.
    9900012    2    1    2    0    0 -0.11083199961E+02  0.14890646740E+02 -0.24719581969E+01  0.72461567904E+02  0.69999996886E+02 0.  0.
        -12    1    1    2    0    0  0.11083199961E+02 -0.14890646740E+02  0.24719581969E+01  0.18726432096E+02  0.00000000000E+00 0.  1.
         11    1    3    3    0    0 -0.17403862973E+02  0.25736706685E+02 -0.21473616442E+02  0.37767561753E+02  0.51100000000E-03 0. -1.
        -11    1    3    3    0    0  0.10408694466E+02  0.42772262845E+01  0.17463145575E+01  0.11387940989E+02  0.51100000000E-03 0.  1.
        -12    1    3    3    0    0 -0.40880314542E+01 -0.15123286229E+02  0.17255343688E+02  0.23306065162E+02  0.00000000000E+00 0.  1.
</event>
<event>
 7    1  0.2604986E-013  0.7246158E+02  0.7816164E-02  0.1226708E+00
        -11   -1    0    0    0    0  0.00000000000E+00  0.00000000000E+00  0.45593999997E+02  0.45594000000E+02  0.51100000000E-03 0. -1.
         11   -1    0    0    0    0 -0.00000000000E+00 -0.00000000000E+00 -0.45593999997E+02  0.45594000000E+02  0.51100000000E-03 0.  1.
    9900012    2    1    2    0    0 -0.14825093417E+02 -0.96429987589E+01  0.61569416738E+01  0.72461581478E+02  0.70000014569E+02 0.  0.
        -12    1    1    2    0    0  0.14825093417E+02  0.96429987589E+01 -0.61569416738E+01  0.18726418522E+02  0.00000000000E+00 0.  1.
         11    1    3    3    0    0  0.11525750888E+02 -0.68982757786E+01 -0.68716034607E+00  0.13449956575E+02  0.51100000000E-03 0. -1.
        -11    1    3    3    0    0 -0.11250538198E+02  0.20223329279E+02 -0.11622961986E+02  0.25896928437E+02  0.51100000000E-03 0.  1.
         12    1    3    3    0    0 -0.15100306107E+02 -0.22968052260E+02  0.18467064005E+02  0.33114696467E+02  0.00000000000E+00 0. -1.
</event>
<event>
 7    1  0.2604986E-013  0.7246160E+02  0.7816164E-02  0.1226708E+00
        -11   -1    0    0    0    0  0.00000000000E+00  0.00000000000E+00  0.45593999997E+02  0.45594000000E+02  0.51100000000E-03 0. -1.
         11   -1    0    0    0    0 -0.00000000000E+00 -0.00000000000E+00 -0.45593999997E+02  0.45594000000E+02  0.51100000000E-03 0.  1.
    9900012    2    1    2    0    0  0.25430403740E+01 -0.11076464904E+02  0.14883650512E+02  0.72461596670E+02  0.70000034359E+02 0.  0.
        -12    1    1    2    0    0 -0.25430403740E+01  0.11076464904E+02 -0.14883650512E+02  0.18726403330E+02  0.00000000000E+00 0.  1.
         11    1    3    3    0    0 -0.16654809256E+02 -0.28803683479E+02 -0.16639091106E+01  0.33313712598E+02  0.51100000000E-03 0. -1.
        -11    1    3    3    0    0 -0.47058080632E+01  0.18674203534E+01  0.75368865518E+01  0.90794574430E+01  0.51100000000E-03 0.  1.
        -12    1    3    3    0    0  0.23903657693E+02  0.15859798221E+02  0.90106730706E+01  0.30068426628E+02  0.00000000000E+00 0.  1.
</event>
<event>
 7    1  0.2604986E-013  0.7246158E+02  0.7816164E-02  0.1226708E+00
        -11   -1    0    0    0    0  0.00000000000E+00  0.00000000000E+00  0.45593999997E+02  0.45594000000E+02  0.51100000000E-03 0. -1.
         11   -1    0    0    0    0 -0.00000000000E+00 -0.00000000000E+00 -0.45593999997E+02  0.45594000000E+02  0.51100000000E-03 0.  1.
    9900012    2    1    2    0    0 -0.27802954161E+00  0.14917092447E+02 -0.11317328581E+02  0.72461578193E+02  0.70000010289E+02 0.  0.
        -12    1    1    2    0    0  0.27802954161E+00 -0.14917092447E+02  0.11317328581E+02  0.18726421807E+02  0.00000000000E+00 0.  1.
         11    1    3    3    0    0 -0.16477994570E+02 -0.10634164929E+02  0.10488844280E+02  0.22240180380E+02  0.51100000000E-03 0. -1.
        -11    1    3    3    0    0 -0.41592951847E+01 -0.56677106891E+01  0.19502883639E-01  0.70301537332E+01  0.51100000000E-03 0.  1.
        -12    1    3    3    0    0  0.20359260213E+02  0.31218968065E+02 -0.21825675744E+02  0.43191244079E+02  0.00000000000E+00 0.  1.
</event>
<event>
 7    1  0.2604986E-013  0.7246156E+02  0.7816164E-02  0.1226708E+00
        -11   -1    0    0    0    0  0.00000000000E+00  0.00000000000E+00  0.45593999997E+02  0.45594000000E+02  0.51100000000E-03 0.  1.
         11   -1    0    0    0    0 -0.00000000000E+00 -0.00000000000E+00 -0.45593999997E+02  0.45594000000E+02  0.51100000000E-03 0. -1.
    9900012    2    1    2    0    0  0.16880189271E+02 -0.81019005950E+01  0.31300932663E+00  0.72461559924E+02  0.69999986491E+02 0.  0.
        -12    1    1    2    0    0 -0.16880189271E+02  0.81019005950E+01 -0.31300932663E+00  0.18726440076E+02  0.00000000000E+00 0.  1.
         11    1    3    3    0    0  0.29346167422E+02 -0.54249683272E+01 -0.19225879432E+02  0.35500172730E+02  0.51100000000E-03 0. -1.
        -11    1    3    3    0    0  0.54282448141E+01 -0.42822536079E+00 -0.43919892521E+01  0.69956263889E+01  0.51100000000E-03 0.  1.
        -12    1    3    3    0    0 -0.17894222965E+02 -0.22487069070E+01  0.23930878010E+02  0.29965760805E+02  0.00000000000E+00 0.  1.
</event>
<event>
 7    1  0.2604986E-013  0.7246154E+02  0.7816164E-02  0.1226708E+00
        -11   -1    0    0    0    0  0.00000000000E+00  0.00000000000E+00  0.45593999997E+02  0.45594000000E+02  0.51100000000E-03 0.  1.
         11   -1    0    0    0    0 -0.00000000000E+00 -0.00000000000E+00 -0.45593999997E+02  0.45594000000E+02  0.51100000000E-03 0. -1.
    9900012    2    1    2    0    0 -0.36699275462E+01  0.50555467753E+01 -0.17653708939E+02  0.72461538490E+02  0.69999958569E+02 0.  0.
        -12    1    1    2    0    0  0.36699275462E+01 -0.50555467753E+01  0.17653708939E+02  0.18726461510E+02  0.00000000000E+00 0.  1.
         11    1    3    3    0    0 -0.44194731816E+01  0.30450955301E+02 -0.17836278170E+02  0.35565787509E+02  0.51100000000E-03 0. -1.
        -11    1    3    3    0    0  0.56994112266E+01  0.14919202329E+01 -0.64786059648E+01  0.87567944945E+01  0.51100000000E-03 0.  1.
        -12    1    3    3    0    0 -0.49498655912E+01 -0.26887328759E+02  0.66611751958E+01  0.28138956486E+02  0.00000000000E+00 0.  1.
</event>
<event>
 7    1  0.2604986E-013  0.7246151E+02  0.7816164E-02  0.1226708E+00
        -11   -1    0    0    0    0  0.00000000000E+00  0.00000000000E+00  0.45593999997E+02  0.45594000000E+02  0.51100000000E-03 0.  1.
         11   -1    0    0    0    0 -0.00000000000E+00 -0.00000000000E+00 -0.45593999997E+02  0.45594000000E+02  0.51100000000E-03 0. -1.
    9900012    2    1    2    0    0 -0.12928048026E+02  0.13357648496E+02 -0.22627763458E+01  0.72461511917E+02  0.69999923953E+02 0.  0.
        -12    1    1    2    0    0  0.12928048026E+02 -0.13357648496E+02  0.22627763458E+01  0.18726488083E+02  0.00000000000E+00 0.  1.
         11    1    3    3    0    0 -0.18961482876E+02  0.65920909919E+01 -0.31034241023E+02  0.36961028295E+02  0.51100000000E-03 0.  1.
        -11    1    3    3    0    0  0.12762270238E+01  0.79189854971E+01  0.19751956081E+01  0.82607799069E+01  0.51100000000E-03 0. -1.
        -12    1    3    3    0    0  0.47572078261E+01 -0.11534279926E+01  0.26796269069E+02  0.27239703715E+02  0.00000000000E+00 0.  1.
</event>
<event>
 7    1  0.2604986E-013  0.7246158E+02  0.7816164E-02  0.1226708E+00
        -11   -1    0    0    0    0  0.00000000000E+00  0.00000000000E+00  0.45593999997E+02  0.45594000000E+02  0.51100000000E-03 0.  1.
         11   -1    0    0    0    0 -0.00000000000E+00 -0.00000000000E+00 -0.45593999997E+02  0.45594000000E+02  0.51100000000E-03 0. -1.
    9900012    2    1    2    0    0 -0.19426605771E+01  0.16364562603E+02 -0.88941582587E+01  0.72461577746E+02  0.70000009708E+02 0.  0.
        -12    1    1    2    0    0  0.19426605771E+01 -0.16364562603E+02  0.88941582587E+01  0.18726422254E+02  0.00000000000E+00 0.  1.
         11    1    3    3    0    0  0.62259566681E+01  0.69572725201E+01 -0.32677144114E+02  0.33984730763E+02  0.51100000000E-03 0. -1.
        -11    1    3    3    0    0 -0.92484374260E+01  0.83648487482E+00 -0.34501744639E+01  0.99064123607E+01  0.51100000000E-03 0.  1.
        -12    1    3    3    0    0  0.10798201808E+01  0.85708052077E+01  0.27233160319E+02  0.28570434622E+02  0.00000000000E+00 0.  1.
</event>
<event>
 7    1  0.2604986E-013  0.7246156E+02  0.7816164E-02  0.1226708E+00
        -11   -1    0    0    0    0  0.00000000000E+00  0.00000000000E+00  0.45593999997E+02  0.45594000000E+02  0.51100000000E-03 0.  1.
         11   -1    0    0    0    0 -0.00000000000E+00 -0.00000000000E+00 -0.45593999997E+02  0.45594000000E+02  0.51100000000E-03 0. -1.
    9900012    2    1    2    0    0 -0.13546758093E+02  0.11333356082E+02 -0.62225409538E+01  0.72461557977E+02  0.69999983955E+02 0.  0.
        -12    1    1    2    0    0  0.13546758093E+02 -0.11333356082E+02  0.62225409538E+01  0.18726442023E+02  0.00000000000E+00 0.  1.
         11    1    3    3    0    0 -0.15863147577E+02 -0.12105161666E+02  0.53610413252E+01  0.20661925234E+02  0.51100000000E-03 0. -1.
        -11    1    3    3    0    0 -0.15367711540E+01 -0.12616901261E+02  0.24023145329E+01  0.12935183740E+02  0.51100000000E-03 0.  1.
        -12    1    3    3    0    0  0.38531606379E+01  0.36055419008E+02 -0.13985896812E+02  0.38864449004E+02  0.00000000000E+00 0.  1.
</event>
<event>
 7    1  0.2604986E-013  0.7246157E+02  0.7816164E-02  0.1226708E+00
        -11   -1    0    0    0    0  0.00000000000E+00  0.00000000000E+00  0.45593999997E+02  0.45594000000E+02  0.51100000000E-03 0.  1.
         11   -1    0    0    0    0 -0.00000000000E+00 -0.00000000000E+00 -0.45593999997E+02  0.45594000000E+02  0.51100000000E-03 0. -1.
    9900012    2    1    2    0    0  0.13408389776E+02  0.46519328801E+01  0.12216947305E+02  0.72461569551E+02  0.69999999031E+02 0.  0.
        -12    1    1    2    0    0 -0.13408389776E+02 -0.46519328801E+01 -0.12216947305E+02  0.18726430449E+02  0.00000000000E+00 0.  1.
         11    1    3    3    0    0 -0.10457044127E+01  0.23303042466E+02  0.74997328247E+01  0.24502474949E+02  0.51100000000E-03 0. -1.
        -11    1    3    3    0    0  0.21364061236E+02  0.57493209523E+01  0.46077585120E+01  0.22598877023E+02  0.51100000000E-03 0.  1.
         12    1    3    3    0    0 -0.69099670473E+01 -0.24400430539E+02  0.10945596846E+00  0.25360217579E+02  0.00000000000E+00 0. -1.
</event>
<event>
 7    1  0.2604986E-013  0.7246138E+02  0.7816164E-02  0.1226709E+00
        -11   -1    0    0    0    0  0.00000000000E+00  0.00000000000E+00  0.45593999997E+02  0.45594000000E+02  0.51100000000E-03 0.  1.
         11   -1    0    0    0    0 -0.00000000000E+00 -0.00000000000E+00 -0.45593999997E+02  0.45594000000E+02  0.51100000000E-03 0. -1.
    9900012    2    1    2    0    0  0.10130368187E+02  0.15696667338E+02  0.12948912369E+01  0.72461375412E+02  0.69999746130E+02 0.  0.
        -12    1    1    2    0    0 -0.10130368187E+02 -0.15696667338E+02 -0.12948912369E+01  0.18726624588E+02  0.00000000000E+00 0.  1.
         11    1    3    3    0    0  0.53358660039E+01  0.29041474452E+02 -0.17548897735E+02  0.34348835735E+02  0.51100000000E-03 0. -1.
        -11    1    3    3    0    0  0.38335531328E+01  0.42765373708E+01 -0.55618428190E+01  0.79949357290E+01  0.51100000000E-03 0.  1.
        -12    1    3    3    0    0  0.96094904976E+00 -0.17621344485E+02  0.24405631790E+02  0.30117603949E+02  0.00000000000E+00 0.  1.
</event>
<event>
 7    1  0.2604986E-013  0.7246152E+02  0.7816164E-02  0.1226708E+00
        -11   -1    0    0    0    0  0.00000000000E+00  0.00000000000E+00  0.45593999997E+02  0.45594000000E+02  0.51100000000E-03 0.  1.
         11   -1    0    0    0    0 -0.00000000000E+00 -0.00000000000E+00 -0.45593999997E+02  0.45594000000E+02  0.51100000000E-03 0. -1.
    9900012    2    1    2    0    0 -0.14638089498E+02  0.94653975109E+01 -0.68420428360E+01  0.72461522371E+02  0.69999937572E+02 0.  0.
        -12    1    1    2    0    0  0.14638089498E+02 -0.94653975109E+01  0.68420428360E+01  0.18726477629E+02  0.00000000000E+00 0.  1.
         11    1    3    3    0    0 -0.57846947083E+01  0.68579509969E+00  0.76842568086E+01  0.96426557933E+01  0.51100000000E-03 0. -1.
        -11    1    3    3    0    0  0.97692452644E+00 -0.19955694367E+02  0.11298660186E+02  0.22953079128E+02  0.51100000000E-03 0.  1.
         12    1    3    3    0    0 -0.98303193166E+01  0.28735296778E+02 -0.25824959831E+02  0.39865787450E+02  0.00000000000E+00 0. -1.
</event>
<event>
 7    1  0.2604986E-013  0.7246160E+02  0.7816164E-02  0.1226708E+00
        -11   -1    0    0    0    0  0.00000000000E+00  0.00000000000E+00  0.45593999997E+02  0.45594000000E+02  0.51100000000E-03 0. -1.
         11   -1    0    0    0    0 -0.00000000000E+00 -0.00000000000E+00 -0.45593999997E+02  0.45594000000E+02  0.51100000000E-03 0.  1.
    9900012    2    1    2    0    0  0.93809681848E+01 -0.13951378182E+02  0.82483037954E+01  0.72461600646E+02  0.70000039539E+02 0.  0.
        -12    1    1    2    0    0 -0.93809681848E+01  0.13951378182E+02 -0.82483037954E+01  0.18726399354E+02  0.00000000000E+00 0.  1.
         11    1    3    3    0    0  0.18259917414E+02 -0.28561368544E+02  0.69229266673E-01  0.33899574482E+02  0.51100000000E-03 0.  1.
        -11    1    3    3    0    0  0.44437428124E+01 -0.87928231256E+01 -0.14601940010E+01  0.99595559882E+01  0.51100000000E-03 0. -1.
         12    1    3    3    0    0 -0.13322692041E+02  0.23402813488E+02  0.96392685298E+01  0.28602470176E+02  0.00000000000E+00 0. -1.
</event>
<event>
 7    1  0.2604986E-013  0.7246156E+02  0.7816164E-02  0.1226708E+00
        -11   -1    0    0    0    0  0.00000000000E+00  0.00000000000E+00  0.45593999997E+02  0.45594000000E+02  0.51100000000E-03 0. -1.
         11   -1    0    0    0    0 -0.00000000000E+00 -0.00000000000E+00 -0.45593999997E+02  0.45594000000E+02  0.51100000000E-03 0.  1.
    9900012    2    1    2    0    0  0.15167550530E+02 -0.90883540226E+01  0.61665760752E+01  0.72461563382E+02  0.69999990995E+02 0.  0.
        -12    1    1    2    0    0 -0.15167550530E+02  0.90883540226E+01 -0.61665760752E+01  0.18726436618E+02  0.00000000000E+00 0.  1.
         11    1    3    3    0    0 -0.44098058085E-02  0.10431999677E+02  0.51064628578E+01  0.11614757849E+02  0.51100000000E-03 0. -1.
        -11    1    3    3    0    0 -0.17130863384E+02 -0.15881528779E+02 -0.11450405803E+02  0.26015403706E+02  0.51100000000E-03 0.  1.
         12    1    3    3    0    0  0.32302823720E+02 -0.36388249203E+01  0.12510519021E+02  0.34831401827E+02  0.00000000000E+00 0. -1.
</event>
<event>
 7    1  0.2604986E-013  0.7246158E+02  0.7816164E-02  0.1226708E+00
        -11   -1    0    0    0    0  0.00000000000E+00  0.00000000000E+00  0.45593999997E+02  0.45594000000E+02  0.51100000000E-03 0.  1.
         11   -1    0    0    0    0 -0.00000000000E+00 -0.00000000000E+00 -0.45593999997E+02  0.45594000000E+02  0.51100000000E-03 0. -1.
    9900012    2    1    2    0    0 -0.16416401267E+02  0.36254561170E+01 -0.82484296911E+01  0.72461581363E+02  0.70000014418E+02 0.  0.
        -12    1    1    2    0    0  0.16416401267E+02 -0.36254561170E+01  0.82484296911E+01  0.18726418637E+02  0.00000000000E+00 0.  1.
         11    1    3    3    0    0 -0.23762817687E+02 -0.12670415869E+02 -0.67918724325E+01  0.27773017015E+02  0.51100000000E-03 0. -1.
        -11    1    3    3    0    0 -0.94304723428E+01 -0.97949035062E+01 -0.14055754254E+01  0.13669293538E+02  0.51100000000E-03 0.  1.
        -12    1    3    3    0    0  0.16776888763E+02  0.26090775493E+02 -0.50981833176E-01  0.31019270809E+02  0.00000000000E+00 0.  1.
</event>
<event>
 7    1  0.2604986E-013  0.7246192E+02  0.7816164E-02  0.1226707E+00
        -11   -1    0    0    0    0  0.00000000000E+00  0.00000000000E+00  0.45593999997E+02  0.45594000000E+02  0.51100000000E-03 0. -1.
         11   -1    0    0    0    0 -0.00000000000E+00 -0.00000000000E+00 -0.45593999997E+02  0.45594000000E+02  0.51100000000E-03 0.  1.
    9900012    2    1    2    0    0 -0.85363296531E+01 -0.34251759368E+01  0.16311512112E+02  0.72461917080E+02  0.70000451752E+02 0.  0.
        -12    1    1    2    0    0  0.85363296531E+01  0.34251759368E+01 -0.16311512112E+02  0.18726082920E+02  0.00000000000E+00 0.  1.
         11    1    3    3    0    0 -0.42633907994E+01  0.35086053947E+01  0.49912043149E+00  0.55439998549E+01  0.51100000000E-03 0. -1.
        -11    1    3    3    0    0 -0.25199367894E+02 -0.12145804642E+02 -0.13066782693E+02  0.30875063123E+02  0.51100000000E-03 0.  1.
         12    1    3    3    0    0  0.20926429040E+02  0.52120233101E+01  0.28879174373E+02  0.36042854102E+02  0.00000000000E+00 0. -1.
</event>
<event>
 7    1  0.2604986E-013  0.7246174E+02  0.7816164E-02  0.1226708E+00
        -11   -1    0    0    0    0  0.00000000000E+00  0.00000000000E+00  0.45593999997E+02  0.45594000000E+02  0.51100000000E-03 0. -1.
         11   -1    0    0    0    0 -0.00000000000E+00 -0.00000000000E+00 -0.45593999997E+02  0.45594000000E+02  0.51100000000E-03 0.  1.
    9900012    2    1    2    0    0  0.12195814261E+02  0.90361577326E+01  0.10967355199E+02  0.72461737369E+02  0.70000217645E+02 0.  0.
        -12    1    1    2    0    0 -0.12195814261E+02 -0.90361577326E+01 -0.10967355199E+02  0.18726262631E+02  0.00000000000E+00 0.  1.
         11    1    3    3    0    0  0.31087084831E+01 -0.45209537908E+00  0.23626271143E+02  0.23834201204E+02  0.51100000000E-03 0. -1.
        -11    1    3    3    0    0  0.35806299472E+00 -0.17735620163E+02 -0.10465412612E+01  0.17770078237E+02  0.51100000000E-03 0.  1.
        -12    1    3    3    0    0  0.87290427833E+01  0.27223873275E+02 -0.11612374682E+02  0.30857457928E+02  0.00000000000E+00 0.  1.
</event>
<event>
 7    1  0.2604986E-013  0.7246141E+02  0.7816164E-02  0.1226708E+00
        -11   -1    0    0    0    0  0.00000000000E+00  0.00000000000E+00  0.45593999997E+02  0.45594000000E+02  0.51100000000E-03 0.  1.
         11   -1    0    0    0    0 -0.00000000000E+00 -0.00000000000E+00 -0.45593999997E+02  0.45594000000E+02  0.51100000000E-03 0. -1.
    9900012    2    1    2    0    0 -0.35269400293E+01  0.17788449323E+02 -0.46708771980E+01  0.72461405833E+02  0.69999785758E+02 0.  0.
        -12    1    1    2    0    0  0.35269400293E+01 -0.17788449323E+02  0.46708771980E+01  0.18726594167E+02  0.00000000000E+00 0.  1.
         11    1    3    3    0    0 -0.59295016741E+01 -0.18027751726E+01  0.16419808232E+02  0.17550472674E+02  0.51100000000E-03 0. -1.
        -11    1    3    3    0    0 -0.21876287186E+02  0.79866061272E+01 -0.13639296373E+02  0.26988668442E+02  0.51100000000E-03 0.  1.
         12    1    3    3    0    0  0.24278848831E+02  0.11604618369E+02 -0.74513890575E+01  0.27922264717E+02  0.00000000000E+00 0. -1.
</event>
<event>
 7    1  0.2604986E-013  0.7246168E+02  0.7816164E-02  0.1226708E+00
        -11   -1    0    0    0    0  0.00000000000E+00  0.00000000000E+00  0.45593999997E+02  0.45594000000E+02  0.51100000000E-03 0. -1.
         11   -1    0    0    0    0 -0.00000000000E+00 -0.00000000000E+00 -0.45593999997E+02  0.45594000000E+02  0.51100000000E-03 0.  1.
    9900012    2    1    2    0    0 -0.13765008207E+02 -0.11349625010E+02 -0.56908339910E+01  0.72461680812E+02  0.70000143970E+02 0.  0.
        -12    1    1    2    0    0  0.13765008207E+02  0.11349625010E+02  0.56908339910E+01  0.18726319188E+02  0.00000000000E+00 0.  1.
         11    1    3    3    0    0 -0.91563816731E+01  0.64551951031E+01 -0.54321130401E+01  0.12450571132E+02  0.51100000000E-03 0. -1.
        -11    1    3    3    0    0  0.15833722279E+02 -0.91092557744E+01 -0.22225766143E+02  0.28769254124E+02  0.51100000000E-03 0.  1.
         12    1    3    3    0    0 -0.20442348813E+02 -0.86955643382E+01  0.21967045192E+02  0.31241855557E+02  0.00000000000E+00 0. -1.
</event>
<event>
 7    1  0.2604986E-013  0.7246152E+02  0.7816164E-02  0.1226708E+00
        -11   -1    0    0    0    0  0.00000000000E+00  0.00000000000E+00  0.45593999997E+02  0.45594000000E+02  0.51100000000E-03 0. -1.
         11   -1    0    0    0    0 -0.00000000000E+00 -0.00000000000E+00 -0.45593999997E+02  0.45594000000E+02  0.51100000000E-03 0.  1.
    9900012    2    1    2    0    0  0.12776052868E+02 -0.75958483960E+01  0.11391071875E+02  0.72461522536E+02  0.69999937786E+02 0.  0.
        -12    1    1    2    0    0 -0.12776052868E+02  0.75958483960E+01 -0.11391071875E+02  0.18726477464E+02  0.00000000000E+00 0.  1.
         11    1    3    3    0    0  0.28333026629E+01 -0.10753601014E+02  0.19939434874E+02  0.22830869499E+02  0.51100000000E-03 0. -1.
        -11    1    3    3    0    0  0.90949758097E+01  0.21631235720E+02  0.80231125856E+01  0.24799179010E+02  0.51100000000E-03 0.  1.
        -12    1    3    3    0    0  0.84777439528E+00 -0.18473483102E+02 -0.16571475584E+02  0.24831474027E+02  0.00000000000E+00 0.  1.
</event>
<event>
 7    1  0.2604986E-013  0.7246159E+02  0.7816164E-02  0.1226708E+00
        -11   -1    0    0    0    0  0.00000000000E+00  0.00000000000E+00  0.45593999997E+02  0.45594000000E+02  0.51100000000E-03 0. -1.
         11   -1    0    0    0    0 -0.00000000000E+00 -0.00000000000E+00 -0.45593999997E+02  0.45594000000E+02  0.51100000000E-03 0.  1.
    9900012    2    1    2    0    0 -0.17268101158E+02 -0.26368681361E+01  0.67481850809E+01  0.72461591026E+02  0.70000027007E+02 0.  0.
        -12    1    1    2    0    0  0.17268101158E+02  0.26368681361E+01 -0.67481850809E+01  0.18726408974E+02  0.00000000000E+00 0.  1.
         11    1    3    3    0    0  0.10255044892E+02 -0.69573543210E+00  0.12074565043E+02  0.15857020993E+02  0.51100000000E-03 0. -1.
        -11    1    3    3    0    0 -0.28276116741E+02  0.13033722344E+02  0.12288204840E+02  0.33472625749E+02  0.51100000000E-03 0.  1.
         12    1    3    3    0    0  0.75297069101E+00 -0.14974855048E+02 -0.17614584802E+02  0.23131944284E+02  0.00000000000E+00 0. -1.
</event>
<event>
 7    1  0.2604986E-013  0.7246155E+02  0.7816164E-02  0.1226708E+00
        -11   -1    0    0    0    0  0.00000000000E+00  0.00000000000E+00  0.45593999997E+02  0.45594000000E+02  0.51100000000E-03 0.  1.
         11   -1    0    0    0    0 -0.00000000000E+00 -0.00000000000E+00 -0.45593999997E+02  0.45594000000E+02  0.51100000000E-03 0. -1.
    9900012    2    1    2    0    0 -0.17454874765E+02  0.15949902079E+01 -0.65926679718E+01  0.72461550315E+02  0.69999973973E+02 0.  0.
        -12    1    1    2    0    0  0.17454874765E+02 -0.15949902079E+01  0.65926679718E+01  0.18726449685E+02  0.00000000000E+00 0.  1.
         11    1    3    3    0    0 -0.98477845517E+01  0.35400307229E+01 -0.20108579957E+02  0.22668605300E+02  0.51100000000E-03 0. -1.
        -11    1    3    3    0    0  0.18782111562E+02  0.20129863510E+01 -0.18844100389E+01  0.18983435680E+02  0.51100000000E-03 0.  1.
         12    1    3    3    0    0 -0.26389201775E+02 -0.39580268659E+01  0.15400322024E+02  0.30809509335E+02  0.00000000000E+00 0. -1.
</event>
<event>
 7    1  0.2604986E-013  0.7246153E+02  0.7816164E-02  0.1226708E+00
        -11   -1    0    0    0    0  0.00000000000E+00  0.00000000000E+00  0.45593999997E+02  0.45594000000E+02  0.51100000000E-03 0. -1.
         11   -1    0    0    0    0 -0.00000000000E+00 -0.00000000000E+00 -0.45593999997E+02  0.45594000000E+02  0.51100000000E-03 0.  1.
    9900012    2    1    2    0    0 -0.11765351847E+02 -0.14434751109E+02  0.19735684895E+01  0.72461534336E+02  0.69999953157E+02 0.  0.
        -12    1    1    2    0    0  0.11765351847E+02  0.14434751109E+02 -0.19735684895E+01  0.18726465664E+02  0.00000000000E+00 0.  1.
         11    1    3    3    0    0 -0.46570931212E+01 -0.13294552293E+02  0.12311300254E+02  0.18708333737E+02  0.51100000000E-03 0. -1.
        -11    1    3    3    0    0 -0.16003103343E+02 -0.20297110970E+02 -0.17765750261E+02  0.31363895054E+02  0.51100000000E-03 0.  1.
        -12    1    3    3    0    0  0.88948446170E+01  0.19156912153E+02  0.74280184963E+01  0.22389305545E+02  0.00000000000E+00 0.  1.
</event>
<event>
 7    1  0.2604986E-013  0.7246157E+02  0.7816164E-02  0.1226708E+00
        -11   -1    0    0    0    0  0.00000000000E+00  0.00000000000E+00  0.45593999997E+02  0.45594000000E+02  0.51100000000E-03 0.  1.
         11   -1    0    0    0    0 -0.00000000000E+00 -0.00000000000E+00 -0.45593999997E+02  0.45594000000E+02  0.51100000000E-03 0. -1.
    9900012    2    1    2    0    0 -0.78847307419E+01 -0.41962292834E+00 -0.16980404636E+02  0.72461569377E+02  0.69999998805E+02 0.  0.
        -12    1    1    2    0    0  0.78847307419E+01  0.41962292834E+00  0.16980404636E+02  0.18726430623E+02  0.00000000000E+00 0.  1.
         11    1    3    3    0    0 -0.27091634089E+02  0.82514213422E+00  0.74884180648E+01  0.28119635534E+02  0.51100000000E-03 0. -1.
        -11    1    3    3    0    0 -0.23334847359E+01  0.39596028013E+01 -0.21497641356E+02  0.21983452629E+02  0.51100000000E-03 0.  1.
        -12    1    3    3    0    0  0.21540388083E+02 -0.52043678638E+01 -0.29711813445E+01  0.22358481215E+02  0.00000000000E+00 0.  1.
</event>
<event>
 7    1  0.2604986E-013  0.7246157E+02  0.7816164E-02  0.1226708E+00
        -11   -1    0    0    0    0  0.00000000000E+00  0.00000000000E+00  0.45593999997E+02  0.45594000000E+02  0.51100000000E-03 0.  1.
         11   -1    0    0    0    0 -0.00000000000E+00 -0.00000000000E+00 -0.45593999997E+02  0.45594000000E+02  0.51100000000E-03 0. -1.
    9900012    2    1    2    0    0 -0.18650076864E+02 -0.76810416034E+00 -0.15045445373E+01  0.72461574679E+02  0.70000005711E+02 0.  0.
        -12    1    1    2    0    0  0.18650076864E+02  0.76810416034E+00  0.15045445373E+01  0.18726425321E+02  0.00000000000E+00 0.  1.
         11    1    3    3    0    0  0.10469527608E+02  0.22235931494E+02  0.15393729104E+01  0.24625542166E+02  0.51100000000E-03 0. -1.
        -11    1    3    3    0    0 -0.53919816977E+01  0.19915429944E+01  0.95470860834E+01  0.11143902506E+02  0.51100000000E-03 0.  1.
         12    1    3    3    0    0 -0.23727622774E+02 -0.24995578649E+02 -0.12591003531E+02  0.36692130007E+02  0.00000000000E+00 0. -1.
</event>
<event>
 7    1  0.2604986E-013  0.7246161E+02  0.7816164E-02  0.1226708E+00
        -11   -1    0    0    0    0  0.00000000000E+00  0.00000000000E+00  0.45593999997E+02  0.45594000000E+02  0.51100000000E-03 0. -1.
         11   -1    0    0    0    0 -0.00000000000E+00 -0.00000000000E+00 -0.45593999997E+02  0.45594000000E+02  0.51100000000E-03 0.  1.
    9900012    2    1    2    0    0  0.17178332290E+02  0.63145510952E+01 -0.39634757282E+01  0.72461606977E+02  0.70000047786E+02 0.  0.
        -12    1    1    2    0    0 -0.17178332290E+02 -0.63145510952E+01  0.39634757282E+01  0.18726393023E+02  0.00000000000E+00 0.  1.
         11    1    3    3    0    0 -0.38225502472E+01 -0.30406348224E+01  0.95343797309E+00  0.49765846467E+01  0.51100000000E-03 0. -1.
        -11    1    3    3    0    0 -0.17933096495E+02 -0.12593619130E+02  0.29250052612E+01  0.22107710165E+02  0.51100000000E-03 0.  1.
         12    1    3    3    0    0  0.38933979033E+02  0.21948805047E+02 -0.78419189625E+01  0.45377312165E+02  0.00000000000E+00 0. -1.
</event>
<event>
 7    1  0.2604986E-013  0.7246161E+02  0.7816164E-02  0.1226708E+00
        -11   -1    0    0    0    0  0.00000000000E+00  0.00000000000E+00  0.45593999997E+02  0.45594000000E+02  0.51100000000E-03 0. -1.
         11   -1    0    0    0    0 -0.00000000000E+00 -0.00000000000E+00 -0.45593999997E+02  0.45594000000E+02  0.51100000000E-03 0.  1.
    9900012    2    1    2    0    0  0.15118755760E+02  0.10601632029E+02 -0.31155072006E+01  0.72461607861E+02  0.70000048938E+02 0.  0.
        -12    1    1    2    0    0 -0.15118755760E+02 -0.10601632029E+02  0.31155072006E+01  0.18726392139E+02  0.00000000000E+00 0.  1.
         11    1    3    3    0    0  0.18276355010E+02 -0.90908137356E+01  0.81531051416E+01  0.21980472482E+02  0.51100000000E-03 0. -1.
        -11    1    3    3    0    0 -0.55826873714E+00 -0.13582505239E+02  0.34169624289E+01  0.14016837912E+02  0.51100000000E-03 0.  1.
         12    1    3    3    0    0 -0.25993305126E+01  0.33274951004E+02 -0.14685574771E+02  0.36464297467E+02  0.00000000000E+00 0. -1.
</event>
<event>
 7    1  0.2604986E-013  0.7246157E+02  0.7816164E-02  0.1226708E+00
        -11   -1    0    0    0    0  0.00000000000E+00  0.00000000000E+00  0.45593999997E+02  0.45594000000E+02  0.51100000000E-03 0.  1.
         11   -1    0    0    0    0 -0.00000000000E+00 -0.00000000000E+00 -0.45593999997E+02  0.45594000000E+02  0.51100000000E-03 0. -1.
    9900012    2    1    2    0    0  0.65949736350E+00  0.16582941447E+02  0.86746844549E+01  0.72461573907E+02  0.70000004707E+02 0.  0.
        -12    1    1    2    0    0 -0.65949736350E+00 -0.16582941447E+02 -0.86746844549E+01  0.18726426093E+02  0.00000000000E+00 0.  1.
         11    1    3    3    0    0  0.19815966722E+02 -0.13120923896E+02 -0.32784564898E+01  0.23991237113E+02  0.51100000000E-03 0.  1.
        -11    1    3    3    0    0  0.37502165351E+01  0.86538600814E+01 -0.72632391693E+01  0.11904119533E+02  0.51100000000E-03 0. -1.
        -12    1    3    3    0    0 -0.22906685893E+02  0.21050005262E+02  0.19216380114E+02  0.36566217261E+02  0.00000000000E+00 0.  1.
</event>
<event>
 7    1  0.2604986E-013  0.7246158E+02  0.7816164E-02  0.1226708E+00
        -11   -1    0    0    0    0  0.00000000000E+00  0.00000000000E+00  0.45593999997E+02  0.45594000000E+02  0.51100000000E-03 0. -1.
         11   -1    0    0    0    0 -0.00000000000E+00 -0.00000000000E+00 -0.45593999997E+02  0.45594000000E+02  0.51100000000E-03 0.  1.
    9900012    2    1    2    0    0  0.15563912925E+02  0.49759169856E+01  0.91478821191E+01  0.72461577954E+02  0.70000009978E+02 0.  0.
        -12    1    1    2    0    0 -0.15563912925E+02 -0.49759169856E+01 -0.91478821191E+01  0.18726422046E+02  0.00000000000E+00 0.  1.
         11    1    3    3    0    0  0.64057885160E+01 -0.87525719623E+01  0.20605655433E+01  0.11040270517E+02  0.51100000000E-03 0. -1.
        -11    1    3    3    0    0  0.16692055635E+02 -0.18482222937E+02  0.12559159751E+02  0.27891751109E+02  0.51100000000E-03 0.  1.
         12    1    3    3    0    0 -0.75339312260E+01  0.32210711885E+02 -0.54718431747E+01  0.33529556328E+02  0.00000000000E+00 0. -1.
</event>
<event>
 7    1  0.2604986E-013  0.7246160E+02  0.7816164E-02  0.1226708E+00
        -11   -1    0    0    0    0  0.00000000000E+00  0.00000000000E+00  0.45593999997E+02  0.45594000000E+02  0.51100000000E-03 0. -1.
         11   -1    0    0    0    0 -0.00000000000E+00 -0.00000000000E+00 -0.45593999997E+02  0.45594000000E+02  0.51100000000E-03 0.  1.
    9900012    2    1    2    0    0  0.92650356105E+01  0.11389219738E+02  0.11624236264E+02  0.72461599389E+02  0.70000037902E+02 0.  0.
        -12    1    1    2    0    0 -0.92650356105E+01 -0.11389219738E+02 -0.11624236264E+02  0.18726400611E+02  0.00000000000E+00 0.  1.
         11    1    3    3    0    0  0.31226360322E+02  0.69420685488E+01  0.84399473318E+01  0.33083388671E+02  0.51100000000E-03 0. -1.
        -11    1    3    3    0    0 -0.85639514648E+01  0.28306586058E+01  0.17510615939E+02  0.19697095311E+02  0.51100000000E-03 0.  1.
        -12    1    3    3    0    0 -0.13397373247E+02  0.16164925838E+01 -0.14326327007E+02  0.19681115408E+02  0.00000000000E+00 0.  1.
</event>
<event>
 7    1  0.2604986E-013  0.7246154E+02  0.7816164E-02  0.1226708E+00
        -11   -1    0    0    0    0  0.00000000000E+00  0.00000000000E+00  0.45593999997E+02  0.45594000000E+02  0.51100000000E-03 0. -1.
         11   -1    0    0    0    0 -0.00000000000E+00 -0.00000000000E+00 -0.45593999997E+02  0.45594000000E+02  0.51100000000E-03 0.  1.
    9900012    2    1    2    0    0  0.88401388869E+01 -0.65724911293E+01  0.15143797257E+02  0.72461540362E+02  0.69999961008E+02 0.  0.
        -12    1    1    2    0    0 -0.88401388869E+01  0.65724911293E+01 -0.15143797257E+02  0.18726459638E+02  0.00000000000E+00 0.  1.
         11    1    3    3    0    0  0.10893954668E+02  0.13520942403E+02  0.23652656210E+02  0.29341817903E+02  0.51100000000E-03 0. -1.
        -11    1    3    3    0    0  0.30264197533E+01  0.57791572445E+01  0.92580843082E+01  0.11325634653E+02  0.51100000000E-03 0.  1.
        -12    1    3    3    0    0 -0.50802355345E+01 -0.25872590777E+02 -0.17766943261E+02  0.31794087806E+02  0.00000000000E+00 0.  1.
</event>
<event>
 7    1  0.2604986E-013  0.7246161E+02  0.7816164E-02  0.1226708E+00
        -11   -1    0    0    0    0  0.00000000000E+00  0.00000000000E+00  0.45593999997E+02  0.45594000000E+02  0.51100000000E-03 0. -1.
         11   -1    0    0    0    0 -0.00000000000E+00 -0.00000000000E+00 -0.45593999997E+02  0.45594000000E+02  0.51100000000E-03 0.  1.
    9900012    2    1    2    0    0 -0.61783436797E+01  0.17463388523E+02  0.27451366443E+01  0.72461611012E+02  0.70000053042E+02 0.  0.
        -12    1    1    2    0    0  0.61783436797E+01 -0.17463388523E+02 -0.27451366443E+01  0.18726388988E+02  0.00000000000E+00 0.  1.
         11    1    3    3    0    0 -0.83023967436E+01  0.12467876957E+02  0.16525573573E+02  0.22304087735E+02  0.51100000000E-03 0. -1.
        -11    1    3    3    0    0 -0.14350179626E+02  0.56593185036E+01  0.12008246325E+02  0.19548747308E+02  0.51100000000E-03 0.  1.
        -12    1    3    3    0    0  0.16474232690E+02 -0.66380693705E+00 -0.25788683254E+02  0.30608775970E+02  0.00000000000E+00 0.  1.
</event>
<event>
 7    1  0.2604986E-013  0.7246158E+02  0.7816164E-02  0.1226708E+00
        -11   -1    0    0    0    0  0.00000000000E+00  0.00000000000E+00  0.45593999997E+02  0.45594000000E+02  0.51100000000E-03 0.  1.
         11   -1    0    0    0    0 -0.00000000000E+00 -0.00000000000E+00 -0.45593999997E+02  0.45594000000E+02  0.51100000000E-03 0. -1.
    9900012    2    1    2    0    0 -0.53497462306E+01  0.70294735243E+01 -0.16511975644E+02  0.72461584902E+02  0.70000019029E+02 0.  0.
        -12    1    1    2    0    0  0.53497462306E+01 -0.70294735243E+01  0.16511975644E+02  0.18726415098E+02  0.00000000000E+00 0.  1.
         11    1    3    3    0    0  0.21718270456E+01  0.11465711947E+02  0.75757278971E+01  0.13912980866E+02  0.51100000000E-03 0. -1.
        -11    1    3    3    0    0  0.10860921563E+02 -0.10877711944E+02  0.10665308197E+02  0.18709169771E+02  0.51100000000E-03 0.  1.
        -12    1    3    3    0    0 -0.18382494839E+02  0.64414735214E+01 -0.34753011738E+02  0.39839434264E+02  0.00000000000E+00 0.  1.
</event>
<event>
 7    1  0.2604986E-013  0.7246158E+02  0.7816164E-02  0.1226708E+00
        -11   -1    0    0    0    0  0.00000000000E+00  0.00000000000E+00  0.45593999997E+02  0.45594000000E+02  0.51100000000E-03 0.  1.
         11   -1    0    0    0    0 -0.00000000000E+00 -0.00000000000E+00 -0.45593999997E+02  0.45594000000E+02  0.51100000000E-03 0. -1.
    9900012    2    1    2    0    0 -0.18774959746E+00 -0.20377758482E+01 -0.18614265825E+02  0.72461583564E+02  0.70000017287E+02 0.  0.
        -12    1    1    2    0    0  0.18774959746E+00  0.20377758482E+01  0.18614265825E+02  0.18726416436E+02  0.00000000000E+00 0.  1.
         11    1    3    3    0    0 -0.22802281670E+01 -0.14993340063E+02  0.30996653155E+01  0.15479263938E+02  0.51100000000E-03 0. -1.
        -11    1    3    3    0    0  0.19559193419E+02 -0.54486109981E+01  0.41793164956E+01  0.20729594681E+02  0.51100000000E-03 0.  1.
         12    1    3    3    0    0 -0.17466714849E+02  0.18404175213E+02 -0.25893247636E+02  0.36252724946E+02  0.00000000000E+00 0. -1.
</event>
<event>
 7    1  0.2604986E-013  0.7246160E+02  0.7816164E-02  0.1226708E+00
        -11   -1    0    0    0    0  0.00000000000E+00  0.00000000000E+00  0.45593999997E+02  0.45594000000E+02  0.51100000000E-03 0.  1.
         11   -1    0    0    0    0 -0.00000000000E+00 -0.00000000000E+00 -0.45593999997E+02  0.45594000000E+02  0.51100000000E-03 0. -1.
    9900012    2    1    2    0    0  0.15415223394E+02 -0.58488226393E+01 -0.88791985043E+01  0.72461601397E+02  0.70000040517E+02 0.  0.
        -12    1    1    2    0    0 -0.15415223394E+02  0.58488226393E+01  0.88791985043E+01  0.18726398603E+02  0.00000000000E+00 0.  1.
         11    1    3    3    0    0 -0.62245784868E+01  0.25183806686E+01 -0.21100190930E+02  0.22142847063E+02  0.51100000000E-03 0. -1.
        -11    1    3    3    0    0 -0.66338048439E+01 -0.31678697374E+01 -0.11091513250E+02  0.13306555971E+02  0.51100000000E-03 0.  1.
        -12    1    3    3    0    0  0.28273606725E+02 -0.51993335705E+01  0.23312505675E+02  0.37012198363E+02  0.00000000000E+00 0.  1.
</event>
<event>
 7    1  0.2604986E-013  0.7246160E+02  0.7816164E-02  0.1226708E+00
        -11   -1    0    0    0    0  0.00000000000E+00  0.00000000000E+00  0.45593999997E+02  0.45594000000E+02  0.51100000000E-03 0.  1.
         11   -1    0    0    0    0 -0.00000000000E+00 -0.00000000000E+00 -0.45593999997E+02  0.45594000000E+02  0.51100000000E-03 0. -1.
    9900012    2    1    2    0    0  0.12499470853E+02  0.13236295751E+02  0.43865615300E+01  0.72461595677E+02  0.70000033065E+02 0.  0.
        -12    1    1    2    0    0 -0.12499470853E+02 -0.13236295751E+02 -0.43865615300E+01  0.18726404323E+02  0.00000000000E+00 0.  1.
         11    1    3    3    0    0  0.12855046376E+02 -0.44601620427E+01  0.11664395809E+02  0.17922148103E+02  0.51100000000E-03 0. -1.
        -11    1    3    3    0    0  0.20391557089E+02  0.24513008900E+02 -0.13654346992E+01  0.31915006157E+02  0.51100000000E-03 0.  1.
         12    1    3    3    0    0 -0.20747132613E+02 -0.68165511055E+01 -0.59123995797E+01  0.22624441417E+02  0.00000000000E+00 0. -1.
</event>
<event>
 7    1  0.2604986E-013  0.7246167E+02  0.7816164E-02  0.1226708E+00
        -11   -1    0    0    0    0  0.00000000000E+00  0.00000000000E+00  0.45593999997E+02  0.45594000000E+02  0.51100000000E-03 0.  1.
         11   -1    0    0    0    0 -0.00000000000E+00 -0.00000000000E+00 -0.45593999997E+02  0.45594000000E+02  0.51100000000E-03 0. -1.
    9900012    2    1    2    0    0  0.12773773355E+02 -0.65238589792E+01 -0.12039332707E+02  0.72461666837E+02  0.70000125765E+02 0.  0.
        -12    1    1    2    0    0 -0.12773773355E+02  0.65238589792E+01  0.12039332707E+02  0.18726333163E+02  0.00000000000E+00 0.  1.
         11    1    3    3    0    0  0.31238585621E+02  0.85955731860E+01  0.11944998126E+01  0.32421596816E+02  0.51100000000E-03 0. -1.
        -11    1    3    3    0    0 -0.34823511870E+01  0.77879027109E+01  0.19326955242E+01  0.87472001620E+01  0.51100000000E-03 0.  1.
         12    1    3    3    0    0 -0.14982461080E+02 -0.22907334876E+02 -0.15166528044E+02  0.31292869859E+02  0.00000000000E+00 0. -1.
</event>
<event>
 7    1  0.2604986E-013  0.7246156E+02  0.7816164E-02  0.1226708E+00
        -11   -1    0    0    0    0  0.00000000000E+00  0.00000000000E+00  0.45593999997E+02  0.45594000000E+02  0.51100000000E-03 0.  1.
         11   -1    0    0    0    0 -0.00000000000E+00 -0.00000000000E+00 -0.45593999997E+02  0.45594000000E+02  0.51100000000E-03 0. -1.
    9900012    2    1    2    0    0  0.10743090146E+01 -0.14779109723E+02 -0.11450043440E+02  0.72461555627E+02  0.69999980893E+02 0.  0.
        -12    1    1    2    0    0 -0.10743090146E+01  0.14779109723E+02  0.11450043440E+02  0.18726444373E+02  0.00000000000E+00 0.  1.
         11    1    3    3    0    0 -0.13619374563E+02 -0.21821309748E+02 -0.21677442247E+02  0.33638793457E+02  0.51100000000E-03 0. -1.
        -11    1    3    3    0    0 -0.15962231710E+01 -0.28852471560E+01 -0.10290991896E+02  0.10806345082E+02  0.51100000000E-03 0.  1.
        -12    1    3    3    0    0  0.16289906749E+02  0.99274471809E+01  0.20518390703E+02  0.28016417088E+02  0.00000000000E+00 0.  1.
</event>
<event>
 7    1  0.2604986E-013  0.7246159E+02  0.7816164E-02  0.1226708E+00
        -11   -1    0    0    0    0  0.00000000000E+00  0.00000000000E+00  0.45593999997E+02  0.45594000000E+02  0.51100000000E-03 0. -1.
         11   -1    0    0    0    0 -0.00000000000E+00 -0.00000000000E+00 -0.45593999997E+02  0.45594000000E+02  0.51100000000E-03 0.  1.
    9900012    2    1    2    0    0 -0.19971600526E+01 -0.17828669366E+02 -0.53692035052E+01  0.72461589615E+02  0.70000025169E+02 0.  0.
        -12    1    1    2    0    0  0.19971600526E+01  0.17828669366E+02  0.53692035052E+01  0.18726410385E+02  0.00000000000E+00 0.  1.
         11    1    3    3    0    0 -0.68102548622E+01  0.58913425877E+01 -0.19337138881E+01  0.92101432365E+01  0.51100000000E-03 0. -1.
        -11    1    3    3    0    0 -0.16404987879E+02  0.12267881450E+02  0.38509624680E+01  0.20843571065E+02  0.51100000000E-03 0.  1.
         12    1    3    3    0    0  0.21218082688E+02 -0.35987893403E+02 -0.72864520852E+01  0.42407875313E+02  0.00000000000E+00 0. -1.
</event>
<event>
 7    1  0.2604986E-013  0.7246160E+02  0.7816164E-02  0.1226708E+00
        -11   -1    0    0    0    0  0.00000000000E+00  0.00000000000E+00  0.45593999997E+02  0.45594000000E+02  0.51100000000E-03 0. -1.
         11   -1    0    0    0    0 -0.00000000000E+00 -0.00000000000E+00 -0.45593999997E+02  0.45594000000E+02  0.51100000000E-03 0.  1.
    9900012    2    1    2    0    0 -0.12189937871E+02 -0.14096456521E+02  0.18367069152E+01  0.72461597141E+02  0.70000034973E+02 0.  0.
        -12    1    1    2    0    0  0.12189937871E+02  0.14096456521E+02 -0.18367069152E+01  0.18726402859E+02  0.00000000000E+00 0.  1.
         11    1    3    3    0    0  0.76475296351E+01 -0.83794222561E+01  0.70288786448E+01  0.13345582120E+02  0.51100000000E-03 0. -1.
        -11    1    3    3    0    0 -0.34747678448E+01  0.22292116150E+02  0.82229133509E+01  0.24013095558E+02  0.51100000000E-03 0.  1.
         12    1    3    3    0    0 -0.16362699661E+02 -0.28009150415E+02 -0.13415085081E+02  0.35102919463E+02  0.00000000000E+00 0. -1.
</event>
<event>
 7    1  0.2604986E-013  0.7246147E+02  0.7816164E-02  0.1226708E+00
        -11   -1    0    0    0    0  0.00000000000E+00  0.00000000000E+00  0.45593999997E+02  0.45594000000E+02  0.51100000000E-03 0. -1.
         11   -1    0    0    0    0 -0.00000000000E+00 -0.00000000000E+00 -0.45593999997E+02  0.45594000000E+02  0.51100000000E-03 0.  1.
    9900012    2    1    2    0    0  0.11987429977E+02  0.11231411061E+02  0.89910910552E+01  0.72461473621E+02  0.69999874065E+02 0.  0.
        -12    1    1    2    0    0 -0.11987429977E+02 -0.11231411061E+02 -0.89910910552E+01  0.18726526379E+02  0.00000000000E+00 0.  1.
         11    1    3    3    0    0  0.21006797070E+02  0.16037061844E+02  0.14513978301E+01  0.26468461075E+02  0.51100000000E-03 0. -1.
        -11    1    3    3    0    0 -0.10163229081E+02 -0.11138682178E+02 -0.15765602341E+02  0.21815491823E+02  0.51100000000E-03 0.  1.
         12    1    3    3    0    0  0.11438619871E+01  0.63330313948E+01  0.23305295566E+02  0.24177520723E+02  0.00000000000E+00 0. -1.
</event>
<event>
 7    1  0.2604986E-013  0.7246159E+02  0.7816164E-02  0.1226708E+00
        -11   -1    0    0    0    0  0.00000000000E+00  0.00000000000E+00  0.45593999997E+02  0.45594000000E+02  0.51100000000E-03 0.  1.
         11   -1    0    0    0    0 -0.00000000000E+00 -0.00000000000E+00 -0.45593999997E+02  0.45594000000E+02  0.51100000000E-03 0. -1.
    9900012    2    1    2    0    0  0.16496519940E+02  0.66243142686E+01 -0.58874252118E+01  0.72461588564E+02  0.70000023799E+02 0.  0.
        -12    1    1    2    0    0 -0.16496519940E+02 -0.66243142686E+01  0.58874252118E+01  0.18726411436E+02  0.00000000000E+00 0.  1.
         11    1    3    3    0    0 -0.15994615198E+02  0.91586715282E+00 -0.12780684444E+02  0.20494204622E+02  0.51100000000E-03 0. -1.
        -11    1    3    3    0    0  0.34842626407E+01  0.14547182501E+02 -0.92769159556E+01  0.17601754878E+02  0.51100000000E-03 0.  1.
        -12    1    3    3    0    0  0.29006872498E+02 -0.88387353854E+01  0.16170175188E+02  0.34365629063E+02  0.00000000000E+00 0.  1.
</event>
<event>
 7    1  0.2604986E-013  0.7246155E+02  0.7816164E-02  0.1226708E+00
        -11   -1    0    0    0    0  0.00000000000E+00  0.00000000000E+00  0.45593999997E+02  0.45594000000E+02  0.51100000000E-03 0. -1.
         11   -1    0    0    0    0 -0.00000000000E+00 -0.00000000000E+00 -0.45593999997E+02  0.45594000000E+02  0.51100000000E-03 0.  1.
    9900012    2    1    2    0    0  0.18562447783E+02  0.22563376709E+01  0.10120805044E+01  0.72461552544E+02  0.69999976877E+02 0.  0.
        -12    1    1    2    0    0 -0.18562447783E+02 -0.22563376709E+01 -0.10120805044E+01  0.18726447456E+02  0.00000000000E+00 0.  1.
         11    1    3    3    0    0  0.81456782379E+00  0.73773639479E+01 -0.53059828035E+00  0.74411393184E+01  0.51100000000E-03 0. -1.
        -11    1    3    3    0    0 -0.14562863251E+02 -0.70461347608E+01  0.21566056644E+02  0.26959595705E+02  0.51100000000E-03 0.  1.
        -12    1    3    3    0    0  0.32310743210E+02  0.19251084838E+01 -0.20023377859E+02  0.38060817521E+02  0.00000000000E+00 0.  1.
</event>
<event>
 7    1  0.2604986E-013  0.7246155E+02  0.7816164E-02  0.1226708E+00
        -11   -1    0    0    0    0  0.00000000000E+00  0.00000000000E+00  0.45593999997E+02  0.45594000000E+02  0.51100000000E-03 0.  1.
         11   -1    0    0    0    0 -0.00000000000E+00 -0.00000000000E+00 -0.45593999997E+02  0.45594000000E+02  0.51100000000E-03 0. -1.
    9900012    2    1    2    0    0  0.51464254020E+01  0.25978145649E+01 -0.17817001207E+02  0.72461551673E+02  0.69999975742E+02 0.  0.
        -12    1    1    2    0    0 -0.51464254020E+01 -0.25978145649E+01  0.17817001207E+02  0.18726448327E+02  0.00000000000E+00 0.  1.
         11    1    3    3    0    0  0.14340882841E+01  0.37998703579E+00 -0.53372381279E+01  0.55395947911E+01  0.51100000000E-03 0. -1.
        -11    1    3    3    0    0 -0.10716250443E+02 -0.95464306913E+01 -0.34926197577E+02  0.37759921080E+02  0.51100000000E-03 0.  1.
        -12    1    3    3    0    0  0.14428587561E+02  0.11764258220E+02  0.22446434498E+02  0.29162035802E+02  0.00000000000E+00 0.  1.
</event>
<event>
 7    1  0.2604986E-013  0.7246163E+02  0.7816164E-02  0.1226708E+00
        -11   -1    0    0    0    0  0.00000000000E+00  0.00000000000E+00  0.45593999997E+02  0.45594000000E+02  0.51100000000E-03 0.  1.
         11   -1    0    0    0    0 -0.00000000000E+00 -0.00000000000E+00 -0.45593999997E+02  0.45594000000E+02  0.51100000000E-03 0. -1.
    9900012    2    1    2    0    0  0.56464110557E+01 -0.14556803398E+02 -0.10338979451E+02  0.72461628780E+02  0.70000076189E+02 0.  0.
        -12    1    1    2    0    0 -0.56464110557E+01  0.14556803398E+02  0.10338979451E+02  0.18726371220E+02  0.00000000000E+00 0.  1.
         11    1    3    3    0    0  0.10560806297E+02 -0.27683426752E+02  0.63994126226E+01  0.30312624903E+02  0.51100000000E-03 0. -1.
        -11    1    3    3    0    0  0.89074402767E+01  0.12912367184E+02  0.49331237406E+01  0.16444069711E+02  0.51100000000E-03 0.  1.
         12    1    3    3    0    0 -0.13821835518E+02  0.21425616965E+00 -0.21671515814E+02  0.25704934166E+02  0.00000000000E+00 0. -1.
</event>
<event>
 7    1  0.2604986E-013  0.7246155E+02  0.7816164E-02  0.1226708E+00
        -11   -1    0    0    0    0  0.00000000000E+00  0.00000000000E+00  0.45593999997E+02  0.45594000000E+02  0.51100000000E-03 0.  1.
         11   -1    0    0    0    0 -0.00000000000E+00 -0.00000000000E+00 -0.45593999997E+02  0.45594000000E+02  0.51100000000E-03 0. -1.
    9900012    2    1    2    0    0  0.67784900953E+01  0.17408810289E+02 -0.12904502555E+01  0.72461551711E+02  0.69999975792E+02 0.  0.
        -12    1    1    2    0    0 -0.67784900953E+01 -0.17408810289E+02  0.12904502555E+01  0.18726448289E+02  0.00000000000E+00 0.  1.
         11    1    3    3    0    0  0.25201143883E+02  0.13692728938E+02  0.85586547911E+01  0.29930570507E+02  0.51100000000E-03 0. -1.
        -11    1    3    3    0    0 -0.65791075939E+01 -0.99731001632E+01  0.10062990217E+02  0.15620856441E+02  0.51100000000E-03 0.  1.
         12    1    3    3    0    0 -0.11843546194E+02  0.13689181514E+02 -0.19912095264E+02  0.26910124763E+02  0.00000000000E+00 0. -1.
</event>
<event>
 7    1  0.2604986E-013  0.7246157E+02  0.7816164E-02  0.1226708E+00
        -11   -1    0    0    0    0  0.00000000000E+00  0.00000000000E+00  0.45593999997E+02  0.45594000000E+02  0.51100000000E-03 0. -1.
         11   -1    0    0    0    0 -0.00000000000E+00 -0.00000000000E+00 -0.45593999997E+02  0.45594000000E+02  0.51100000000E-03 0.  1.
    9900012    2    1    2    0    0 -0.33943703582E+01 -0.24094891941E+01  0.18257924871E+02  0.72461569243E+02  0.69999998631E+02 0.  0.
        -12    1    1    2    0    0  0.33943703582E+01  0.24094891941E+01 -0.18257924871E+02  0.18726430757E+02  0.00000000000E+00 0.  1.
         11    1    3    3    0    0  0.21422162034E+01  0.90229218293E+01  0.23618310115E+02  0.25373741969E+02  0.51100000000E-03 0. -1.
        -11    1    3    3    0    0 -0.10121273327E+02 -0.22808352819E+02  0.10471122143E+02  0.27061144308E+02  0.51100000000E-03 0.  1.
        -12    1    3    3    0    0  0.45846867655E+01  0.11375941795E+02 -0.15831507387E+02  0.20026682966E+02  0.00000000000E+00 0.  1.
</event>
<event>
 7    1  0.2604986E-013  0.7246161E+02  0.7816164E-02  0.1226708E+00
        -11   -1    0    0    0    0  0.00000000000E+00  0.00000000000E+00  0.45593999997E+02  0.45594000000E+02  0.51100000000E-03 0. -1.
         11   -1    0    0    0    0 -0.00000000000E+00 -0.00000000000E+00 -0.45593999997E+02  0.45594000000E+02  0.51100000000E-03 0.  1.
    9900012    2    1    2    0    0  0.13811745743E+02 -0.34003784225E+01  0.12179932294E+02  0.72461611011E+02  0.70000053041E+02 0.  0.
        -12    1    1    2    0    0 -0.13811745743E+02  0.34003784225E+01 -0.12179932294E+02  0.18726388989E+02  0.00000000000E+00 0.  1.
         11    1    3    3    0    0  0.93112039962E+01 -0.21274718511E+02  0.35315178524E+01  0.23490078463E+02  0.51100000000E-03 0. -1.
        -11    1    3    3    0    0  0.21020997222E+02  0.18364786584E+02 -0.39477892451E+01  0.28191004783E+02  0.51100000000E-03 0.  1.
         12    1    3    3    0    0 -0.16520455476E+02 -0.49044649465E+00  0.12596203687E+02  0.20780527765E+02  0.00000000000E+00 0. -1.
</event>
<event>
 7    1  0.2604986E-013  0.7246150E+02  0.7816164E-02  0.1226708E+00
        -11   -1    0    0    0    0  0.00000000000E+00  0.00000000000E+00  0.45593999997E+02  0.45594000000E+02  0.51100000000E-03 0. -1.
         11   -1    0    0    0    0 -0.00000000000E+00 -0.00000000000E+00 -0.45593999997E+02  0.45594000000E+02  0.51100000000E-03 0.  1.
    9900012    2    1    2    0    0  0.11812503854E+02  0.13573059349E+02 -0.51883189914E+01  0.72461498956E+02  0.69999907069E+02 0.  0.
        -12    1    1    2    0    0 -0.11812503854E+02 -0.13573059349E+02  0.51883189914E+01  0.18726501044E+02  0.00000000000E+00 0.  1.
         11    1    3    3    0    0  0.15533067736E+02 -0.17766788778E+02 -0.16930952779E+02  0.29044657667E+02  0.51100000000E-03 0. -1.
        -11    1    3    3    0    0  0.42801171461E+01  0.77282927722E+01 -0.77646806827E+01  0.11761640120E+02  0.51100000000E-03 0.  1.
        -12    1    3    3    0    0 -0.80006810280E+01  0.23611555354E+02  0.19507314470E+02  0.31655201168E+02  0.00000000000E+00 0.  1.
</event>
<event>
 7    1  0.2604986E-013  0.7246157E+02  0.7816164E-02  0.1226708E+00
        -11   -1    0    0    0    0  0.00000000000E+00  0.00000000000E+00  0.45593999997E+02  0.45594000000E+02  0.51100000000E-03 0.  1.
         11   -1    0    0    0    0 -0.00000000000E+00 -0.00000000000E+00 -0.45593999997E+02  0.45594000000E+02  0.51100000000E-03 0. -1.
    9900012    2    1    2    0    0 -0.21174947833E+01  0.54515932885E+01 -0.17789758683E+02  0.72461570347E+02  0.70000000068E+02 0.  0.
        -12    1    1    2    0    0  0.21174947833E+01 -0.54515932885E+01  0.17789758683E+02  0.18726429653E+02  0.00000000000E+00 0.  1.
         11    1    3    3    0    0 -0.28413609688E+00  0.13912683377E+02 -0.19872390813E+02  0.24260160943E+02  0.51100000000E-03 0. -1.
        -11    1    3    3    0    0  0.80137413605E+01  0.13446380793E+02 -0.12561603642E+02  0.20070353593E+02  0.51100000000E-03 0.  1.
        -12    1    3    3    0    0 -0.98471000469E+01 -0.21907470881E+02  0.14644235772E+02  0.28131055812E+02  0.00000000000E+00 0.  1.
</event>
<event>
 7    1  0.2604986E-013  0.7246146E+02  0.7816164E-02  0.1226708E+00
        -11   -1    0    0    0    0  0.00000000000E+00  0.00000000000E+00  0.45593999997E+02  0.45594000000E+02  0.51100000000E-03 0. -1.
         11   -1    0    0    0    0 -0.00000000000E+00 -0.00000000000E+00 -0.45593999997E+02  0.45594000000E+02  0.51100000000E-03 0.  1.
    9900012    2    1    2    0    0  0.93205468924E+01  0.10304751379E+02 -0.12554788952E+02  0.72461462120E+02  0.69999859082E+02 0.  0.
        -12    1    1    2    0    0 -0.93205468924E+01 -0.10304751379E+02  0.12554788952E+02  0.18726537880E+02  0.00000000000E+00 0.  1.
         11    1    3    3    0    0 -0.93438845523E+01  0.16484583081E+02  0.10414959712E+02  0.21622234943E+02  0.51100000000E-03 0. -1.
        -11    1    3    3    0    0 -0.46932265704E+01  0.27163155202E+01  0.88484762906E+01  0.10377874473E+02  0.51100000000E-03 0.  1.
        -12    1    3    3    0    0  0.23357658015E+02 -0.88961472220E+01 -0.31818224955E+02  0.40461352704E+02  0.00000000000E+00 0.  1.
</event>
<event>
 7    1  0.2604986E-013  0.7246156E+02  0.7816164E-02  0.1226708E+00
        -11   -1    0    0    0    0  0.00000000000E+00  0.00000000000E+00  0.45593999997E+02  0.45594000000E+02  0.51100000000E-03 0.  1.
         11   -1    0    0    0    0 -0.00000000000E+00 -0.00000000000E+00 -0.45593999997E+02  0.45594000000E+02  0.51100000000E-03 0. -1.
    9900012    2    1    2    0    0 -0.13956629267E+02 -0.11334543147E+02 -0.52364343739E+01  0.72461558432E+02  0.69999984547E+02 0.  0.
        -12    1    1    2    0    0  0.13956629267E+02  0.11334543147E+02  0.52364343739E+01  0.18726441568E+02  0.00000000000E+00 0.  1.
         11    1    3    3    0    0  0.25422140300E+01  0.62181956372E+01 -0.72995694877E+00  0.67573401990E+01  0.51100000000E-03 0. -1.
        -11    1    3    3    0    0 -0.13215392177E+01  0.20767480190E+02  0.85085343578E+01  0.22481767202E+02  0.51100000000E-03 0.  1.
         12    1    3    3    0    0 -0.15177304080E+02 -0.38320218975E+02 -0.13015011783E+02  0.43222451031E+02  0.00000000000E+00 0. -1.
</event>
<event>
 7    1  0.2604986E-013  0.7246159E+02  0.7816164E-02  0.1226708E+00
        -11   -1    0    0    0    0  0.00000000000E+00  0.00000000000E+00  0.45593999997E+02  0.45594000000E+02  0.51100000000E-03 0.  1.
         11   -1    0    0    0    0 -0.00000000000E+00 -0.00000000000E+00 -0.45593999997E+02  0.45594000000E+02  0.51100000000E-03 0. -1.
    9900012    2    1    2    0    0 -0.14017941145E+02  0.48200066504E+01 -0.11443047957E+02  0.72461588582E+02  0.70000023823E+02 0.  0.
        -12    1    1    2    0    0  0.14017941145E+02 -0.48200066504E+01  0.11443047957E+02  0.18726411418E+02  0.00000000000E+00 0.  1.
         11    1    3    3    0    0 -0.35905981194E+00 -0.28033925150E+00 -0.29215314715E+02  0.29218865963E+02  0.51100000000E-03 0. -1.
        -11    1    3    3    0    0 -0.72428126430E+01 -0.58932069467E+01 -0.93921509481E+01  0.13243893793E+02  0.51100000000E-03 0.  1.
        -12    1    3    3    0    0 -0.64160686897E+01  0.10993552849E+02  0.27164417705E+02  0.29998828826E+02  0.00000000000E+00 0.  1.
</event>
<event>
 7    1  0.2604986E-013  0.7246158E+02  0.7816164E-02  0.1226708E+00
        -11   -1    0    0    0    0  0.00000000000E+00  0.00000000000E+00  0.45593999997E+02  0.45594000000E+02  0.51100000000E-03 0. -1.
         11   -1    0    0    0    0 -0.00000000000E+00 -0.00000000000E+00 -0.45593999997E+02  0.45594000000E+02  0.51100000000E-03 0.  1.
    9900012    2    1    2    0    0 -0.10986022037E+02  0.15071912142E+02  0.16803522757E+01  0.72461580172E+02  0.70000012867E+02 0.  0.
        -12    1    1    2    0    0  0.10986022037E+02 -0.15071912142E+02 -0.16803522757E+01  0.18726419828E+02  0.00000000000E+00 0.  1.
         11    1    3    3    0    0 -0.24826889577E+02  0.29315812967E+02  0.41016856289E+01  0.38634377971E+02  0.51100000000E-03 0. -1.
        -11    1    3    3    0    0  0.65416223791E+00  0.51483887483E+01  0.68637486231E+01  0.86049334896E+01  0.51100000000E-03 0.  1.
        -12    1    3    3    0    0  0.13186705301E+02 -0.19392289574E+02 -0.92850819763E+01  0.25222268711E+02  0.00000000000E+00 0.  1.
</event>
<event>
 7    1  0.2604986E-013  0.7246168E+02  0.7816164E-02  0.1226708E+00
        -11   -1    0    0    0    0  0.00000000000E+00  0.00000000000E+00  0.45593999997E+02  0.45594000000E+02  0.51100000000E-03 0.  1.
         11   -1    0    0    0    0 -0.00000000000E+00 -0.00000000000E+00 -0.45593999997E+02  0.45594000000E+02  0.51100000000E-03 0. -1.
    9900012    2    1    2    0    0 -0.52636162820E+01  0.10693507419E+02 -0.14443628926E+02  0.72461676980E+02  0.70000138978E+02 0.  0.
        -12    1    1    2    0    0  0.52636162820E+01 -0.10693507419E+02  0.14443628926E+02  0.18726323020E+02  0.00000000000E+00 0.  1.
         11    1    3    3    0    0  0.52805255574E+01 -0.13845812648E+02 -0.48729634155E+01  0.15599238788E+02  0.51100000000E-03 0. -1.
        -11    1    3    3    0    0 -0.23316946327E+02 -0.42663329966E+01 -0.89752528495E+01  0.25346335972E+02  0.51100000000E-03 0.  1.
        -12    1    3    3    0    0  0.12772804488E+02  0.28805653064E+02 -0.59541266090E+00  0.31516102220E+02  0.00000000000E+00 0.  1.
</event>
<event>
 7    1  0.2604986E-013  0.7246165E+02  0.7816164E-02  0.1226708E+00
        -11   -1    0    0    0    0  0.00000000000E+00  0.00000000000E+00  0.45593999997E+02  0.45594000000E+02  0.51100000000E-03 0.  1.
         11   -1    0    0    0    0 -0.00000000000E+00 -0.00000000000E+00 -0.45593999997E+02  0.45594000000E+02  0.51100000000E-03 0. -1.
    9900012    2    1    2    0    0  0.15901503659E+02  0.70890329472E+01 -0.68966653887E+01  0.72461649575E+02  0.70000103278E+02 0.  0.
        -12    1    1    2    0    0 -0.15901503659E+02 -0.70890329472E+01  0.68966653887E+01  0.18726350425E+02  0.00000000000E+00 0.  1.
         11    1    3    3    0    0 -0.22684964402E+02  0.75727870864E+01  0.27837998825E+00  0.23917194858E+02  0.51100000000E-03 0. -1.
        -11    1    3    3    0    0  0.88289145231E+01  0.11485950330E+02  0.31946153855E+01  0.14835172880E+02  0.51100000000E-03 0.  1.
         12    1    3    3    0    0  0.29757553538E+02 -0.11969704469E+02 -0.10369660762E+02  0.33709281838E+02  0.00000000000E+00 0. -1.
</event>
<event>
 7    1  0.2604986E-013  0.7246129E+02  0.7816164E-02  0.1226709E+00
        -11   -1    0    0    0    0  0.00000000000E+00  0.00000000000E+00  0.45593999997E+02  0.45594000000E+02  0.51100000000E-03 0. -1.
         11   -1    0    0    0    0 -0.00000000000E+00 -0.00000000000E+00 -0.45593999997E+02  0.45594000000E+02  0.51100000000E-03 0.  1.
    9900012    2    1    2    0    0 -0.14715732138E+02  0.23610243708E+01  0.11338543191E+02  0.72461287258E+02  0.69999631291E+02 0.  0.
        -12    1    1    2    0    0  0.14715732138E+02 -0.23610243708E+01 -0.11338543191E+02  0.18726712742E+02  0.00000000000E+00 0.  1.
         11    1    3    3    0    0 -0.18492369802E+02  0.26999913091E+01 -0.63405090434E+01  0.19734734585E+02  0.51100000000E-03 0. -1.
        -11    1    3    3    0    0  0.19157780112E+01 -0.15330394166E+02 -0.11907927761E+02  0.19506151196E+02  0.51100000000E-03 0.  1.
         12    1    3    3    0    0  0.18608596530E+01  0.14991427227E+02  0.29586979996E+02  0.33220401476E+02  0.00000000000E+00 0. -1.
</event>
<event>
 7    1  0.2604986E-013  0.7246160E+02  0.7816164E-02  0.1226708E+00
        -11   -1    0    0    0    0  0.00000000000E+00  0.00000000000E+00  0.45593999997E+02  0.45594000000E+02  0.51100000000E-03 0.  1.
         11   -1    0    0    0    0 -0.00000000000E+00 -0.00000000000E+00 -0.45593999997E+02  0.45594000000E+02  0.51100000000E-03 0. -1.
    9900012    2    1    2    0    0 -0.16612471338E+02  0.68340426977E+00 -0.86160786540E+01  0.72461600007E+02  0.70000038706E+02 0.  0.
        -12    1    1    2    0    0  0.16612471338E+02 -0.68340426977E+00  0.86160786540E+01  0.18726399993E+02  0.00000000000E+00 0.  1.
         11    1    3    3    0    0 -0.17289573787E+02 -0.30699454638E+02  0.12149877231E+01  0.35254248995E+02  0.51100000000E-03 0. -1.
        -11    1    3    3    0    0 -0.45114718408E+01  0.13241882999E+01  0.10570360348E+01  0.48191470474E+01  0.51100000000E-03 0.  1.
         12    1    3    3    0    0  0.51885742903E+01  0.30058670608E+02 -0.10888102412E+02  0.32388203964E+02  0.00000000000E+00 0. -1.
</event>
<event>
 7    1  0.2604986E-013  0.7246155E+02  0.7816164E-02  0.1226708E+00
        -11   -1    0    0    0    0  0.00000000000E+00  0.00000000000E+00  0.45593999997E+02  0.45594000000E+02  0.51100000000E-03 0. -1.
         11   -1    0    0    0    0 -0.00000000000E+00 -0.00000000000E+00 -0.45593999997E+02  0.45594000000E+02  0.51100000000E-03 0.  1.
    9900012    2    1    2    0    0 -0.51546471504E+01  0.68522624684E+01  0.16647999484E+02  0.72461554128E+02  0.69999978940E+02 0.  0.
        -12    1    1    2    0    0  0.51546471504E+01 -0.68522624684E+01 -0.16647999484E+02  0.18726445872E+02  0.00000000000E+00 0.  1.
         11    1    3    3    0    0 -0.10551444606E+02 -0.64564196448E+01  0.34119277930E+02  0.36292471184E+02  0.51100000000E-03 0. -1.
        -11    1    3    3    0    0 -0.11164918117E+01 -0.31168871741E+01  0.59625212223E+01  0.68200585928E+01  0.51100000000E-03 0.  1.
        -12    1    3    3    0    0  0.65132892674E+01  0.16425569287E+02 -0.23433799668E+02  0.29349024351E+02  0.00000000000E+00 0.  1.
</event>
<event>
 7    1  0.2604986E-013  0.7246161E+02  0.7816164E-02  0.1226708E+00
        -11   -1    0    0    0    0  0.00000000000E+00  0.00000000000E+00  0.45593999997E+02  0.45594000000E+02  0.51100000000E-03 0.  1.
         11   -1    0    0    0    0 -0.00000000000E+00 -0.00000000000E+00 -0.45593999997E+02  0.45594000000E+02  0.51100000000E-03 0. -1.
    9900012    2    1    2    0    0  0.16801847744E+02  0.18034337743E+01 -0.80699039599E+01  0.72461606570E+02  0.70000047256E+02 0.  0.
        -12    1    1    2    0    0 -0.16801847744E+02 -0.18034337743E+01  0.80699039599E+01  0.18726393430E+02  0.00000000000E+00 0.  1.
         11    1    3    3    0    0  0.31715296227E+02 -0.62939634381E+01  0.92113004297E+01  0.33620262438E+02  0.51100000000E-03 0. -1.
        -11    1    3    3    0    0  0.19951499458E+01 -0.56383014589E+01 -0.15928962517E+02  0.17014785153E+02  0.51100000000E-03 0.  1.
        -12    1    3    3    0    0 -0.16908598429E+02  0.13735698671E+02 -0.13522418721E+01  0.21826558980E+02  0.00000000000E+00 0.  1.
</event>
<event>
 7    1  0.2604986E-013  0.7246155E+02  0.7816164E-02  0.1226708E+00
        -11   -1    0    0    0    0  0.00000000000E+00  0.00000000000E+00  0.45593999997E+02  0.45594000000E+02  0.51100000000E-03 0.  1.
         11   -1    0    0    0    0 -0.00000000000E+00 -0.00000000000E+00 -0.45593999997E+02  0.45594000000E+02  0.51100000000E-03 0. -1.
    9900012    2    1    2    0    0 -0.77009400326E+00  0.60974498962E+01 -0.17689204863E+02  0.72461550558E+02  0.69999974290E+02 0.  0.
        -12    1    1    2    0    0  0.77009400326E+00 -0.60974498962E+01  0.17689204863E+02  0.18726449442E+02  0.00000000000E+00 0.  1.
         11    1    3    3    0    0  0.21103609429E+02  0.16462403912E+02 -0.25723287115E+02  0.37122238264E+02  0.51100000000E-03 0. -1.
        -11    1    3    3    0    0  0.37130416302E+01  0.36571270034E+01  0.17074717599E+01  0.54842242968E+01  0.51100000000E-03 0.  1.
        -12    1    3    3    0    0 -0.25586745062E+02 -0.14022081019E+02  0.63266104914E+01  0.29855087997E+02  0.00000000000E+00 0.  1.
</event>
<event>
 7    1  0.2604986E-013  0.7246159E+02  0.7816164E-02  0.1226708E+00
        -11   -1    0    0    0    0  0.00000000000E+00  0.00000000000E+00  0.45593999997E+02  0.45594000000E+02  0.51100000000E-03 0.  1.
         11   -1    0    0    0    0 -0.00000000000E+00 -0.00000000000E+00 -0.45593999997E+02  0.45594000000E+02  0.51100000000E-03 0. -1.
    9900012    2    1    2    0    0 -0.78166311043E+01 -0.35931621988E+01 -0.16633334448E+02  0.72461592142E+02  0.70000028461E+02 0.  0.
        -12    1    1    2    0    0  0.78166311043E+01  0.35931621988E+01  0.16633334448E+02  0.18726407858E+02  0.00000000000E+00 0.  1.
         11    1    3    3    0    0  0.18861234254E+01 -0.33099498171E+01  0.49024732075E+01  0.62086611422E+01  0.51100000000E-03 0. -1.
        -11    1    3    3    0    0 -0.25220208999E+02 -0.25607467642E+00 -0.36716558842E+02  0.44544699007E+02  0.51100000000E-03 0.  1.
         12    1    3    3    0    0  0.15517454469E+02 -0.27137705250E-01  0.15180751187E+02  0.21708231993E+02  0.00000000000E+00 0. -1.
</event>
<event>
 7    1  0.2604986E-013  0.7246163E+02  0.7816164E-02  0.1226708E+00
        -11   -1    0    0    0    0  0.00000000000E+00  0.00000000000E+00  0.45593999997E+02  0.45594000000E+02  0.51100000000E-03 0.  1.
         11   -1    0    0    0    0 -0.00000000000E+00 -0.00000000000E+00 -0.45593999997E+02  0.45594000000E+02  0.51100000000E-03 0. -1.
    9900012    2    1    2    0    0 -0.57477133433E+01 -0.44209021854E+01 -0.17265466151E+02  0.72461630725E+02  0.70000078722E+02 0.  0.
        -12    1    1    2    0    0  0.57477133433E+01  0.44209021854E+01  0.17265466151E+02  0.18726369275E+02  0.00000000000E+00 0.  1.
         11    1    3    3    0    0 -0.10946583939E+01  0.14117833466E+02  0.10517315981E+02  0.17638748098E+02  0.51100000000E-03 0.  1.
        -11    1    3    3    0    0 -0.16481314503E+02 -0.20017462846E+02 -0.32866865651E+02  0.41863628659E+02  0.51100000000E-03 0. -1.
         12    1    3    3    0    0  0.11828259553E+02  0.14787271942E+01  0.50840835187E+01  0.12959253968E+02  0.00000000000E+00 0. -1.
</event>
<event>
 7    1  0.2604986E-013  0.7246151E+02  0.7816164E-02  0.1226708E+00
        -11   -1    0    0    0    0  0.00000000000E+00  0.00000000000E+00  0.45593999997E+02  0.45594000000E+02  0.51100000000E-03 0. -1.
         11   -1    0    0    0    0 -0.00000000000E+00 -0.00000000000E+00 -0.45593999997E+02  0.45594000000E+02  0.51100000000E-03 0.  1.
    9900012    2    1    2    0    0  0.13359480634E+02  0.52533796399E+01  0.12025291184E+02  0.72461512115E+02  0.69999924211E+02 0.  0.
        -12    1    1    2    0    0 -0.13359480634E+02 -0.52533796399E+01 -0.12025291184E+02  0.18726487885E+02  0.00000000000E+00 0.  1.
         11    1    3    3    0    0  0.23298754760E+02  0.18444339146E+02  0.13594853223E+02  0.32677907740E+02  0.51100000000E-03 0. -1.
        -11    1    3    3    0    0 -0.62382599350E+01  0.12388812972E+02  0.25535745981E+00  0.13873131642E+02  0.51100000000E-03 0.  1.
        -12    1    3    3    0    0 -0.37010141906E+01 -0.25579772478E+02 -0.18249194989E+01  0.25910472733E+02  0.00000000000E+00 0.  1.
</event>
<event>
 7    1  0.2604986E-013  0.7246156E+02  0.7816164E-02  0.1226708E+00
        -11   -1    0    0    0    0  0.00000000000E+00  0.00000000000E+00  0.45593999997E+02  0.45594000000E+02  0.51100000000E-03 0.  1.
         11   -1    0    0    0    0 -0.00000000000E+00 -0.00000000000E+00 -0.45593999997E+02  0.45594000000E+02  0.51100000000E-03 0. -1.
    9900012    2    1    2    0    0 -0.13112708937E+02  0.10032518456E+02 -0.88365700424E+01  0.72461560607E+02  0.69999987380E+02 0.  0.
        -12    1    1    2    0    0  0.13112708937E+02 -0.10032518456E+02  0.88365700424E+01  0.18726439393E+02  0.00000000000E+00 0.  1.
         11    1    3    3    0    0  0.21058417251E+02  0.31653398615E+01 -0.21072426712E+02  0.29958696256E+02  0.51100000000E-03 0. -1.
        -11    1    3    3    0    0 -0.24444821921E+02  0.13340627922E+02  0.38315426623E+01  0.28110538798E+02  0.51100000000E-03 0.  1.
        -12    1    3    3    0    0 -0.97263042672E+01 -0.64734493275E+01  0.84043140070E+01  0.14392325553E+02  0.00000000000E+00 0.  1.
</event>
<event>
 7    1  0.2604986E-013  0.7246157E+02  0.7816164E-02  0.1226708E+00
        -11   -1    0    0    0    0  0.00000000000E+00  0.00000000000E+00  0.45593999997E+02  0.45594000000E+02  0.51100000000E-03 0.  1.
         11   -1    0    0    0    0 -0.00000000000E+00 -0.00000000000E+00 -0.45593999997E+02  0.45594000000E+02  0.51100000000E-03 0. -1.
    9900012    2    1    2    0    0  0.52582399125E+01 -0.14706166130E+02  0.10332416702E+02  0.72461568303E+02  0.69999997406E+02 0.  0.
        -12    1    1    2    0    0 -0.52582399125E+01  0.14706166130E+02 -0.10332416702E+02  0.18726431697E+02  0.00000000000E+00 0.  1.
         11    1    3    3    0    0 -0.10376202676E+01 -0.95198758193E+01 -0.18779518981E+02  0.21080204573E+02  0.51100000000E-03 0. -1.
        -11    1    3    3    0    0 -0.12679451234E+02 -0.95402799158E+01 -0.57731574308E+00  0.15878246698E+02  0.51100000000E-03 0.  1.
         12    1    3    3    0    0  0.18975311414E+02  0.43539896054E+01  0.29689251426E+02  0.35503117032E+02  0.00000000000E+00 0. -1.
</event>
<event>
 7    1  0.2604986E-013  0.7246155E+02  0.7816164E-02  0.1226708E+00
        -11   -1    0    0    0    0  0.00000000000E+00  0.00000000000E+00  0.45593999997E+02  0.45594000000E+02  0.51100000000E-03 0.  1.
         11   -1    0    0    0    0 -0.00000000000E+00 -0.00000000000E+00 -0.45593999997E+02  0.45594000000E+02  0.51100000000E-03 0. -1.
    9900012    2    1    2    0    0 -0.14745627716E+02  0.46682575562E+01 -0.10557168389E+02  0.72461548928E+02  0.69999972166E+02 0.  0.
        -12    1    1    2    0    0  0.14745627716E+02 -0.46682575562E+01  0.10557168389E+02  0.18726451072E+02  0.00000000000E+00 0.  1.
         11    1    3    3    0    0 -0.18257594892E+02  0.74140618038E+01  0.76545417074E+01  0.21140011653E+02  0.51100000000E-03 0. -1.
        -11    1    3    3    0    0 -0.17829245370E+02  0.98008674733E+01  0.40025545101E+00  0.20349427471E+02  0.51100000000E-03 0.  1.
        -12    1    3    3    0    0  0.21341212546E+02 -0.12546671721E+02 -0.18611965547E+02  0.30972109804E+02  0.00000000000E+00 0.  1.
</event>
<event>
 7    1  0.2604986E-013  0.7246162E+02  0.7816164E-02  0.1226708E+00
        -11   -1    0    0    0    0  0.00000000000E+00  0.00000000000E+00  0.45593999997E+02  0.45594000000E+02  0.51100000000E-03 0.  1.
         11   -1    0    0    0    0 -0.00000000000E+00 -0.00000000000E+00 -0.45593999997E+02  0.45594000000E+02  0.51100000000E-03 0. -1.
    9900012    2    1    2    0    0  0.10555148123E+02  0.10505479567E+02 -0.11353458970E+02  0.72461620654E+02  0.70000065602E+02 0.  0.
        -12    1    1    2    0    0 -0.10555148123E+02 -0.10505479567E+02  0.11353458970E+02  0.18726379346E+02  0.00000000000E+00 0.  1.
         11    1    3    3    0    0 -0.54136084264E+01 -0.34820834005E+01 -0.59059668277E+01  0.87357029158E+01  0.51100000000E-03 0. -1.
        -11    1    3    3    0    0 -0.16278327108E+02 -0.12301293752E+02  0.46201564041E+01  0.20920124447E+02  0.51100000000E-03 0.  1.
         12    1    3    3    0    0  0.32247083657E+02  0.26288856720E+02 -0.10067648546E+02  0.42805793291E+02  0.00000000000E+00 0. -1.
</event>
<event>
 7    1  0.2604986E-013  0.7246156E+02  0.7816164E-02  0.1226708E+00
        -11   -1    0    0    0    0  0.00000000000E+00  0.00000000000E+00  0.45593999997E+02  0.45594000000E+02  0.51100000000E-03 0.  1.
         11   -1    0    0    0    0 -0.00000000000E+00 -0.00000000000E+00 -0.45593999997E+02  0.45594000000E+02  0.51100000000E-03 0. -1.
    9900012    2    1    2    0    0  0.17998778793E+02 -0.25403009318E+01  0.45022606171E+01  0.72461561003E+02  0.69999987896E+02 0.  0.
        -12    1    1    2    0    0 -0.17998778793E+02  0.25403009318E+01 -0.45022606171E+01  0.18726438997E+02  0.00000000000E+00 0.  1.
         11    1    3    3    0    0  0.13462829757E+02 -0.84122546116E+01 -0.59788471426E+01  0.16963502767E+02  0.51100000000E-03 0. -1.
        -11    1    3    3    0    0  0.23104309325E+02 -0.92248138032E+01 -0.70212376422E+01  0.25849643661E+02  0.51100000000E-03 0.  1.
        -12    1    3    3    0    0 -0.18568360289E+02  0.15096767483E+02  0.17502345402E+02  0.29648414575E+02  0.00000000000E+00 0.  1.
</event>
<event>
 7    1  0.2604986E-013  0.7246154E+02  0.7816164E-02  0.1226708E+00
        -11   -1    0    0    0    0  0.00000000000E+00  0.00000000000E+00  0.45593999997E+02  0.45594000000E+02  0.51100000000E-03 0.  1.
         11   -1    0    0    0    0 -0.00000000000E+00 -0.00000000000E+00 -0.45593999997E+02  0.45594000000E+02  0.51100000000E-03 0. -1.
    9900012    2    1    2    0    0 -0.10133902341E+02 -0.29391951229E+01 -0.15470794941E+02  0.72461539023E+02  0.69999959263E+02 0.  0.
        -12    1    1    2    0    0  0.10133902341E+02  0.29391951229E+01  0.15470794941E+02  0.18726460977E+02  0.00000000000E+00 0.  1.
         11    1    3    3    0    0 -0.19066290782E+02 -0.12858248133E+02  0.11282720712E+02  0.25615576826E+02  0.51100000000E-03 0.  1.
        -11    1    3    3    0    0 -0.49796395009E+01  0.18948701355E+02 -0.22277461973E+02  0.29667076108E+02  0.51100000000E-03 0. -1.
         12    1    3    3    0    0  0.13912027942E+02 -0.90296483453E+01 -0.44760536804E+01  0.17178886089E+02  0.00000000000E+00 0. -1.
</event>
<event>
 7    1  0.2604986E-013  0.7246155E+02  0.7816164E-02  0.1226708E+00
        -11   -1    0    0    0    0  0.00000000000E+00  0.00000000000E+00  0.45593999997E+02  0.45594000000E+02  0.51100000000E-03 0. -1.
         11   -1    0    0    0    0 -0.00000000000E+00 -0.00000000000E+00 -0.45593999997E+02  0.45594000000E+02  0.51100000000E-03 0.  1.
    9900012    2    1    2    0    0 -0.12274688826E+02 -0.12653616487E+02  0.63164689041E+01  0.72461554118E+02  0.69999978927E+02 0.  0.
        -12    1    1    2    0    0  0.12274688826E+02  0.12653616487E+02 -0.63164689041E+01  0.18726445882E+02  0.00000000000E+00 0.  1.
         11    1    3    3    0    0 -0.34035234492E+01  0.61700407349E+01 -0.75269777040E+01  0.10310614344E+02  0.51100000000E-03 0. -1.
        -11    1    3    3    0    0 -0.25932171525E+02 -0.21701647069E+02 -0.75391340803E+01  0.34645021987E+02  0.51100000000E-03 0.  1.
         12    1    3    3    0    0  0.17061006149E+02  0.28779898475E+01  0.21382580688E+02  0.27505917786E+02  0.00000000000E+00 0. -1.
</event>
<event>
 7    1  0.2604986E-013  0.7246139E+02  0.7816164E-02  0.1226708E+00
        -11   -1    0    0    0    0  0.00000000000E+00  0.00000000000E+00  0.45593999997E+02  0.45594000000E+02  0.51100000000E-03 0.  1.
         11   -1    0    0    0    0 -0.00000000000E+00 -0.00000000000E+00 -0.45593999997E+02  0.45594000000E+02  0.51100000000E-03 0. -1.
    9900012    2    1    2    0    0 -0.62945551372E+01 -0.16604046660E+02  0.59472708980E+01  0.72461392699E+02  0.69999768649E+02 0.  0.
        -12    1    1    2    0    0  0.62945551372E+01  0.16604046660E+02 -0.59472708980E+01  0.18726607301E+02  0.00000000000E+00 0.  1.
         11    1    3    3    0    0  0.17346996746E+02  0.36196489231E+01  0.23947149978E+02  0.29790705711E+02  0.51100000000E-03 0. -1.
        -11    1    3    3    0    0 -0.39506306688E+01  0.47651231188E+01 -0.61365137301E+01  0.87161162245E+01  0.51100000000E-03 0.  1.
        -12    1    3    3    0    0 -0.19690921214E+02 -0.24988818702E+02 -0.11863365350E+02  0.33954570764E+02  0.00000000000E+00 0.  1.
</event>
<event>
 7    1  0.2604986E-013  0.7246164E+02  0.7816164E-02  0.1226708E+00
        -11   -1    0    0    0    0  0.00000000000E+00  0.00000000000E+00  0.45593999997E+02  0.45594000000E+02  0.51100000000E-03 0. -1.
         11   -1    0    0    0    0 -0.00000000000E+00 -0.00000000000E+00 -0.45593999997E+02  0.45594000000E+02  0.51100000000E-03 0.  1.
    9900012    2    1    2    0    0  0.76780202490E+01  0.92198359289E+01  0.14377737605E+02  0.72461636014E+02  0.70000085612E+02 0.  0.
        -12    1    1    2    0    0 -0.76780202490E+01 -0.92198359289E+01 -0.14377737605E+02  0.18726363986E+02  0.00000000000E+00 0.  1.
         11    1    3    3    0    0  0.81767351258E+01  0.12035213986E+02  0.10132694936E+02  0.17730676240E+02  0.51100000000E-03 0. -1.
        -11    1    3    3    0    0 -0.12268885156E+02  0.23020397060E+02  0.46498945366E+00  0.26089853185E+02  0.51100000000E-03 0.  1.
         12    1    3    3    0    0  0.11770170279E+02 -0.25835775117E+02  0.37800532151E+01  0.28641106589E+02  0.00000000000E+00 0. -1.
</event>
<event>
 7    1  0.2604986E-013  0.7246155E+02  0.7816164E-02  0.1226708E+00
        -11   -1    0    0    0    0  0.00000000000E+00  0.00000000000E+00  0.45593999997E+02  0.45594000000E+02  0.51100000000E-03 0. -1.
         11   -1    0    0    0    0 -0.00000000000E+00 -0.00000000000E+00 -0.45593999997E+02  0.45594000000E+02  0.51100000000E-03 0.  1.
    9900012    2    1    2    0    0  0.14544168218E+02  0.98842996440E+01  0.64379809365E+01  0.72461553269E+02  0.69999977822E+02 0.  0.
        -12    1    1    2    0    0 -0.14544168218E+02 -0.98842996440E+01 -0.64379809365E+01  0.18726446731E+02  0.00000000000E+00 0.  1.
         11    1    3    3    0    0  0.16959552934E+02 -0.99151571743E+01  0.21547731637E+02  0.29158901153E+02  0.51100000000E-03 0. -1.
        -11    1    3    3    0    0  0.91958246325E+01 -0.25911426516E+01 -0.15348770700E+02  0.18079324467E+02  0.51100000000E-03 0.  1.
         12    1    3    3    0    0 -0.11611209348E+02  0.22390599470E+02  0.23901999990E+00  0.25223327649E+02  0.00000000000E+00 0. -1.
</event>
<event>
 7    1  0.2604986E-013  0.7246159E+02  0.7816164E-02  0.1226708E+00
        -11   -1    0    0    0    0  0.00000000000E+00  0.00000000000E+00  0.45593999997E+02  0.45594000000E+02  0.51100000000E-03 0.  1.
         11   -1    0    0    0    0 -0.00000000000E+00 -0.00000000000E+00 -0.45593999997E+02  0.45594000000E+02  0.51100000000E-03 0. -1.
    9900012    2    1    2    0    0  0.12395299578E+02  0.91684424754E+01 -0.10628953700E+02  0.72461589618E+02  0.70000025172E+02 0.  0.
        -12    1    1    2    0    0 -0.12395299578E+02 -0.91684424754E+01  0.10628953700E+02  0.18726410382E+02  0.00000000000E+00 0.  1.
         11    1    3    3    0    0  0.17482409919E+02 -0.16125887463E+02 -0.25980306956E+01  0.23925481537E+02  0.51100000000E-03 0. -1.
        -11    1    3    3    0    0  0.17241115154E+02  0.13628724090E+02  0.36986599592E+00  0.21980331508E+02  0.51100000000E-03 0.  1.
        -12    1    3    3    0    0 -0.22328225495E+02  0.11665605848E+02 -0.84007890000E+01  0.26555776573E+02  0.00000000000E+00 0.  1.
</event>
<event>
 7    1  0.2604986E-013  0.7246166E+02  0.7816164E-02  0.1226708E+00
        -11   -1    0    0    0    0  0.00000000000E+00  0.00000000000E+00  0.45593999997E+02  0.45594000000E+02  0.51100000000E-03 0.  1.
         11   -1    0    0    0    0 -0.00000000000E+00 -0.00000000000E+00 -0.45593999997E+02  0.45594000000E+02  0.51100000000E-03 0. -1.
    9900012    2    1    2    0    0  0.17763102587E+02  0.42949880813E+01  0.40866969296E+01  0.72461659516E+02  0.70000116227E+02 0.  0.
        -12    1    1    2    0    0 -0.17763102587E+02 -0.42949880813E+01 -0.40866969296E+01  0.18726340484E+02  0.00000000000E+00 0.  1.
         11    1    3    3    0    0  0.13365879075E+01 -0.21893022679E+02  0.11858127951E+02  0.24934035133E+02  0.51100000000E-03 0. -1.
        -11    1    3    3    0    0 -0.10870808218E+02  0.10823657705E+02 -0.47455306793E+01  0.16057586964E+02  0.51100000000E-03 0.  1.
        -12    1    3    3    0    0  0.27297322898E+02  0.15364353056E+02 -0.30259003424E+01  0.31470037418E+02  0.00000000000E+00 0.  1.
</event>
<event>
 7    1  0.2604986E-013  0.7246154E+02  0.7816164E-02  0.1226708E+00
        -11   -1    0    0    0    0  0.00000000000E+00  0.00000000000E+00  0.45593999997E+02  0.45594000000E+02  0.51100000000E-03 0.  1.
         11   -1    0    0    0    0 -0.00000000000E+00 -0.00000000000E+00 -0.45593999997E+02  0.45594000000E+02  0.51100000000E-03 0. -1.
    9900012    2    1    2    0    0  0.30524889888E+01 -0.16525605713E+02 -0.82623761799E+01  0.72461542958E+02  0.69999964390E+02 0.  0.
        -12    1    1    2    0    0 -0.30524889888E+01  0.16525605713E+02  0.82623761799E+01  0.18726457042E+02  0.00000000000E+00 0.  1.
         11    1    3    3    0    0  0.13855047913E+02 -0.23402323986E+02 -0.21565866730E+02  0.34709043904E+02  0.51100000000E-03 0. -1.
        -11    1    3    3    0    0  0.10126552311E+02  0.25483030728E+01 -0.30081931486E+01  0.10866928569E+02  0.51100000000E-03 0.  1.
         12    1    3    3    0    0 -0.20929111235E+02  0.43284152007E+01  0.16311683699E+02  0.26885570485E+02  0.00000000000E+00 0. -1.
</event>
<event>
 7    1  0.2604986E-013  0.7246159E+02  0.7816164E-02  0.1226708E+00
        -11   -1    0    0    0    0  0.00000000000E+00  0.00000000000E+00  0.45593999997E+02  0.45594000000E+02  0.51100000000E-03 0.  1.
         11   -1    0    0    0    0 -0.00000000000E+00 -0.00000000000E+00 -0.45593999997E+02  0.45594000000E+02  0.51100000000E-03 0. -1.
    9900012    2    1    2    0    0 -0.15694188564E+02 -0.17592043210E+01 -0.10063594696E+02  0.72461593705E+02  0.70000030497E+02 0.  0.
        -12    1    1    2    0    0  0.15694188564E+02  0.17592043210E+01  0.10063594696E+02  0.18726406295E+02  0.00000000000E+00 0.  1.
         11    1    3    3    0    0 -0.25384615387E+02 -0.43312397401E+01  0.73994328537E+01  0.26793468287E+02  0.51100000000E-03 0. -1.
        -11    1    3    3    0    0  0.12763504810E+02  0.20245151071E+02 -0.71563976245E+01  0.24979736270E+02  0.51100000000E-03 0.  1.
         12    1    3    3    0    0 -0.30730779867E+01 -0.17673115652E+02 -0.10306629925E+02  0.20688389148E+02  0.00000000000E+00 0. -1.
</event>
<event>
 7    1  0.2604986E-013  0.7246163E+02  0.7816164E-02  0.1226708E+00
        -11   -1    0    0    0    0  0.00000000000E+00  0.00000000000E+00  0.45593999997E+02  0.45594000000E+02  0.51100000000E-03 0.  1.
         11   -1    0    0    0    0 -0.00000000000E+00 -0.00000000000E+00 -0.45593999997E+02  0.45594000000E+02  0.51100000000E-03 0. -1.
    9900012    2    1    2    0    0 -0.69029861021E+01 -0.16942080991E+02  0.39989738253E+01  0.72461625095E+02  0.70000071387E+02 0.  0.
        -12    1    1    2    0    0  0.69029861021E+01  0.16942080991E+02 -0.39989738253E+01  0.18726374905E+02  0.00000000000E+00 0.  1.
         11    1    3    3    0    0 -0.10748737964E+01 -0.31482102309E+02 -0.77092844993E+01  0.32430096935E+02  0.51100000000E-03 0. -1.
        -11    1    3    3    0    0  0.26546113220E+01 -0.97078440280E+01 -0.29075890474E+01  0.10475842270E+02  0.51100000000E-03 0.  1.
         12    1    3    3    0    0 -0.84827236277E+01  0.24247865346E+02  0.14615847372E+02  0.29555685889E+02  0.00000000000E+00 0. -1.
</event>
<event>
 7    1  0.2604986E-013  0.7246159E+02  0.7816164E-02  0.1226708E+00
        -11   -1    0    0    0    0  0.00000000000E+00  0.00000000000E+00  0.45593999997E+02  0.45594000000E+02  0.51100000000E-03 0.  1.
         11   -1    0    0    0    0 -0.00000000000E+00 -0.00000000000E+00 -0.45593999997E+02  0.45594000000E+02  0.51100000000E-03 0. -1.
    9900012    2    1    2    0    0  0.14392630670E+02 -0.11955169260E+02  0.77749623161E+00  0.72461591107E+02  0.70000027113E+02 0.  0.
        -12    1    1    2    0    0 -0.14392630670E+02  0.11955169260E+02 -0.77749623161E+00  0.18726408893E+02  0.00000000000E+00 0.  1.
         11    1    3    3    0    0 -0.22069155507E+02 -0.21956888401E+02 -0.33363043012E+01  0.31309479390E+02  0.51100000000E-03 0. -1.
        -11    1    3    3    0    0  0.10839067275E+02 -0.41880894358E+01  0.19529621816E+01  0.11783018886E+02  0.51100000000E-03 0.  1.
        -12    1    3    3    0    0  0.25622718901E+02  0.14189808577E+02  0.21608383512E+01  0.29369092831E+02  0.00000000000E+00 0.  1.
</event>
<event>
 7    1  0.2604986E-013  0.7246159E+02  0.7816164E-02  0.1226708E+00
        -11   -1    0    0    0    0  0.00000000000E+00  0.00000000000E+00  0.45593999997E+02  0.45594000000E+02  0.51100000000E-03 0. -1.
         11   -1    0    0    0    0 -0.00000000000E+00 -0.00000000000E+00 -0.45593999997E+02  0.45594000000E+02  0.51100000000E-03 0.  1.
    9900012    2    1    2    0    0 -0.84058249311E+01 -0.17775048483E+01  0.16639135488E+02  0.72461594951E+02  0.70000032120E+02 0.  0.
        -12    1    1    2    0    0  0.84058249311E+01  0.17775048483E+01 -0.16639135488E+02  0.18726405049E+02  0.00000000000E+00 0.  1.
         11    1    3    3    0    0 -0.14038071384E+02 -0.15491395374E+02  0.20915037627E+01  0.21010120586E+02  0.51100000000E-03 0. -1.
        -11    1    3    3    0    0  0.17686971055E+02 -0.96445881189E+01 -0.22285649009E+01  0.20268535390E+02  0.51100000000E-03 0.  1.
         12    1    3    3    0    0 -0.12054724603E+02  0.23358478644E+02  0.16776196626E+02  0.31182938974E+02  0.00000000000E+00 0. -1.
</event>
<event>
 7    1  0.2604986E-013  0.7246157E+02  0.7816164E-02  0.1226708E+00
        -11   -1    0    0    0    0  0.00000000000E+00  0.00000000000E+00  0.45593999997E+02  0.45594000000E+02  0.51100000000E-03 0. -1.
         11   -1    0    0    0    0 -0.00000000000E+00 -0.00000000000E+00 -0.45593999997E+02  0.45594000000E+02  0.51100000000E-03 0.  1.
    9900012    2    1    2    0    0  0.10448122363E+02 -0.15514661229E+02 -0.90057837143E+00  0.72461574410E+02  0.70000005362E+02 0.  0.
        -12    1    1    2    0    0 -0.10448122363E+02  0.15514661229E+02  0.90057837143E+00  0.18726425590E+02  0.00000000000E+00 0.  1.
         11    1    3    3    0    0  0.10582965311E+02  0.13485925676E+02  0.60966042841E+01  0.18194447784E+02  0.51100000000E-03 0. -1.
        -11    1    3    3    0    0 -0.58203755234E+01  0.70873214365E+00 -0.20368086218E+02  0.21195235525E+02  0.51100000000E-03 0.  1.
        -12    1    3    3    0    0  0.56855325759E+01 -0.29709319048E+02  0.13370903563E+02  0.33071891102E+02  0.00000000000E+00 0.  1.
</event>
<event>
 7    1  0.2604986E-013  0.7246156E+02  0.7816164E-02  0.1226708E+00
        -11   -1    0    0    0    0  0.00000000000E+00  0.00000000000E+00  0.45593999997E+02  0.45594000000E+02  0.51100000000E-03 0. -1.
         11   -1    0    0    0    0 -0.00000000000E+00 -0.00000000000E+00 -0.45593999997E+02  0.45594000000E+02  0.51100000000E-03 0.  1.
    9900012    2    1    2    0    0 -0.29310542327E-01 -0.16651059504E+02  0.85686099649E+01  0.72461555638E+02  0.69999980907E+02 0.  0.
        -12    1    1    2    0    0  0.29310542327E-01  0.16651059504E+02 -0.85686099649E+01  0.18726444362E+02  0.00000000000E+00 0.  1.
         11    1    3    3    0    0 -0.41325132631E+01 -0.62641276069E+01 -0.20257778977E+01  0.77730776979E+01  0.51100000000E-03 0. -1.
        -11    1    3    3    0    0  0.22247614670E+02 -0.26186976340E+02 -0.67637503779E+01  0.35020885308E+02  0.51100000000E-03 0.  1.
         12    1    3    3    0    0 -0.18144411949E+02  0.15800044443E+02  0.17358138241E+02  0.29667592632E+02  0.00000000000E+00 0. -1.
</event>
<event>
 7    1  0.2604986E-013  0.7246156E+02  0.7816164E-02  0.1226708E+00
        -11   -1    0    0    0    0  0.00000000000E+00  0.00000000000E+00  0.45593999997E+02  0.45594000000E+02  0.51100000000E-03 0.  1.
         11   -1    0    0    0    0 -0.00000000000E+00 -0.00000000000E+00 -0.45593999997E+02  0.45594000000E+02  0.51100000000E-03 0. -1.
    9900012    2    1    2    0    0  0.15312505883E+02  0.89150122680E+01  0.60604821055E+01  0.72461555503E+02  0.69999980732E+02 0.  0.
        -12    1    1    2    0    0 -0.15312505883E+02 -0.89150122680E+01 -0.60604821055E+01  0.18726444497E+02  0.00000000000E+00 0.  1.
         11    1    3    3    0    0  0.30590003995E+02 -0.71674306226E+01  0.42768238452E+01  0.31708226514E+02  0.51100000000E-03 0. -1.
        -11    1    3    3    0    0  0.61390465297E+01  0.14256610944E+02  0.91662142576E+01  0.18026600677E+02  0.51100000000E-03 0.  1.
        -12    1    3    3    0    0 -0.21416544642E+02  0.18258319464E+01 -0.73825559974E+01  0.22726728312E+02  0.00000000000E+00 0.  1.
</event>
<event>
 7    1  0.2604986E-013  0.7246151E+02  0.7816164E-02  0.1226708E+00
        -11   -1    0    0    0    0  0.00000000000E+00  0.00000000000E+00  0.45593999997E+02  0.45594000000E+02  0.51100000000E-03 0.  1.
         11   -1    0    0    0    0 -0.00000000000E+00 -0.00000000000E+00 -0.45593999997E+02  0.45594000000E+02  0.51100000000E-03 0. -1.
    9900012    2    1    2    0    0  0.12484189359E+02 -0.13587898847E+02  0.31930139711E+01  0.72461512950E+02  0.69999925298E+02 0.  0.
        -12    1    1    2    0    0 -0.12484189359E+02  0.13587898847E+02 -0.31930139711E+01  0.18726487050E+02  0.00000000000E+00 0.  1.
         11    1    3    3    0    0  0.27289290571E+02 -0.11127492539E+02 -0.10223684817E+01  0.29488501278E+02  0.51100000000E-03 0. -1.
        -11    1    3    3    0    0  0.10872048753E+00  0.17060874633E+02 -0.31002064407E+01  0.17340603901E+02  0.51100000000E-03 0.  1.
        -12    1    3    3    0    0 -0.14913821699E+02 -0.19521280941E+02  0.73155888935E+01  0.25632407771E+02  0.00000000000E+00 0.  1.
</event>
<event>
 7    1  0.2604986E-013  0.7246159E+02  0.7816164E-02  0.1226708E+00
        -11   -1    0    0    0    0  0.00000000000E+00  0.00000000000E+00  0.45593999997E+02  0.45594000000E+02  0.51100000000E-03 0.  1.
         11   -1    0    0    0    0 -0.00000000000E+00 -0.00000000000E+00 -0.45593999997E+02  0.45594000000E+02  0.51100000000E-03 0. -1.
    9900012    2    1    2    0    0 -0.16139888954E+02 -0.95222605968E+00 -0.94485800389E+01  0.72461590449E+02  0.70000026256E+02 0.  0.
        -12    1    1    2    0    0  0.16139888954E+02  0.95222605968E+00  0.94485800389E+01  0.18726409551E+02  0.00000000000E+00 0.  1.
         11    1    3    3    0    0 -0.71460108162E+01  0.14692783314E+02 -0.18024962002E+02  0.24327815511E+02  0.51100000000E-03 0. -1.
        -11    1    3    3    0    0 -0.16736798489E+01  0.12250913410E+02 -0.81356808627E+01  0.14801195457E+02  0.51100000000E-03 0.  1.
        -12    1    3    3    0    0 -0.73201982887E+01 -0.27895922784E+02  0.16712062826E+02  0.33332579481E+02  0.00000000000E+00 0.  1.
</event>
<event>
 7    1  0.2604986E-013  0.7246148E+02  0.7816164E-02  0.1226708E+00
        -11   -1    0    0    0    0  0.00000000000E+00  0.00000000000E+00  0.45593999997E+02  0.45594000000E+02  0.51100000000E-03 0.  1.
         11   -1    0    0    0    0 -0.00000000000E+00 -0.00000000000E+00 -0.45593999997E+02  0.45594000000E+02  0.51100000000E-03 0. -1.
    9900012    2    1    2    0    0  0.38025333542E+01 -0.15650765219E+02 -0.95538822034E+01  0.72461484654E+02  0.69999888437E+02 0.  0.
        -12    1    1    2    0    0 -0.38025333542E+01  0.15650765219E+02  0.95538822034E+01  0.18726515346E+02  0.00000000000E+00 0.  1.
         11    1    3    3    0    0  0.46378069073E+00 -0.31910712700E+02 -0.63025170102E+01  0.32530453401E+02  0.51100000000E-03 0. -1.
        -11    1    3    3    0    0  0.11277905910E+02 -0.50967148344E+01 -0.10278162179E+02  0.16087519444E+02  0.51100000000E-03 0.  1.
        -12    1    3    3    0    0 -0.79391532468E+01  0.21356662315E+02  0.70267969861E+01  0.23843511809E+02  0.00000000000E+00 0.  1.
</event>
<event>
 7    1  0.2604986E-013  0.7246150E+02  0.7816164E-02  0.1226708E+00
        -11   -1    0    0    0    0  0.00000000000E+00  0.00000000000E+00  0.45593999997E+02  0.45594000000E+02  0.51100000000E-03 0.  1.
         11   -1    0    0    0    0 -0.00000000000E+00 -0.00000000000E+00 -0.45593999997E+02  0.45594000000E+02  0.51100000000E-03 0. -1.
    9900012    2    1    2    0    0  0.18579427534E+01 -0.18501642900E+02 -0.22178744924E+01  0.72461502502E+02  0.69999911688E+02 0.  0.
        -12    1    1    2    0    0 -0.18579427534E+01  0.18501642900E+02  0.22178744924E+01  0.18726497498E+02  0.00000000000E+00 0.  1.
         11    1    3    3    0    0 -0.39673951568E+01  0.63350547592E+01  0.25228675791E+02  0.26312719843E+02  0.51100000000E-03 0. -1.
        -11    1    3    3    0    0  0.68775376864E+01  0.55841566238E+00  0.20632707799E+01  0.72020441023E+01  0.51100000000E-03 0.  1.
         12    1    3    3    0    0 -0.10521997761E+01 -0.25395113322E+02 -0.29509821063E+02  0.38946738556E+02  0.00000000000E+00 0. -1.
</event>
<event>
 7    1  0.2604986E-013  0.7246187E+02  0.7816164E-02  0.1226707E+00
        -11   -1    0    0    0    0  0.00000000000E+00  0.00000000000E+00  0.45593999997E+02  0.45594000000E+02  0.51100000000E-03 0. -1.
         11   -1    0    0    0    0 -0.00000000000E+00 -0.00000000000E+00 -0.45593999997E+02  0.45594000000E+02  0.51100000000E-03 0.  1.
    9900012    2    1    2    0    0 -0.14192711858E+01  0.17339735540E+02  0.69272826374E+01  0.72461868418E+02  0.70000388360E+02 0.  0.
        -12    1    1    2    0    0  0.14192711858E+01 -0.17339735540E+02 -0.69272826374E+01  0.18726131582E+02  0.00000000000E+00 0.  1.
         11    1    3    3    0    0 -0.12053557178E+02  0.75172998473E+01  0.43002554969E-01  0.14205628712E+02  0.51100000000E-03 0. -1.
        -11    1    3    3    0    0 -0.15403012954E+02  0.23100752920E+02  0.83453448940E+01  0.28992108843E+02  0.51100000000E-03 0.  1.
         12    1    3    3    0    0  0.26037298946E+02 -0.13278317227E+02 -0.14610648116E+01  0.29264130863E+02  0.00000000000E+00 0. -1.
</event>
<event>
 7    1  0.2604986E-013  0.7246160E+02  0.7816164E-02  0.1226708E+00
        -11   -1    0    0    0    0  0.00000000000E+00  0.00000000000E+00  0.45593999997E+02  0.45594000000E+02  0.51100000000E-03 0. -1.
         11   -1    0    0    0    0 -0.00000000000E+00 -0.00000000000E+00 -0.45593999997E+02  0.45594000000E+02  0.51100000000E-03 0.  1.
    9900012    2    1    2    0    0  0.83805947279E+01  0.27299426841E+01  0.16522440034E+02  0.72461602062E+02  0.70000041383E+02 0.  0.
        -12    1    1    2    0    0 -0.83805947279E+01 -0.27299426841E+01 -0.16522440034E+02  0.18726397938E+02  0.00000000000E+00 0.  1.
         11    1    3    3    0    0 -0.16320977894E+01 -0.24815236278E+01  0.29285994616E+02  0.29436222306E+02  0.51100000000E-03 0. -1.
        -11    1    3    3    0    0 -0.90376583335E+01 -0.22293790988E+01  0.91485798449E+01  0.13051663218E+02  0.51100000000E-03 0.  1.
        -12    1    3    3    0    0  0.19050350851E+02  0.74408454108E+01 -0.21912134427E+02  0.29973716538E+02  0.00000000000E+00 0.  1.
</event>
<event>
 7    1  0.2604986E-013  0.7246162E+02  0.7816164E-02  0.1226708E+00
        -11   -1    0    0    0    0  0.00000000000E+00  0.00000000000E+00  0.45593999997E+02  0.45594000000E+02  0.51100000000E-03 0.  1.
         11   -1    0    0    0    0 -0.00000000000E+00 -0.00000000000E+00 -0.45593999997E+02  0.45594000000E+02  0.51100000000E-03 0. -1.
    9900012    2    1    2    0    0  0.12171343256E+02  0.56939510618E+01 -0.13042799877E+02  0.72461620105E+02  0.70000064887E+02 0.  0.
        -12    1    1    2    0    0 -0.12171343256E+02 -0.56939510618E+01  0.13042799877E+02  0.18726379895E+02  0.00000000000E+00 0.  1.
         11    1    3    3    0    0  0.19636093816E+02 -0.15534182017E+01 -0.24413648048E-01  0.19697458840E+02  0.51100000000E-03 0. -1.
        -11    1    3    3    0    0 -0.75134974312E+00  0.27181462884E+02 -0.15953207048E+02  0.31526199681E+02  0.51100000000E-03 0.  1.
         12    1    3    3    0    0 -0.67134008173E+01 -0.19934093620E+02  0.29348208186E+01  0.21237961584E+02  0.00000000000E+00 0. -1.
</event>
<event>
 7    1  0.2604986E-013  0.7246158E+02  0.7816164E-02  0.1226708E+00
        -11   -1    0    0    0    0  0.00000000000E+00  0.00000000000E+00  0.45593999997E+02  0.45594000000E+02  0.51100000000E-03 0.  1.
         11   -1    0    0    0    0 -0.00000000000E+00 -0.00000000000E+00 -0.45593999997E+02  0.45594000000E+02  0.51100000000E-03 0. -1.
    9900012    2    1    2    0    0  0.46217390165E+00  0.18233529550E+02 -0.42430845211E+01  0.72461575599E+02  0.70000006911E+02 0.  0.
        -12    1    1    2    0    0 -0.46217390165E+00 -0.18233529550E+02  0.42430845211E+01  0.18726424401E+02  0.00000000000E+00 0.  1.
         11    1    3    3    0    0  0.20235132860E+02  0.16788464569E+02 -0.20587111215E+02  0.33393746314E+02  0.51100000000E-03 0. -1.
        -11    1    3    3    0    0  0.13389840216E+01 -0.85402559520E+00 -0.71929926899E+01  0.73662325530E+01  0.51100000000E-03 0.  1.
        -12    1    3    3    0    0 -0.21111942980E+02  0.22990905769E+01  0.23537019384E+02  0.31701596732E+02  0.00000000000E+00 0.  1.
</event>
<event>
 7    1  0.2604986E-013  0.7246163E+02  0.7816164E-02  0.1226708E+00
        -11   -1    0    0    0    0  0.00000000000E+00  0.00000000000E+00  0.45593999997E+02  0.45594000000E+02  0.51100000000E-03 0.  1.
         11   -1    0    0    0    0 -0.00000000000E+00 -0.00000000000E+00 -0.45593999997E+02  0.45594000000E+02  0.51100000000E-03 0. -1.
    9900012    2    1    2    0    0  0.13879147968E+02 -0.40950049738E+00 -0.12564971414E+02  0.72461629673E+02  0.70000077352E+02 0.  0.
        -12    1    1    2    0    0 -0.13879147968E+02  0.40950049738E+00  0.12564971414E+02  0.18726370327E+02  0.00000000000E+00 0.  1.
         11    1    3    3    0    0  0.69935364904E+01  0.72672066057E+01 -0.11353451488E+02  0.15186267002E+02  0.51100000000E-03 0. -1.
        -11    1    3    3    0    0  0.76671155079E+01  0.21136032885E+02  0.12093044851E+02  0.25529556995E+02  0.51100000000E-03 0.  1.
         12    1    3    3    0    0 -0.78150403008E+00 -0.28812739988E+02 -0.13304564776E+02  0.31745805676E+02  0.00000000000E+00 0. -1.
</event>
<event>
 7    1  0.2604986E-013  0.7246157E+02  0.7816164E-02  0.1226708E+00
        -11   -1    0    0    0    0  0.00000000000E+00  0.00000000000E+00  0.45593999997E+02  0.45594000000E+02  0.51100000000E-03 0.  1.
         11   -1    0    0    0    0 -0.00000000000E+00 -0.00000000000E+00 -0.45593999997E+02  0.45594000000E+02  0.51100000000E-03 0. -1.
    9900012    2    1    2    0    0 -0.17440138418E+02  0.34495991455E+01 -0.58839650674E+01  0.72461569288E+02  0.69999998689E+02 0.  0.
        -12    1    1    2    0    0  0.17440138418E+02 -0.34495991455E+01  0.58839650674E+01  0.18726430712E+02  0.00000000000E+00 0.  1.
         11    1    3    3    0    0 -0.24945723853E+02  0.59372261014E+01 -0.12961998987E+02  0.28732441774E+02  0.51100000000E-03 0. -1.
        -11    1    3    3    0    0 -0.69306657483E+01  0.89703667341E+01 -0.12476887547E+02  0.16857471049E+02  0.51100000000E-03 0.  1.
        -12    1    3    3    0    0  0.14436251184E+02 -0.11457993690E+02  0.19554921466E+02  0.26871656465E+02  0.00000000000E+00 0.  1.
</event>
<event>
 7    1  0.2604986E-013  0.7246156E+02  0.7816164E-02  0.1226708E+00
        -11   -1    0    0    0    0  0.00000000000E+00  0.00000000000E+00  0.45593999997E+02  0.45594000000E+02  0.51100000000E-03 0. -1.
         11   -1    0    0    0    0 -0.00000000000E+00 -0.00000000000E+00 -0.45593999997E+02  0.45594000000E+02  0.51100000000E-03 0.  1.
    9900012    2    1    2    0    0 -0.21595180389E+01 -0.18518737505E+02  0.17528554311E+01  0.72461557223E+02  0.69999982972E+02 0.  0.
        -12    1    1    2    0    0  0.21595180389E+01  0.18518737505E+02 -0.17528554311E+01  0.18726442777E+02  0.00000000000E+00 0.  1.
         11    1    3    3    0    0  0.56528807634E+01 -0.19588386706E+01  0.53352220523E+01  0.80160279734E+01  0.51100000000E-03 0. -1.
        -11    1    3    3    0    0  0.12905103764E+02 -0.50573150953E+01  0.24225588417E+02  0.27910522631E+02  0.51100000000E-03 0.  1.
         12    1    3    3    0    0 -0.20717502566E+02 -0.11502583739E+02 -0.27807955038E+02  0.36535006619E+02  0.00000000000E+00 0. -1.
</event>
<event>
 7    1  0.2604986E-013  0.7246159E+02  0.7816164E-02  0.1226708E+00
        -11   -1    0    0    0    0  0.00000000000E+00  0.00000000000E+00  0.45593999997E+02  0.45594000000E+02  0.51100000000E-03 0.  1.
         11   -1    0    0    0    0 -0.00000000000E+00 -0.00000000000E+00 -0.45593999997E+02  0.45594000000E+02  0.51100000000E-03 0. -1.
    9900012    2    1    2    0    0  0.64462300194E+01 -0.98463968938E+01 -0.14566157161E+02  0.72461592238E+02  0.70000028585E+02 0.  0.
        -12    1    1    2    0    0 -0.64462300194E+01  0.98463968938E+01  0.14566157161E+02  0.18726407762E+02  0.00000000000E+00 0.  1.
         11    1    3    3    0    0 -0.13836828760E+02 -0.13542573006E+02 -0.10391723167E+02  0.21973780385E+02  0.51100000000E-03 0. -1.
        -11    1    3    3    0    0  0.74144146154E+01 -0.18106702494E+02  0.94596392613E+01  0.21732717145E+02  0.51100000000E-03 0.  1.
        -12    1    3    3    0    0  0.12868644164E+02  0.21802878606E+02 -0.13634073255E+02  0.28755094708E+02  0.00000000000E+00 0.  1.
</event>
<event>
 7    1  0.2604986E-013  0.7246162E+02  0.7816164E-02  0.1226708E+00
        -11   -1    0    0    0    0  0.00000000000E+00  0.00000000000E+00  0.45593999997E+02  0.45594000000E+02  0.51100000000E-03 0. -1.
         11   -1    0    0    0    0 -0.00000000000E+00 -0.00000000000E+00 -0.45593999997E+02  0.45594000000E+02  0.51100000000E-03 0.  1.
    9900012    2    1    2    0    0  0.53738389844E+01  0.10432856065E-01  0.17938756481E+02  0.72461621857E+02  0.70000067169E+02 0.  0.
        -12    1    1    2    0    0 -0.53738389844E+01 -0.10432856065E-01 -0.17938756481E+02  0.18726378143E+02  0.00000000000E+00 0.  1.
         11    1    3    3    0    0 -0.24284871904E+01 -0.15553056817E+01  0.14813076647E+02  0.15091181724E+02  0.51100000000E-03 0. -1.
        -11    1    3    3    0    0  0.44784250718E+01  0.19237600666E+02  0.23167283312E+02  0.30444450837E+02  0.51100000000E-03 0.  1.
        -12    1    3    3    0    0  0.33239011031E+01 -0.17671862128E+02 -0.20041603477E+02  0.26925989296E+02  0.00000000000E+00 0.  1.
</event>
<event>
 7    1  0.2604986E-013  0.7246134E+02  0.7816164E-02  0.1226709E+00
        -11   -1    0    0    0    0  0.00000000000E+00  0.00000000000E+00  0.45593999997E+02  0.45594000000E+02  0.51100000000E-03 0.  1.
         11   -1    0    0    0    0 -0.00000000000E+00 -0.00000000000E+00 -0.45593999997E+02  0.45594000000E+02  0.51100000000E-03 0. -1.
    9900012    2    1    2    0    0 -0.96419124253E+01 -0.74013820582E+01 -0.14245736248E+02  0.72461336313E+02  0.69999695196E+02 0.  0.
        -12    1    1    2    0    0  0.96419124253E+01  0.74013820582E+01  0.14245736248E+02  0.18726663687E+02  0.00000000000E+00 0.  1.
         11    1    3    3    0    0  0.97900609117E+01 -0.49699611543E+01 -0.31766806657E+02  0.33610650276E+02  0.51100000000E-03 0. -1.
        -11    1    3    3    0    0  0.13611643921E+01  0.43981256004E+01  0.16292195050E+02  0.16930206647E+02  0.51100000000E-03 0.  1.
        -12    1    3    3    0    0 -0.20793137729E+02 -0.68295465043E+01  0.12288753596E+01  0.21920479391E+02  0.00000000000E+00 0.  1.
</event>
<event>
 7    1  0.2604986E-013  0.7246157E+02  0.7816164E-02  0.1226708E+00
        -11   -1    0    0    0    0  0.00000000000E+00  0.00000000000E+00  0.45593999997E+02  0.45594000000E+02  0.51100000000E-03 0.  1.
         11   -1    0    0    0    0 -0.00000000000E+00 -0.00000000000E+00 -0.45593999997E+02  0.45594000000E+02  0.51100000000E-03 0. -1.
    9900012    2    1    2    0    0  0.71786947940E+01 -0.16593735594E+02  0.48778434369E+01  0.72461572778E+02  0.70000003235E+02 0.  0.
        -12    1    1    2    0    0 -0.71786947940E+01  0.16593735594E+02 -0.48778434369E+01  0.18726427222E+02  0.00000000000E+00 0.  1.
         11    1    3    3    0    0 -0.21158987323E+02  0.10314063804E+02  0.13572541093E+01  0.23578057504E+02  0.51100000000E-03 0. -1.
        -11    1    3    3    0    0 -0.60589987047E+01 -0.46345314323E+01  0.19569763757E+01  0.78752843566E+01  0.51100000000E-03 0.  1.
         12    1    3    3    0    0  0.34396680822E+02 -0.22273267966E+02  0.15636129519E+01  0.41008230917E+02  0.00000000000E+00 0. -1.
</event>
<event>
 7    1  0.2604986E-013  0.7246161E+02  0.7816164E-02  0.1226708E+00
        -11   -1    0    0    0    0  0.00000000000E+00  0.00000000000E+00  0.45593999997E+02  0.45594000000E+02  0.51100000000E-03 0. -1.
         11   -1    0    0    0    0 -0.00000000000E+00 -0.00000000000E+00 -0.45593999997E+02  0.45594000000E+02  0.51100000000E-03 0.  1.
    9900012    2    1    2    0    0 -0.62930237685E+01 -0.15140701191E+02  0.90462446866E+01  0.72461614240E+02  0.70000057247E+02 0.  0.
        -12    1    1    2    0    0  0.62930237685E+01  0.15140701191E+02 -0.90462446866E+01  0.18726385760E+02  0.00000000000E+00 0.  1.
         11    1    3    3    0    0  0.20140181660E+02  0.53822750864E+01  0.11497931886E+00  0.20847278549E+02  0.51100000000E-03 0. -1.
        -11    1    3    3    0    0  0.41622443602E+01 -0.88557529278E+01 -0.98348599721E+01  0.13873467806E+02  0.51100000000E-03 0.  1.
         12    1    3    3    0    0 -0.30595449788E+02 -0.11667223349E+02  0.18766125340E+02  0.37740867885E+02  0.00000000000E+00 0. -1.
</event>
<event>
 7    1  0.2604986E-013  0.7246160E+02  0.7816164E-02  0.1226708E+00
        -11   -1    0    0    0    0  0.00000000000E+00  0.00000000000E+00  0.45593999997E+02  0.45594000000E+02  0.51100000000E-03 0.  1.
         11   -1    0    0    0    0 -0.00000000000E+00 -0.00000000000E+00 -0.45593999997E+02  0.45594000000E+02  0.51100000000E-03 0. -1.
    9900012    2    1    2    0    0 -0.19501310668E+01 -0.13442214314E+02 -0.12891157056E+02  0.72461599730E+02  0.70000038345E+02 0.  0.
        -12    1    1    2    0    0  0.19501310668E+01  0.13442214314E+02  0.12891157056E+02  0.18726400270E+02  0.00000000000E+00 0.  1.
         11    1    3    3    0    0 -0.17607161940E+02  0.52420092632E+01 -0.70798690644E+01  0.19687949587E+02  0.51100000000E-03 0. -1.
        -11    1    3    3    0    0 -0.15565536278E+02  0.43185904413E+00 -0.42021439171E+01  0.16128559627E+02  0.51100000000E-03 0.  1.
        -12    1    3    3    0    0  0.31222567152E+02 -0.19116082621E+02 -0.16091440744E+01  0.36645090517E+02  0.00000000000E+00 0.  1.
</event>
<event>
 7    1  0.2604986E-013  0.7246158E+02  0.7816164E-02  0.1226708E+00
        -11   -1    0    0    0    0  0.00000000000E+00  0.00000000000E+00  0.45593999997E+02  0.45594000000E+02  0.51100000000E-03 0. -1.
         11   -1    0    0    0    0 -0.00000000000E+00 -0.00000000000E+00 -0.45593999997E+02  0.45594000000E+02  0.51100000000E-03 0.  1.
    9900012    2    1    2    0    0  0.52220536817E+01 -0.17259830041E+02 -0.50504782093E+01  0.72461577282E+02  0.70000009102E+02 0.  0.
        -12    1    1    2    0    0 -0.52220536817E+01  0.17259830041E+02  0.50504782093E+01  0.18726422718E+02  0.00000000000E+00 0.  1.
         11    1    3    3    0    0 -0.58886902500E+00  0.12170802586E+02 -0.23034673560E+01  0.12400853375E+02  0.51100000000E-03 0. -1.
        -11    1    3    3    0    0  0.19665526141E+02  0.66929332657E+01 -0.47869790707E+01  0.21317679118E+02  0.51100000000E-03 0.  1.
         12    1    3    3    0    0 -0.13854603435E+02 -0.36123565892E+02  0.20399682174E+01  0.38743044788E+02  0.00000000000E+00 0. -1.
</event>
<event>
 7    1  0.2604986E-013  0.7246151E+02  0.7816164E-02  0.1226708E+00
        -11   -1    0    0    0    0  0.00000000000E+00  0.00000000000E+00  0.45593999997E+02  0.45594000000E+02  0.51100000000E-03 0.  1.
         11   -1    0    0    0    0 -0.00000000000E+00 -0.00000000000E+00 -0.45593999997E+02  0.45594000000E+02  0.51100000000E-03 0. -1.
    9900012    2    1    2    0    0  0.64993474748E+01 -0.59247008877E+01 -0.16532931363E+02  0.72461510269E+02  0.69999921806E+02 0.  0.
        -12    1    1    2    0    0 -0.64993474748E+01  0.59247008877E+01  0.16532931363E+02  0.18726489731E+02  0.00000000000E+00 0.  1.
         11    1    3    3    0    0  0.23526342035E+02  0.17459535104E+02 -0.35541202742E+01  0.29511962096E+02  0.51100000000E-03 0. -1.
        -11    1    3    3    0    0  0.74890608155E+01 -0.44173140986E+01 -0.74792125923E+01  0.11468971925E+02  0.51100000000E-03 0.  1.
        -12    1    3    3    0    0 -0.24516055376E+02 -0.18966921893E+02 -0.54995984961E+01  0.31480576248E+02  0.00000000000E+00 0.  1.
</event>
<event>
 7    1  0.2604986E-013  0.7246156E+02  0.7816164E-02  0.1226708E+00
        -11   -1    0    0    0    0  0.00000000000E+00  0.00000000000E+00  0.45593999997E+02  0.45594000000E+02  0.51100000000E-03 0. -1.
         11   -1    0    0    0    0 -0.00000000000E+00 -0.00000000000E+00 -0.45593999997E+02  0.45594000000E+02  0.51100000000E-03 0.  1.
    9900012    2    1    2    0    0  0.76340430743E+00  0.94810071452E+01  0.16130946150E+02  0.72461555962E+02  0.69999981329E+02 0.  0.
        -12    1    1    2    0    0 -0.76340430743E+00 -0.94810071452E+01 -0.16130946150E+02  0.18726444038E+02  0.00000000000E+00 0.  1.
         11    1    3    3    0    0 -0.48107463482E+01 -0.87851915656E+01 -0.50299284764E+01  0.11208168986E+02  0.51100000000E-03 0. -1.
        -11    1    3    3    0    0 -0.15729569959E+02  0.26455970979E+02  0.99150413468E+00  0.30794818594E+02  0.51100000000E-03 0.  1.
         12    1    3    3    0    0  0.21303720615E+02 -0.81897722680E+01  0.20169370492E+02  0.30458568382E+02  0.00000000000E+00 0. -1.
</event>
<event>
 7    1  0.2604986E-013  0.7246156E+02  0.7816164E-02  0.1226708E+00
        -11   -1    0    0    0    0  0.00000000000E+00  0.00000000000E+00  0.45593999997E+02  0.45594000000E+02  0.51100000000E-03 0.  1.
         11   -1    0    0    0    0 -0.00000000000E+00 -0.00000000000E+00 -0.45593999997E+02  0.45594000000E+02  0.51100000000E-03 0. -1.
    9900012    2    1    2    0    0  0.57628270555E+01 -0.16863912709E+02 -0.57513272714E+01  0.72461561660E+02  0.69999988752E+02 0.  0.
        -12    1    1    2    0    0 -0.57628270555E+01  0.16863912709E+02  0.57513272714E+01  0.18726438340E+02  0.00000000000E+00 0.  1.
         11    1    3    3    0    0 -0.50494431488E+01  0.15747365313E+01 -0.17655747920E+02  0.18431009363E+02  0.51100000000E-03 0. -1.
        -11    1    3    3    0    0 -0.18196023297E+02 -0.14653447211E+02  0.68193975349E+01  0.24337686044E+02  0.51100000000E-03 0.  1.
        -12    1    3    3    0    0  0.29008293501E+02 -0.37852020287E+01  0.50850231135E+01  0.29692866253E+02  0.00000000000E+00 0.  1.
</event>
<event>
 7    1  0.2604986E-013  0.7246159E+02  0.7816164E-02  0.1226708E+00
        -11   -1    0    0    0    0  0.00000000000E+00  0.00000000000E+00  0.45593999997E+02  0.45594000000E+02  0.51100000000E-03 0.  1.
         11   -1    0    0    0    0 -0.00000000000E+00 -0.00000000000E+00 -0.45593999997E+02  0.45594000000E+02  0.51100000000E-03 0. -1.
    9900012    2    1    2    0    0 -0.58649751485E+01  0.14236260344E+02 -0.10658774473E+02  0.72461587761E+02  0.70000022753E+02 0.  0.
        -12    1    1    2    0    0  0.58649751485E+01 -0.14236260344E+02  0.10658774473E+02  0.18726412239E+02  0.00000000000E+00 0.  1.
         11    1    3    3    0    0 -0.22910405381E+02  0.37218840437E+01 -0.29015245111E+02  0.37156742924E+02  0.51100000000E-03 0. -1.
        -11    1    3    3    0    0 -0.43581759297E+00  0.10497780558E+02  0.81243964603E+00  0.10538187323E+02  0.51100000000E-03 0.  1.
        -12    1    3    3    0    0  0.17481247826E+02  0.16595742835E-01  0.17544030992E+02  0.24766657514E+02  0.00000000000E+00 0.  1.
</event>
<event>
 7    1  0.2604986E-013  0.7246157E+02  0.7816164E-02  0.1226708E+00
        -11   -1    0    0    0    0  0.00000000000E+00  0.00000000000E+00  0.45593999997E+02  0.45594000000E+02  0.51100000000E-03 0.  1.
         11   -1    0    0    0    0 -0.00000000000E+00 -0.00000000000E+00 -0.45593999997E+02  0.45594000000E+02  0.51100000000E-03 0. -1.
    9900012    2    1    2    0    0  0.53933804688E+01 -0.42833222581E+01 -0.17413895905E+02  0.72461570200E+02  0.69999999877E+02 0.  0.
        -12    1    1    2    0    0 -0.53933804688E+01  0.42833222581E+01  0.17413895905E+02  0.18726429800E+02  0.00000000000E+00 0.  1.
         11    1    3    3    0    0 -0.19304055614E+01  0.28738907047E+02 -0.17444171635E+02  0.33674179548E+02  0.51100000000E-03 0. -1.
        -11    1    3    3    0    0  0.59024992986E+01 -0.11047193603E+01 -0.29669665578E+01  0.66979693677E+01  0.51100000000E-03 0.  1.
        -12    1    3    3    0    0  0.14212867316E+01 -0.31917509945E+02  0.29972422875E+01  0.32089421285E+02  0.00000000000E+00 0.  1.
</event>
<event>
 7    1  0.2604986E-013  0.7246159E+02  0.7816164E-02  0.1226708E+00
        -11   -1    0    0    0    0  0.00000000000E+00  0.00000000000E+00  0.45593999997E+02  0.45594000000E+02  0.51100000000E-03 0. -1.
         11   -1    0    0    0    0 -0.00000000000E+00 -0.00000000000E+00 -0.45593999997E+02  0.45594000000E+02  0.51100000000E-03 0.  1.
    9900012    2    1    2    0    0  0.13063443881E+02  0.74881246263E+01  0.11133419692E+02  0.72461585220E+02  0.70000019444E+02 0.  0.
        -12    1    1    2    0    0 -0.13063443881E+02 -0.74881246263E+01 -0.11133419692E+02  0.18726414780E+02  0.00000000000E+00 0.  1.
         11    1    3    3    0    0 -0.28919667273E+00  0.13095937426E+02 -0.26254793023E+02  0.29341120781E+02  0.51100000000E-03 0. -1.
        -11    1    3    3    0    0 -0.31678267572E+01  0.47032871292E+00  0.25732795065E+01  0.41082968663E+01  0.51100000000E-03 0.  1.
         12    1    3    3    0    0  0.16520467311E+02 -0.60781415131E+01  0.34814933208E+02  0.39012167573E+02  0.00000000000E+00 0. -1.
</event>
<event>
 7    1  0.2604986E-013  0.7246157E+02  0.7816164E-02  0.1226708E+00
        -11   -1    0    0    0    0  0.00000000000E+00  0.00000000000E+00  0.45593999997E+02  0.45594000000E+02  0.51100000000E-03 0.  1.
         11   -1    0    0    0    0 -0.00000000000E+00 -0.00000000000E+00 -0.45593999997E+02  0.45594000000E+02  0.51100000000E-03 0. -1.
    9900012    2    1    2    0    0  0.77028524155E+01 -0.77051528762E+00 -0.17051442399E+02  0.72461566356E+02  0.69999994870E+02 0.  0.
        -12    1    1    2    0    0 -0.77028524155E+01  0.77051528762E+00  0.17051442399E+02  0.18726433644E+02  0.00000000000E+00 0.  1.
         11    1    3    3    0    0 -0.31392306264E+01 -0.23240921681E+02 -0.79619540110E+01  0.24766669567E+02  0.51100000000E-03 0. -1.
        -11    1    3    3    0    0 -0.76678088665E+00 -0.11101842189E+02 -0.39173427002E+01  0.11797644977E+02  0.51100000000E-03 0.  1.
        -12    1    3    3    0    0  0.11608863929E+02  0.33572248583E+02 -0.51721456876E+01  0.35897251812E+02  0.00000000000E+00 0.  1.
</event>
<event>
 7    1  0.2604986E-013  0.7246158E+02  0.7816164E-02  0.1226708E+00
        -11   -1    0    0    0    0  0.00000000000E+00  0.00000000000E+00  0.45593999997E+02  0.45594000000E+02  0.51100000000E-03 0.  1.
         11   -1    0    0    0    0 -0.00000000000E+00 -0.00000000000E+00 -0.45593999997E+02  0.45594000000E+02  0.51100000000E-03 0. -1.
    9900012    2    1    2    0    0 -0.82555566927E+01  0.15394807798E+02 -0.67471752697E+01  0.72461582895E+02  0.70000016415E+02 0.  0.
        -12    1    1    2    0    0  0.82555566927E+01 -0.15394807798E+02  0.67471752697E+01  0.18726417105E+02  0.00000000000E+00 0.  1.
         11    1    3    3    0    0 -0.13995428096E+02  0.26669023438E+00  0.17001301282E+02  0.22022428949E+02  0.51100000000E-03 0. -1.
        -11    1    3    3    0    0 -0.74351906836E+01 -0.78955006627E+01  0.44515680939E+01  0.11723371954E+02  0.51100000000E-03 0.  1.
         12    1    3    3    0    0  0.13175062087E+02  0.23023618227E+02 -0.28200044646E+02  0.38715781992E+02  0.00000000000E+00 0. -1.
</event>
<event>
 7    1  0.2604986E-013  0.7246140E+02  0.7816164E-02  0.1226708E+00
        -11   -1    0    0    0    0  0.00000000000E+00  0.00000000000E+00  0.45593999997E+02  0.45594000000E+02  0.51100000000E-03 0.  1.
         11   -1    0    0    0    0 -0.00000000000E+00 -0.00000000000E+00 -0.45593999997E+02  0.45594000000E+02  0.51100000000E-03 0. -1.
    9900012    2    1    2    0    0 -0.75371249462E+01 -0.36310323966E+01 -0.16753895972E+02  0.72461396492E+02  0.69999773590E+02 0.  0.
        -12    1    1    2    0    0  0.75371249462E+01  0.36310323966E+01  0.16753895972E+02  0.18726603508E+02  0.00000000000E+00 0.  1.
         11    1    3    3    0    0 -0.61662756816E+01  0.89146668969E+01  0.14160203053E+02  0.17832711304E+02  0.51100000000E-03 0.  1.
        -11    1    3    3    0    0  0.19250071197E+02 -0.69197371960E+01 -0.25288367809E+02  0.32526136424E+02  0.51100000000E-03 0. -1.
         12    1    3    3    0    0 -0.20620920461E+02 -0.56259620975E+01 -0.56257312155E+01  0.22102548765E+02  0.00000000000E+00 0. -1.
</event>
<event>
 7    1  0.2604986E-013  0.7246156E+02  0.7816164E-02  0.1226708E+00
        -11   -1    0    0    0    0  0.00000000000E+00  0.00000000000E+00  0.45593999997E+02  0.45594000000E+02  0.51100000000E-03 0.  1.
         11   -1    0    0    0    0 -0.00000000000E+00 -0.00000000000E+00 -0.45593999997E+02  0.45594000000E+02  0.51100000000E-03 0. -1.
    9900012    2    1    2    0    0  0.15029555412E+02 -0.11170881914E+02  0.58984151889E-01  0.72461558327E+02  0.69999984410E+02 0.  0.
        -12    1    1    2    0    0 -0.15029555412E+02  0.11170881914E+02 -0.58984151889E-01  0.18726441673E+02  0.00000000000E+00 0.  1.
         11    1    3    3    0    0  0.36494580958E+01  0.78584305682E+01  0.12272871637E+01  0.87509833408E+01  0.51100000000E-03 0. -1.
        -11    1    3    3    0    0 -0.20509145549E+02  0.62830515737E+01  0.62154122161E+01  0.22332333902E+02  0.51100000000E-03 0.  1.
         12    1    3    3    0    0  0.31889242865E+02 -0.25312364056E+02 -0.73837152279E+01  0.41378241084E+02  0.00000000000E+00 0. -1.
</event>
<event>
 7    1  0.2604986E-013  0.7246155E+02  0.7816164E-02  0.1226708E+00
        -11   -1    0    0    0    0  0.00000000000E+00  0.00000000000E+00  0.45593999997E+02  0.45594000000E+02  0.51100000000E-03 0. -1.
         11   -1    0    0    0    0 -0.00000000000E+00 -0.00000000000E+00 -0.45593999997E+02  0.45594000000E+02  0.51100000000E-03 0.  1.
    9900012    2    1    2    0    0  0.31765859667E+01  0.81572194697E+00  0.18437026982E+02  0.72461546395E+02  0.69999968866E+02 0.  0.
        -12    1    1    2    0    0 -0.31765859667E+01 -0.81572194697E+00 -0.18437026982E+02  0.18726453605E+02  0.00000000000E+00 0.  1.
         11    1    3    3    0    0  0.61807398531E+01 -0.18162216862E+01  0.80505694297E+01  0.10310764993E+02  0.51100000000E-03 0. -1.
        -11    1    3    3    0    0  0.18452199711E+02 -0.21529621795E+02  0.92197933539E+01  0.29816318997E+02  0.51100000000E-03 0.  1.
         12    1    3    3    0    0 -0.21456353597E+02  0.24161565428E+02  0.11666641982E+01  0.32334462404E+02  0.00000000000E+00 0. -1.
</event>
<event>
 7    1  0.2604986E-013  0.7246174E+02  0.7816164E-02  0.1226708E+00
        -11   -1    0    0    0    0  0.00000000000E+00  0.00000000000E+00  0.45593999997E+02  0.45594000000E+02  0.51100000000E-03 0. -1.
         11   -1    0    0    0    0 -0.00000000000E+00 -0.00000000000E+00 -0.45593999997E+02  0.45594000000E+02  0.51100000000E-03 0.  1.
    9900012    2    1    2    0    0  0.50307013934E+01  0.14925141403E+02 -0.10129413986E+02  0.72461739559E+02  0.70000220498E+02 0.  0.
        -12    1    1    2    0    0 -0.50307013934E+01 -0.14925141403E+02  0.10129413986E+02  0.18726260441E+02  0.00000000000E+00 0.  1.
         11    1    3    3    0    0 -0.65935026570E+01  0.40463083810E+00  0.95387944243E+01  0.11602870452E+02  0.51100000000E-03 0. -1.
        -11    1    3    3    0    0  0.11839688036E+02 -0.19627689526E+02 -0.39250133709E+01  0.23255754968E+02  0.51100000000E-03 0.  1.
         12    1    3    3    0    0 -0.21548398610E+00  0.34148200091E+02 -0.15743195040E+02  0.37603114138E+02  0.00000000000E+00 0. -1.
</event>
<event>
 7    1  0.2604986E-013  0.7246211E+02  0.7816164E-02  0.1226707E+00
        -11   -1    0    0    0    0  0.00000000000E+00  0.00000000000E+00  0.45593999997E+02  0.45594000000E+02  0.51100000000E-03 0. -1.
         11   -1    0    0    0    0 -0.00000000000E+00 -0.00000000000E+00 -0.45593999997E+02  0.45594000000E+02  0.51100000000E-03 0.  1.
    9900012    2    1    2    0    0  0.18149355112E+02  0.14756406796E+01  0.43683515133E+01  0.72462106128E+02  0.70000698019E+02 0.  0.
        -12    1    1    2    0    0 -0.18149355112E+02 -0.14756406796E+01 -0.43683515133E+01  0.18725893872E+02  0.00000000000E+00 0.  1.
         11    1    3    3    0    0 -0.28836719422E+01  0.85184834370E+01 -0.18414866806E+02  0.20493595187E+02  0.51100000000E-03 0. -1.
        -11    1    3    3    0    0  0.18791306347E+02 -0.77413824067E+01 -0.74487752388E+01  0.21645471781E+02  0.51100000000E-03 0.  1.
         12    1    3    3    0    0  0.22417207068E+01  0.69853964925E+00  0.30231993558E+02  0.30323039160E+02  0.00000000000E+00 0. -1.
</event>
<event>
 7    1  0.2604986E-013  0.7246160E+02  0.7816164E-02  0.1226708E+00
        -11   -1    0    0    0    0  0.00000000000E+00  0.00000000000E+00  0.45593999997E+02  0.45594000000E+02  0.51100000000E-03 0. -1.
         11   -1    0    0    0    0 -0.00000000000E+00 -0.00000000000E+00 -0.45593999997E+02  0.45594000000E+02  0.51100000000E-03 0.  1.
    9900012    2    1    2    0    0  0.15183617214E+02  0.57626743910E+01  0.93234958703E+01  0.72461595564E+02  0.70000032919E+02 0.  0.
        -12    1    1    2    0    0 -0.15183617214E+02 -0.57626743910E+01 -0.93234958703E+01  0.18726404436E+02  0.00000000000E+00 0.  1.
         11    1    3    3    0    0  0.23658817983E+02 -0.15084962168E+02  0.24752370934E+02  0.37416248063E+02  0.51100000000E-03 0. -1.
        -11    1    3    3    0    0  0.10347082844E+01  0.54558514800E+01  0.51991008780E+01  0.76070747864E+01  0.51100000000E-03 0.  1.
        -12    1    3    3    0    0 -0.95099090535E+01  0.15391785079E+02 -0.20627975942E+02  0.27438272715E+02  0.00000000000E+00 0.  1.
</event>
<event>
 7    1  0.2604986E-013  0.7246156E+02  0.7816164E-02  0.1226708E+00
        -11   -1    0    0    0    0  0.00000000000E+00  0.00000000000E+00  0.45593999997E+02  0.45594000000E+02  0.51100000000E-03 0.  1.
         11   -1    0    0    0    0 -0.00000000000E+00 -0.00000000000E+00 -0.45593999997E+02  0.45594000000E+02  0.51100000000E-03 0. -1.
    9900012    2    1    2    0    0 -0.13395273397E+02 -0.13007248514E+02 -0.14345038737E+01  0.72461557074E+02  0.69999982778E+02 0.  0.
        -12    1    1    2    0    0  0.13395273397E+02  0.13007248514E+02  0.14345038737E+01  0.18726442926E+02  0.00000000000E+00 0.  1.
         11    1    3    3    0    0  0.17219707473E+02 -0.96173257185E+01  0.27627393835E+01  0.19915923494E+02  0.51100000000E-03 0.  1.
        -11    1    3    3    0    0 -0.60480521683E+01 -0.16167428958E+02 -0.14954342311E+02  0.22838499258E+02  0.51100000000E-03 0. -1.
         12    1    3    3    0    0 -0.24566928702E+02  0.12777506163E+02  0.10757099054E+02  0.29707134322E+02  0.00000000000E+00 0. -1.
</event>
<event>
 7    1  0.2604986E-013  0.7246167E+02  0.7816164E-02  0.1226708E+00
        -11   -1    0    0    0    0  0.00000000000E+00  0.00000000000E+00  0.45593999997E+02  0.45594000000E+02  0.51100000000E-03 0. -1.
         11   -1    0    0    0    0 -0.00000000000E+00 -0.00000000000E+00 -0.45593999997E+02  0.45594000000E+02  0.51100000000E-03 0.  1.
    9900012    2    1    2    0    0  0.77785856460E+00 -0.75399652917E+01  0.17123643007E+02  0.72461673868E+02  0.70000134924E+02 0.  0.
        -12    1    1    2    0    0 -0.77785856460E+00  0.75399652917E+01 -0.17123643007E+02  0.18726326132E+02  0.00000000000E+00 0.  1.
         11    1    3    3    0    0 -0.18178250837E+02 -0.29128406482E+02  0.14336898681E+02  0.37208326107E+02  0.51100000000E-03 0. -1.
        -11    1    3    3    0    0 -0.27823827397E+01  0.39195485948E+01  0.52666580079E+01  0.71303717807E+01  0.51100000000E-03 0.  1.
        -12    1    3    3    0    0  0.21738492141E+02  0.17668892595E+02 -0.24799136819E+01  0.28122975980E+02  0.00000000000E+00 0.  1.
</event>
<event>
 7    1  0.2604986E-013  0.7246157E+02  0.7816164E-02  0.1226708E+00
        -11   -1    0    0    0    0  0.00000000000E+00  0.00000000000E+00  0.45593999997E+02  0.45594000000E+02  0.51100000000E-03 0.  1.
         11   -1    0    0    0    0 -0.00000000000E+00 -0.00000000000E+00 -0.45593999997E+02  0.45594000000E+02  0.51100000000E-03 0. -1.
    9900012    2    1    2    0    0 -0.36822794098E+01 -0.11334548106E+02 -0.14444652354E+02  0.72461570974E+02  0.70000000886E+02 0.  0.
        -12    1    1    2    0    0  0.36822794098E+01  0.11334548106E+02  0.14444652354E+02  0.18726429026E+02  0.00000000000E+00 0.  1.
         11    1    3    3    0    0 -0.30594495309E+01 -0.43504767679E+01 -0.16765541999E+02  0.17588924876E+02  0.51100000000E-03 0. -1.
        -11    1    3    3    0    0  0.19880549712E+02  0.37897768739E+01 -0.15628121444E+02  0.25570233587E+02  0.51100000000E-03 0.  1.
         12    1    3    3    0    0 -0.20503379591E+02 -0.10773848212E+02  0.17949011088E+02  0.29302412511E+02  0.00000000000E+00 0. -1.
</event>
<event>
 7    1  0.2604986E-013  0.7246144E+02  0.7816164E-02  0.1226708E+00
        -11   -1    0    0    0    0  0.00000000000E+00  0.00000000000E+00  0.45593999997E+02  0.45594000000E+02  0.51100000000E-03 0.  1.
         11   -1    0    0    0    0 -0.00000000000E+00 -0.00000000000E+00 -0.45593999997E+02  0.45594000000E+02  0.51100000000E-03 0. -1.
    9900012    2    1    2    0    0 -0.13486572200E+02  0.80711290704E+01  0.10181026254E+02  0.72461439991E+02  0.69999830256E+02 0.  0.
        -12    1    1    2    0    0  0.13486572200E+02 -0.80711290704E+01 -0.10181026254E+02  0.18726560009E+02  0.00000000000E+00 0.  1.
         11    1    3    3    0    0 -0.14576735329E+02 -0.91883860635E+01 -0.90269278937E+01  0.19452328364E+02  0.51100000000E-03 0. -1.
        -11    1    3    3    0    0 -0.16113411710E+02  0.25282799892E+02  0.82697446910E+01  0.31100654090E+02  0.51100000000E-03 0.  1.
         12    1    3    3    0    0  0.17203574839E+02 -0.80232847582E+01  0.10938209456E+02  0.21908457537E+02  0.00000000000E+00 0. -1.
</event>
<event>
 7    1  0.2604986E-013  0.7246158E+02  0.7816164E-02  0.1226708E+00
        -11   -1    0    0    0    0  0.00000000000E+00  0.00000000000E+00  0.45593999997E+02  0.45594000000E+02  0.51100000000E-03 0.  1.
         11   -1    0    0    0    0 -0.00000000000E+00 -0.00000000000E+00 -0.45593999997E+02  0.45594000000E+02  0.51100000000E-03 0. -1.
    9900012    2    1    2    0    0 -0.47515041200E+01 -0.70558822615E+00 -0.18099840766E+02  0.72461577974E+02  0.70000010004E+02 0.  0.
        -12    1    1    2    0    0  0.47515041200E+01  0.70558822615E+00  0.18099840766E+02  0.18726422026E+02  0.00000000000E+00 0.  1.
         11    1    3    3    0    0 -0.13943998555E+02 -0.45226543724E+01 -0.17509624526E+02  0.22835858853E+02  0.51100000000E-03 0. -1.
        -11    1    3    3    0    0  0.34012988275E+01 -0.15017948430E+02 -0.17748483859E+02  0.23497154898E+02  0.51100000000E-03 0.  1.
         12    1    3    3    0    0  0.57911956074E+01  0.18835014576E+02  0.17158267618E+02  0.26128564222E+02  0.00000000000E+00 0. -1.
</event>
<event>
 7    1  0.2604986E-013  0.7246163E+02  0.7816164E-02  0.1226708E+00
        -11   -1    0    0    0    0  0.00000000000E+00  0.00000000000E+00  0.45593999997E+02  0.45594000000E+02  0.51100000000E-03 0.  1.
         11   -1    0    0    0    0 -0.00000000000E+00 -0.00000000000E+00 -0.45593999997E+02  0.45594000000E+02  0.51100000000E-03 0. -1.
    9900012    2    1    2    0    0 -0.15594895191E+02  0.49782341431E+01 -0.90935823488E+01  0.72461633264E+02  0.70000082029E+02 0.  0.
        -12    1    1    2    0    0  0.15594895191E+02 -0.49782341431E+01  0.90935823488E+01  0.18726366736E+02  0.00000000000E+00 0.  1.
         11    1    3    3    0    0  0.75560789755E+01 -0.16292338569E+02  0.12292672463E+02  0.21763373407E+02  0.51100000000E-03 0. -1.
        -11    1    3    3    0    0 -0.14660482220E+02  0.12059175988E+02  0.65503908894E+01  0.20081361644E+02  0.51100000000E-03 0.  1.
         12    1    3    3    0    0 -0.84904919470E+01  0.92113967247E+01 -0.27936645701E+02  0.30616898212E+02  0.00000000000E+00 0. -1.
</event>
<event>
 7    1  0.2604986E-013  0.7246159E+02  0.7816164E-02  0.1226708E+00
        -11   -1    0    0    0    0  0.00000000000E+00  0.00000000000E+00  0.45593999997E+02  0.45594000000E+02  0.51100000000E-03 0.  1.
         11   -1    0    0    0    0 -0.00000000000E+00 -0.00000000000E+00 -0.45593999997E+02  0.45594000000E+02  0.51100000000E-03 0. -1.
    9900012    2    1    2    0    0  0.86176900925E+01  0.58743347068E+00 -0.16615320689E+02  0.72461587044E+02  0.70000021819E+02 0.  0.
        -12    1    1    2    0    0 -0.86176900925E+01 -0.58743347068E+00  0.16615320689E+02  0.18726412956E+02  0.00000000000E+00 0.  1.
         11    1    3    3    0    0  0.11278976955E+02  0.33050407938E+01 -0.88291427247E+00  0.11786354554E+02  0.51100000000E-03 0. -1.
        -11    1    3    3    0    0  0.14629051097E+01 -0.30368446951E+02 -0.54542386954E+01  0.30889017167E+02  0.51100000000E-03 0.  1.
         12    1    3    3    0    0 -0.41241919718E+01  0.27650839628E+02 -0.10278167721E+02  0.29786215323E+02  0.00000000000E+00 0. -1.
</event>
<event>
 7    1  0.2604986E-013  0.7246152E+02  0.7816164E-02  0.1226708E+00
        -11   -1    0    0    0    0  0.00000000000E+00  0.00000000000E+00  0.45593999997E+02  0.45594000000E+02  0.51100000000E-03 0. -1.
         11   -1    0    0    0    0 -0.00000000000E+00 -0.00000000000E+00 -0.45593999997E+02  0.45594000000E+02  0.51100000000E-03 0.  1.
    9900012    2    1    2    0    0 -0.48653039972E+01 -0.14900579964E+02 -0.10246103066E+02  0.72461518902E+02  0.69999933052E+02 0.  0.
        -12    1    1    2    0    0  0.48653039972E+01  0.14900579964E+02  0.10246103066E+02  0.18726481098E+02  0.00000000000E+00 0.  1.
         11    1    3    3    0    0 -0.77513969592E+01  0.45283275568E+01 -0.22756661575E+02  0.24463351193E+02  0.51100000000E-03 0. -1.
        -11    1    3    3    0    0  0.12602566177E+02 -0.51898476338E+01 -0.11914314870E+02  0.18102764755E+02  0.51100000000E-03 0.  1.
        -12    1    3    3    0    0 -0.97164732149E+01 -0.14239059887E+02  0.24424873379E+02  0.29895402954E+02  0.00000000000E+00 0.  1.
</event>
<event>
 7    1  0.2604986E-013  0.7246157E+02  0.7816164E-02  0.1226708E+00
        -11   -1    0    0    0    0  0.00000000000E+00  0.00000000000E+00  0.45593999997E+02  0.45594000000E+02  0.51100000000E-03 0.  1.
         11   -1    0    0    0    0 -0.00000000000E+00 -0.00000000000E+00 -0.45593999997E+02  0.45594000000E+02  0.51100000000E-03 0. -1.
    9900012    2    1    2    0    0 -0.15863946176E+02  0.24816803772E+01 -0.96361544968E+01  0.72461574840E+02  0.70000005922E+02 0.  0.
        -12    1    1    2    0    0  0.15863946176E+02 -0.24816803772E+01  0.96361544968E+01  0.18726425160E+02  0.00000000000E+00 0.  1.
         11    1    3    3    0    0 -0.13087182943E+01 -0.12004510940E+02  0.27707472606E+01  0.12389433689E+02  0.51100000000E-03 0. -1.
        -11    1    3    3    0    0 -0.25304501367E+02 -0.10837780736E+02 -0.16745956913E+02  0.32221147620E+02  0.51100000000E-03 0.  1.
        -12    1    3    3    0    0  0.10749273485E+02  0.25323972054E+02  0.43390551560E+01  0.27850993532E+02  0.00000000000E+00 0.  1.
</event>
<event>
 7    1  0.2604986E-013  0.7246152E+02  0.7816164E-02  0.1226708E+00
        -11   -1    0    0    0    0  0.00000000000E+00  0.00000000000E+00  0.45593999997E+02  0.45594000000E+02  0.51100000000E-03 0. -1.
         11   -1    0    0    0    0 -0.00000000000E+00 -0.00000000000E+00 -0.45593999997E+02  0.45594000000E+02  0.51100000000E-03 0.  1.
    9900012    2    1    2    0    0 -0.66509519125E+01 -0.16362608408E+02 -0.62218211108E+01  0.72461516796E+02  0.69999930309E+02 0.  0.
        -12    1    1    2    0    0  0.66509519125E+01  0.16362608408E+02  0.62218211108E+01  0.18726483204E+02  0.00000000000E+00 0.  1.
         11    1    3    3    0    0 -0.58607404969E+01 -0.13701549309E+02 -0.36407272746E+01  0.15340652789E+02  0.51100000000E-03 0. -1.
        -11    1    3    3    0    0  0.20667575986E+01  0.21128446534E+02 -0.18660844942E+02  0.28264993793E+02  0.51100000000E-03 0.  1.
         12    1    3    3    0    0 -0.28569690142E+01 -0.23789505633E+02  0.16079751105E+02  0.28855870214E+02  0.00000000000E+00 0. -1.
</event>
<event>
 7    1  0.2604986E-013  0.7246167E+02  0.7816164E-02  0.1226708E+00
        -11   -1    0    0    0    0  0.00000000000E+00  0.00000000000E+00  0.45593999997E+02  0.45594000000E+02  0.51100000000E-03 0.  1.
         11   -1    0    0    0    0 -0.00000000000E+00 -0.00000000000E+00 -0.45593999997E+02  0.45594000000E+02  0.51100000000E-03 0. -1.
    9900012    2    1    2    0    0  0.14964583686E+02  0.69150275418E+01 -0.88836335198E+01  0.72461673203E+02  0.70000134057E+02 0.  0.
        -12    1    1    2    0    0 -0.14964583686E+02 -0.69150275418E+01  0.88836335198E+01  0.18726326797E+02  0.00000000000E+00 0.  1.
         11    1    3    3    0    0 -0.82961859508E+01 -0.11986552289E+02 -0.30192553005E+02  0.33527516972E+02  0.51100000000E-03 0. -1.
        -11    1    3    3    0    0  0.37160351717E+01  0.52020614216E+01  0.11442780268E+02  0.13107539088E+02  0.51100000000E-03 0.  1.
        -12    1    3    3    0    0  0.19544734465E+02  0.13699518410E+02  0.98661392168E+01  0.25826617142E+02  0.00000000000E+00 0.  1.
</event>
<event>
 7    1  0.2604986E-013  0.7246156E+02  0.7816164E-02  0.1226708E+00
        -11   -1    0    0    0    0  0.00000000000E+00  0.00000000000E+00  0.45593999997E+02  0.45594000000E+02  0.51100000000E-03 0.  1.
         11   -1    0    0    0    0 -0.00000000000E+00 -0.00000000000E+00 -0.45593999997E+02  0.45594000000E+02  0.51100000000E-03 0. -1.
    9900012    2    1    2    0    0  0.16476739017E+02 -0.73426751667E+01  0.50280889405E+01  0.72461561854E+02  0.69999989005E+02 0.  0.
        -12    1    1    2    0    0 -0.16476739017E+02  0.73426751667E+01 -0.50280889405E+01  0.18726438146E+02  0.00000000000E+00 0.  1.
         11    1    3    3    0    0  0.25146464854E+02  0.10300244486E+02  0.15709414802E+02  0.31388301082E+02  0.51100000000E-03 0. -1.
        -11    1    3    3    0    0  0.88294864862E+01 -0.65822302679E+01  0.76602345526E+01  0.13415095250E+02  0.51100000000E-03 0.  1.
        -12    1    3    3    0    0 -0.17499212323E+02 -0.11060689385E+02 -0.18341560414E+02  0.27658165522E+02  0.00000000000E+00 0.  1.
</event>
<event>
 7    1  0.2604986E-013  0.7246157E+02  0.7816164E-02  0.1226708E+00
        -11   -1    0    0    0    0  0.00000000000E+00  0.00000000000E+00  0.45593999997E+02  0.45594000000E+02  0.51100000000E-03 0.  1.
         11   -1    0    0    0    0 -0.00000000000E+00 -0.00000000000E+00 -0.45593999997E+02  0.45594000000E+02  0.51100000000E-03 0. -1.
    9900012    2    1    2    0    0 -0.17742826032E+02  0.35655625454E+01  0.48122830749E+01  0.72461570008E+02  0.69999999626E+02 0.  0.
        -12    1    1    2    0    0  0.17742826032E+02 -0.35655625454E+01 -0.48122830749E+01  0.18726429992E+02  0.00000000000E+00 0.  1.
         11    1    3    3    0    0  0.50172375025E+00 -0.10973725503E+02  0.14052722353E+02  0.17836854653E+02  0.51100000000E-03 0. -1.
        -11    1    3    3    0    0  0.15400270277E+02  0.12047626194E+02  0.33321639522E+00  0.19555680886E+02  0.51100000000E-03 0.  1.
         12    1    3    3    0    0 -0.33644820059E+02  0.24916618545E+01 -0.95736556733E+01  0.35069034468E+02  0.00000000000E+00 0. -1.
</event>
<event>
 7    1  0.2604986E-013  0.7246155E+02  0.7816164E-02  0.1226708E+00
        -11   -1    0    0    0    0  0.00000000000E+00  0.00000000000E+00  0.45593999997E+02  0.45594000000E+02  0.51100000000E-03 0.  1.
         11   -1    0    0    0    0 -0.00000000000E+00 -0.00000000000E+00 -0.45593999997E+02  0.45594000000E+02  0.51100000000E-03 0. -1.
    9900012    2    1    2    0    0  0.17987700931E+02  0.51524159675E+01  0.75832947110E+00  0.72461552427E+02  0.69999976725E+02 0.  0.
        -12    1    1    2    0    0 -0.17987700931E+02 -0.51524159675E+01 -0.75832947110E+00  0.18726447573E+02  0.00000000000E+00 0.  1.
         11    1    3    3    0    0 -0.18265642269E+00 -0.27973768421E+02  0.12268793839E+02  0.30546495471E+02  0.51100000000E-03 0. -1.
        -11    1    3    3    0    0  0.26535602484E+01  0.36189085618E+01 -0.69404742866E+01  0.82648693126E+01  0.51100000000E-03 0.  1.
        -12    1    3    3    0    0  0.15516797106E+02  0.29507275827E+02 -0.45699900813E+01  0.33650187644E+02  0.00000000000E+00 0.  1.
</event>
<event>
 7    1  0.2604986E-013  0.7246175E+02  0.7816164E-02  0.1226708E+00
        -11   -1    0    0    0    0  0.00000000000E+00  0.00000000000E+00  0.45593999997E+02  0.45594000000E+02  0.51100000000E-03 0. -1.
         11   -1    0    0    0    0 -0.00000000000E+00 -0.00000000000E+00 -0.45593999997E+02  0.45594000000E+02  0.51100000000E-03 0.  1.
    9900012    2    1    2    0    0 -0.15287576461E+02  0.53635798372E+01  0.93911888139E+01  0.72461750774E+02  0.70000235108E+02 0.  0.
        -12    1    1    2    0    0  0.15287576461E+02 -0.53635798372E+01 -0.93911888139E+01  0.18726249226E+02  0.00000000000E+00 0.  1.
         11    1    3    3    0    0  0.64945090783E+01  0.26588178608E+01 -0.74003676007E+01  0.10198696067E+02  0.51100000000E-03 0.  1.
        -11    1    3    3    0    0 -0.14796311783E+02 -0.22719484287E+02  0.22561965002E+02  0.35272483237E+02  0.51100000000E-03 0. -1.
         12    1    3    3    0    0 -0.69857737566E+01  0.25424246263E+02 -0.57704085878E+01  0.26990571470E+02  0.00000000000E+00 0. -1.
</event>
<event>
 7    1  0.2604986E-013  0.7246157E+02  0.7816164E-02  0.1226708E+00
        -11   -1    0    0    0    0  0.00000000000E+00  0.00000000000E+00  0.45593999997E+02  0.45594000000E+02  0.51100000000E-03 0. -1.
         11   -1    0    0    0    0 -0.00000000000E+00 -0.00000000000E+00 -0.45593999997E+02  0.45594000000E+02  0.51100000000E-03 0.  1.
    9900012    2    1    2    0    0 -0.92293137911E+00  0.16434658836E+02  0.89291217485E+01  0.72461574058E+02  0.70000004902E+02 0.  0.
        -12    1    1    2    0    0  0.92293137911E+00 -0.16434658836E+02 -0.89291217485E+01  0.18726425942E+02  0.00000000000E+00 0.  1.
         11    1    3    3    0    0  0.30998888300E+01  0.26938996804E+02  0.11169675412E+02  0.29327129226E+02  0.51100000000E-03 0. -1.
        -11    1    3    3    0    0 -0.30568927028E+00  0.13792381892E+02  0.86148171589E+01  0.16264634000E+02  0.51100000000E-03 0.  1.
        -12    1    3    3    0    0 -0.37171309389E+01 -0.24296719861E+02 -0.10855370823E+02  0.26869810832E+02  0.00000000000E+00 0.  1.
</event>
<event>
 7    1  0.2604986E-013  0.7246159E+02  0.7816164E-02  0.1226708E+00
        -11   -1    0    0    0    0  0.00000000000E+00  0.00000000000E+00  0.45593999997E+02  0.45594000000E+02  0.51100000000E-03 0.  1.
         11   -1    0    0    0    0 -0.00000000000E+00 -0.00000000000E+00 -0.45593999997E+02  0.45594000000E+02  0.51100000000E-03 0. -1.
    9900012    2    1    2    0    0  0.28225168824E+01  0.33100508516E+01 -0.18214158008E+02  0.72461585764E+02  0.70000020153E+02 0.  0.
        -12    1    1    2    0    0 -0.28225168824E+01 -0.33100508516E+01  0.18214158008E+02  0.18726414236E+02  0.00000000000E+00 0.  1.
         11    1    3    3    0    0  0.21017895117E+02  0.15367621744E+02  0.67728397971E+01  0.26903291107E+02  0.51100000000E-03 0. -1.
        -11    1    3    3    0    0  0.34637235115E+01 -0.21824172404E+01  0.55141648827E+01  0.68677754907E+01  0.51100000000E-03 0.  1.
        -12    1    3    3    0    0 -0.21659101746E+02 -0.98751536523E+01 -0.30501162688E+02  0.38690519167E+02  0.00000000000E+00 0.  1.
</event>
<event>
 7    1  0.2604986E-013  0.7246154E+02  0.7816164E-02  0.1226708E+00
        -11   -1    0    0    0    0  0.00000000000E+00  0.00000000000E+00  0.45593999997E+02  0.45594000000E+02  0.51100000000E-03 0.  1.
         11   -1    0    0    0    0 -0.00000000000E+00 -0.00000000000E+00 -0.45593999997E+02  0.45594000000E+02  0.51100000000E-03 0. -1.
    9900012    2    1    2    0    0 -0.14270448930E+02 -0.37145061022E+01 -0.11542834278E+02  0.72461540339E+02  0.69999960978E+02 0.  0.
        -12    1    1    2    0    0  0.14270448930E+02  0.37145061022E+01  0.11542834278E+02  0.18726459661E+02  0.00000000000E+00 0.  1.
         11    1    3    3    0    0 -0.36086676978E+02  0.28356085928E+01  0.70161409377E+01  0.36871603780E+02  0.51100000000E-03 0. -1.
        -11    1    3    3    0    0  0.96967742418E+00 -0.82721852275E+01 -0.12145564895E+01  0.84169157340E+01  0.51100000000E-03 0.  1.
        -12    1    3    3    0    0  0.20846550623E+02  0.17220705325E+01 -0.17344418726E+02  0.27173020825E+02  0.00000000000E+00 0.  1.
</event>
<event>
 7    1  0.2604986E-013  0.7246156E+02  0.7816164E-02  0.1226708E+00
        -11   -1    0    0    0    0  0.00000000000E+00  0.00000000000E+00  0.45593999997E+02  0.45594000000E+02  0.51100000000E-03 0.  1.
         11   -1    0    0    0    0 -0.00000000000E+00 -0.00000000000E+00 -0.45593999997E+02  0.45594000000E+02  0.51100000000E-03 0. -1.
    9900012    2    1    2    0    0 -0.13784833178E+01  0.27582887204E+01 -0.18470822383E+02  0.72461557401E+02  0.69999983204E+02 0.  0.
        -12    1    1    2    0    0  0.13784833178E+01 -0.27582887204E+01  0.18470822383E+02  0.18726442599E+02  0.00000000000E+00 0.  1.
         11    1    3    3    0    0 -0.14896128249E+02  0.68744256585E+01  0.92359234875E+00  0.16431840677E+02  0.51100000000E-03 0. -1.
        -11    1    3    3    0    0 -0.78131207047E+01  0.17869392846E+02 -0.15968082662E+02  0.25205946124E+02  0.51100000000E-03 0.  1.
        -12    1    3    3    0    0  0.21330765636E+02 -0.21985529785E+02 -0.34263320700E+01  0.30823770600E+02  0.00000000000E+00 0.  1.
</event>
<event>
 7    1  0.2604986E-013  0.7246153E+02  0.7816164E-02  0.1226708E+00
        -11   -1    0    0    0    0  0.00000000000E+00  0.00000000000E+00  0.45593999997E+02  0.45594000000E+02  0.51100000000E-03 0.  1.
         11   -1    0    0    0    0 -0.00000000000E+00 -0.00000000000E+00 -0.45593999997E+02  0.45594000000E+02  0.51100000000E-03 0. -1.
    9900012    2    1    2    0    0 -0.15715359700E+01 -0.18356736054E+02 -0.33528002352E+01  0.72461528007E+02  0.69999944913E+02 0.  0.
        -12    1    1    2    0    0  0.15715359700E+01  0.18356736054E+02  0.33528002352E+01  0.18726471993E+02  0.00000000000E+00 0.  1.
         11    1    3    3    0    0  0.21772382229E+01 -0.11154498297E+02 -0.27112571419E+02  0.29398209601E+02  0.51100000000E-03 0. -1.
        -11    1    3    3    0    0 -0.96620794601E+01  0.93666613435E+01 -0.52704029706E-01  0.13457076287E+02  0.51100000000E-03 0.  1.
        -12    1    3    3    0    0  0.59133052672E+01 -0.16568899101E+02  0.23812475214E+02  0.29606242119E+02  0.00000000000E+00 0.  1.
</event>
<event>
 7    1  0.2604986E-013  0.7246156E+02  0.7816164E-02  0.1226708E+00
        -11   -1    0    0    0    0  0.00000000000E+00  0.00000000000E+00  0.45593999997E+02  0.45594000000E+02  0.51100000000E-03 0. -1.
         11   -1    0    0    0    0 -0.00000000000E+00 -0.00000000000E+00 -0.45593999997E+02  0.45594000000E+02  0.51100000000E-03 0.  1.
    9900012    2    1    2    0    0 -0.15948027172E+02  0.72881462733E+01  0.65744272841E+01  0.72461555039E+02  0.69999980127E+02 0.  0.
        -12    1    1    2    0    0  0.15948027172E+02 -0.72881462733E+01 -0.65744272841E+01  0.18726444961E+02  0.00000000000E+00 0.  1.
         11    1    3    3    0    0 -0.52383629887E+01  0.10455006699E+02  0.62996465217E+01  0.13282814402E+02  0.51100000000E-03 0. -1.
        -11    1    3    3    0    0 -0.18756540170E+02  0.15889553246E+02  0.19161364489E+02  0.31167989843E+02  0.51100000000E-03 0.  1.
        -12    1    3    3    0    0  0.80468759865E+01 -0.19056413672E+02 -0.18886583727E+02  0.28010750794E+02  0.00000000000E+00 0.  1.
</event>
<event>
 7    1  0.2604986E-013  0.7246161E+02  0.7816164E-02  0.1226708E+00
        -11   -1    0    0    0    0  0.00000000000E+00  0.00000000000E+00  0.45593999997E+02  0.45594000000E+02  0.51100000000E-03 0. -1.
         11   -1    0    0    0    0 -0.00000000000E+00 -0.00000000000E+00 -0.45593999997E+02  0.45594000000E+02  0.51100000000E-03 0.  1.
    9900012    2    1    2    0    0 -0.16487084371E+02 -0.77495298648E+01  0.43357182871E+01  0.72461611741E+02  0.70000053992E+02 0.  0.
        -12    1    1    2    0    0  0.16487084371E+02  0.77495298648E+01 -0.43357182871E+01  0.18726388259E+02  0.00000000000E+00 0.  1.
         11    1    3    3    0    0 -0.17821217769E+01  0.14510800172E+02  0.17559972688E+02  0.22849330860E+02  0.51100000000E-03 0. -1.
        -11    1    3    3    0    0 -0.11153135783E+02 -0.17716674984E+02  0.11732094070E+02  0.23998229972E+02  0.51100000000E-03 0.  1.
        -12    1    3    3    0    0 -0.35518268113E+01 -0.45436550531E+01 -0.24956348471E+02  0.25614050909E+02  0.00000000000E+00 0.  1.
</event>
<event>
 7    1  0.2604986E-013  0.7246202E+02  0.7816164E-02  0.1226707E+00
        -11   -1    0    0    0    0  0.00000000000E+00  0.00000000000E+00  0.45593999997E+02  0.45594000000E+02  0.51100000000E-03 0.  1.
         11   -1    0    0    0    0 -0.00000000000E+00 -0.00000000000E+00 -0.45593999997E+02  0.45594000000E+02  0.51100000000E-03 0. -1.
    9900012    2    1    2    0    0 -0.12622098820E+02 -0.10041900004E+02 -0.95134210858E+01  0.72462020318E+02  0.70000586237E+02 0.  0.
        -12    1    1    2    0    0  0.12622098820E+02  0.10041900004E+02  0.95134210858E+01  0.18725979682E+02  0.00000000000E+00 0.  1.
         11    1    3    3    0    0  0.98701096172E+01 -0.46658910071E+01 -0.16478229573E+02  0.19766680370E+02  0.51100000000E-03 0. -1.
        -11    1    3    3    0    0 -0.15932574670E+02 -0.24902058049E+02  0.11294329109E+02  0.31646821341E+02  0.51100000000E-03 0.  1.
         12    1    3    3    0    0 -0.65596337668E+01  0.19526049052E+02 -0.43295206223E+01  0.21048518607E+02  0.00000000000E+00 0. -1.
</event>
<event>
 7    1  0.2604986E-013  0.7246161E+02  0.7816164E-02  0.1226708E+00
        -11   -1    0    0    0    0  0.00000000000E+00  0.00000000000E+00  0.45593999997E+02  0.45594000000E+02  0.51100000000E-03 0.  1.
         11   -1    0    0    0    0 -0.00000000000E+00 -0.00000000000E+00 -0.45593999997E+02  0.45594000000E+02  0.51100000000E-03 0. -1.
    9900012    2    1    2    0    0  0.14564543280E+02 -0.11542000442E+02 -0.23095282056E+01  0.72461611782E+02  0.70000054045E+02 0.  0.
        -12    1    1    2    0    0 -0.14564543280E+02  0.11542000442E+02  0.23095282056E+01  0.18726388218E+02  0.00000000000E+00 0.  1.
         11    1    3    3    0    0  0.14929487826E+02  0.24335559767E+02 -0.92483048672E+01  0.30010668421E+02  0.51100000000E-03 0. -1.
        -11    1    3    3    0    0  0.62413785853E+01 -0.15842967524E+01 -0.12983167786E+01  0.65688986568E+01  0.51100000000E-03 0.  1.
        -12    1    3    3    0    0 -0.66063231306E+01 -0.34293263456E+02  0.82370934402E+01  0.35882044704E+02  0.00000000000E+00 0.  1.
</event>
<event>
 7    1  0.2604986E-013  0.7246159E+02  0.7816164E-02  0.1226708E+00
        -11   -1    0    0    0    0  0.00000000000E+00  0.00000000000E+00  0.45593999997E+02  0.45594000000E+02  0.51100000000E-03 0. -1.
         11   -1    0    0    0    0 -0.00000000000E+00 -0.00000000000E+00 -0.45593999997E+02  0.45594000000E+02  0.51100000000E-03 0.  1.
    9900012    2    1    2    0    0 -0.13424862206E+02  0.80938407931E+01  0.10244090617E+02  0.72461586126E+02  0.70000020623E+02 0.  0.
        -12    1    1    2    0    0  0.13424862206E+02 -0.80938407931E+01 -0.10244090617E+02  0.18726413874E+02  0.00000000000E+00 0.  1.
         11    1    3    3    0    0 -0.35114470821E+02 -0.83911215859E+01  0.27925382316E+01  0.36210982485E+02  0.51100000000E-03 0. -1.
        -11    1    3    3    0    0 -0.26824050502E+01 -0.30349370180E+01  0.21256141183E+01  0.45743169105E+01  0.51100000000E-03 0.  1.
        -12    1    3    3    0    0  0.24372013666E+02  0.19519899397E+02  0.53259382671E+01  0.31676286730E+02  0.00000000000E+00 0.  1.
</event>
<event>
 7    1  0.2604986E-013  0.7246158E+02  0.7816164E-02  0.1226708E+00
        -11   -1    0    0    0    0  0.00000000000E+00  0.00000000000E+00  0.45593999997E+02  0.45594000000E+02  0.51100000000E-03 0.  1.
         11   -1    0    0    0    0 -0.00000000000E+00 -0.00000000000E+00 -0.45593999997E+02  0.45594000000E+02  0.51100000000E-03 0. -1.
    9900012    2    1    2    0    0  0.12435602267E+02 -0.99245425541E+01 -0.98761423572E+01  0.72461576516E+02  0.70000008105E+02 0.  0.
        -12    1    1    2    0    0 -0.12435602267E+02  0.99245425541E+01  0.98761423572E+01  0.18726423484E+02  0.00000000000E+00 0.  1.
         11    1    3    3    0    0  0.22635278522E+02  0.13111031632E+02  0.20101741069E+02  0.32989922378E+02  0.51100000000E-03 0.  1.
        -11    1    3    3    0    0 -0.50184685617E+01 -0.75905120561E+01 -0.13663375691E+02  0.16416112071E+02  0.51100000000E-03 0. -1.
        -12    1    3    3    0    0 -0.51812076941E+01 -0.15445062130E+02 -0.16314507736E+02  0.23055542067E+02  0.00000000000E+00 0.  1.
</event>
<event>
 7    1  0.2604986E-013  0.7246166E+02  0.7816164E-02  0.1226708E+00
        -11   -1    0    0    0    0  0.00000000000E+00  0.00000000000E+00  0.45593999997E+02  0.45594000000E+02  0.51100000000E-03 0.  1.
         11   -1    0    0    0    0 -0.00000000000E+00 -0.00000000000E+00 -0.45593999997E+02  0.45594000000E+02  0.51100000000E-03 0. -1.
    9900012    2    1    2    0    0 -0.16663033751E+02  0.81431349115E+01 -0.25900757637E+01  0.72461659396E+02  0.70000116071E+02 0.  0.
        -12    1    1    2    0    0  0.16663033751E+02 -0.81431349115E+01  0.25900757637E+01  0.18726340604E+02  0.00000000000E+00 0.  1.
         11    1    3    3    0    0 -0.75237724567E+00  0.17885249349E+02 -0.45350212454E+01  0.18466581540E+02  0.51100000000E-03 0. -1.
        -11    1    3    3    0    0 -0.30352921868E+02 -0.10631704826E+02 -0.11586218559E+02  0.34184403961E+02  0.51100000000E-03 0.  1.
         12    1    3    3    0    0  0.14442265363E+02  0.88959038836E+00  0.13531164041E+02  0.19810673895E+02  0.00000000000E+00 0. -1.
</event>
<event>
 7    1  0.2604986E-013  0.7246151E+02  0.7816164E-02  0.1226708E+00
        -11   -1    0    0    0    0  0.00000000000E+00  0.00000000000E+00  0.45593999997E+02  0.45594000000E+02  0.51100000000E-03 0. -1.
         11   -1    0    0    0    0 -0.00000000000E+00 -0.00000000000E+00 -0.45593999997E+02  0.45594000000E+02  0.51100000000E-03 0.  1.
    9900012    2    1    2    0    0 -0.84736406773E+01 -0.16658440469E+02  0.11727680540E+01  0.72461505130E+02  0.69999915112E+02 0.  0.
        -12    1    1    2    0    0  0.84736406773E+01  0.16658440469E+02 -0.11727680540E+01  0.18726494870E+02  0.00000000000E+00 0.  1.
         11    1    3    3    0    0  0.26713012505E+02 -0.61304533462E+01 -0.33532173928E+01  0.27611801145E+02  0.51100000000E-03 0. -1.
        -11    1    3    3    0    0 -0.16094581508E+01  0.45866962040E+01 -0.48351153628E+01  0.68561270729E+01  0.51100000000E-03 0.  1.
         12    1    3    3    0    0 -0.33577195031E+02 -0.15114683327E+02  0.93611008095E+01  0.37993576913E+02  0.00000000000E+00 0. -1.
</event>
<event>
 7    1  0.2604986E-013  0.7246147E+02  0.7816164E-02  0.1226708E+00
        -11   -1    0    0    0    0  0.00000000000E+00  0.00000000000E+00  0.45593999997E+02  0.45594000000E+02  0.51100000000E-03 0. -1.
         11   -1    0    0    0    0 -0.00000000000E+00 -0.00000000000E+00 -0.45593999997E+02  0.45594000000E+02  0.51100000000E-03 0.  1.
    9900012    2    1    2    0    0 -0.40297038766E+01  0.75369001824E+00  0.18272281931E+02  0.72461472053E+02  0.69999872022E+02 0.  0.
        -12    1    1    2    0    0  0.40297038766E+01 -0.75369001824E+00 -0.18272281931E+02  0.18726527947E+02  0.00000000000E+00 0.  1.
         11    1    3    3    0    0 -0.45308414415E+01 -0.45695228398E+01  0.19072746371E+02  0.20129051581E+02  0.51100000000E-03 0. -1.
        -11    1    3    3    0    0 -0.89773485827E+01 -0.16346612668E+02  0.14961731141E+02  0.23909369132E+02  0.51100000000E-03 0.  1.
        -12    1    3    3    0    0  0.94784861476E+01  0.21669825526E+02 -0.15762195580E+02  0.28423051340E+02  0.00000000000E+00 0.  1.
</event>
<event>
 7    1  0.2604986E-013  0.7246157E+02  0.7816164E-02  0.1226708E+00
        -11   -1    0    0    0    0  0.00000000000E+00  0.00000000000E+00  0.45593999997E+02  0.45594000000E+02  0.51100000000E-03 0.  1.
         11   -1    0    0    0    0 -0.00000000000E+00 -0.00000000000E+00 -0.45593999997E+02  0.45594000000E+02  0.51100000000E-03 0. -1.
    9900012    2    1    2    0    0  0.15081252644E+02  0.28753539295E+01  0.10722278117E+02  0.72461572430E+02  0.70000002782E+02 0.  0.
        -12    1    1    2    0    0 -0.15081252644E+02 -0.28753539295E+01 -0.10722278117E+02  0.18726427570E+02  0.00000000000E+00 0.  1.
         11    1    3    3    0    0  0.16639718872E+02 -0.10786502436E+02 -0.36436223458E+00  0.19833346643E+02  0.51100000000E-03 0. -1.
        -11    1    3    3    0    0  0.20771331043E+02  0.14161466673E+02  0.15946068212E+02  0.29770327901E+02  0.51100000000E-03 0.  1.
         12    1    3    3    0    0 -0.22329797272E+02 -0.49961030748E+00 -0.48594278605E+01  0.22857897887E+02  0.00000000000E+00 0. -1.
</event>
<event>
 7    1  0.2604986E-013  0.7246155E+02  0.7816164E-02  0.1226708E+00
        -11   -1    0    0    0    0  0.00000000000E+00  0.00000000000E+00  0.45593999997E+02  0.45594000000E+02  0.51100000000E-03 0. -1.
         11   -1    0    0    0    0 -0.00000000000E+00 -0.00000000000E+00 -0.45593999997E+02  0.45594000000E+02  0.51100000000E-03 0.  1.
    9900012    2    1    2    0    0  0.13394666135E+02  0.84807010879E+01  0.99669770581E+01  0.72461548027E+02  0.69999970993E+02 0.  0.
        -12    1    1    2    0    0 -0.13394666135E+02 -0.84807010879E+01 -0.99669770581E+01  0.18726451973E+02  0.00000000000E+00 0.  1.
         11    1    3    3    0    0  0.14387211437E+02  0.16169257374E+02  0.55793883574E+01  0.22350980105E+02  0.51100000000E-03 0. -1.
        -11    1    3    3    0    0  0.60636290198E+01  0.96200002832E-01 -0.21411666889E+02  0.22253905962E+02  0.51100000000E-03 0.  1.
        -12    1    3    3    0    0 -0.70561743220E+01 -0.77847562888E+01  0.25799255590E+02  0.27856661960E+02  0.00000000000E+00 0.  1.
</event>
<event>
 7    1  0.2604986E-013  0.7246154E+02  0.7816164E-02  0.1226708E+00
        -11   -1    0    0    0    0  0.00000000000E+00  0.00000000000E+00  0.45593999997E+02  0.45594000000E+02  0.51100000000E-03 0. -1.
         11   -1    0    0    0    0 -0.00000000000E+00 -0.00000000000E+00 -0.45593999997E+02  0.45594000000E+02  0.51100000000E-03 0.  1.
    9900012    2    1    2    0    0 -0.16416236707E+02 -0.63433410435E+01  0.63991663170E+01  0.72461544576E+02  0.69999966497E+02 0.  0.
        -12    1    1    2    0    0  0.16416236707E+02  0.63433410435E+01 -0.63991663170E+01  0.18726455424E+02  0.00000000000E+00 0.  1.
         11    1    3    3    0    0 -0.21774500411E+01 -0.22962481547E+02  0.12033364860E+02  0.26015739805E+02  0.51100000000E-03 0. -1.
        -11    1    3    3    0    0  0.11621150460E+02  0.16184946956E+02 -0.51410878058E+01  0.20577522447E+02  0.51100000000E-03 0.  1.
         12    1    3    3    0    0 -0.25859937126E+02  0.43419354828E+00 -0.49311073677E+00  0.25868282324E+02  0.00000000000E+00 0. -1.
</event>
<event>
 7    1  0.2604986E-013  0.7246158E+02  0.7816164E-02  0.1226708E+00
        -11   -1    0    0    0    0  0.00000000000E+00  0.00000000000E+00  0.45593999997E+02  0.45594000000E+02  0.51100000000E-03 0. -1.
         11   -1    0    0    0    0 -0.00000000000E+00 -0.00000000000E+00 -0.45593999997E+02  0.45594000000E+02  0.51100000000E-03 0.  1.
    9900012    2    1    2    0    0  0.16514704634E+02 -0.85084085378E+01  0.23559046885E+01  0.72461580911E+02  0.70000013830E+02 0.  0.
        -12    1    1    2    0    0 -0.16514704634E+02  0.85084085378E+01 -0.23559046885E+01  0.18726419089E+02  0.00000000000E+00 0.  1.
         11    1    3    3    0    0  0.11945690570E+02 -0.14533206389E+01 -0.21610950666E+02  0.24735497832E+02  0.51100000000E-03 0. -1.
        -11    1    3    3    0    0 -0.10337313160E+02 -0.98029391771E+01 -0.49464236331E+01  0.15080608970E+02  0.51100000000E-03 0.  1.
         12    1    3    3    0    0  0.14906327225E+02  0.27478512782E+01  0.28913278987E+02  0.32645474109E+02  0.00000000000E+00 0. -1.
</event>
<event>
 7    1  0.2604986E-013  0.7246164E+02  0.7816164E-02  0.1226708E+00
        -11   -1    0    0    0    0  0.00000000000E+00  0.00000000000E+00  0.45593999997E+02  0.45594000000E+02  0.51100000000E-03 0.  1.
         11   -1    0    0    0    0 -0.00000000000E+00 -0.00000000000E+00 -0.45593999997E+02  0.45594000000E+02  0.51100000000E-03 0. -1.
    9900012    2    1    2    0    0  0.11987942935E+02 -0.72840555577E+01  0.12405986319E+02  0.72461635224E+02  0.70000084583E+02 0.  0.
        -12    1    1    2    0    0 -0.11987942935E+02  0.72840555577E+01 -0.12405986319E+02  0.18726364776E+02  0.00000000000E+00 0.  1.
         11    1    3    3    0    0 -0.10756659721E+02 -0.12633526124E+02 -0.69798817626E+01  0.18000846102E+02  0.51100000000E-03 0. -1.
        -11    1    3    3    0    0  0.21474596654E+02  0.94372266101E+01 -0.94647992781E+01  0.25294307130E+02  0.51100000000E-03 0.  1.
        -12    1    3    3    0    0  0.12700060026E+01 -0.40877560435E+01  0.28850667360E+02  0.29166481992E+02  0.00000000000E+00 0.  1.
</event>
<event>
 7    1  0.2604986E-013  0.7246163E+02  0.7816164E-02  0.1226708E+00
        -11   -1    0    0    0    0  0.00000000000E+00  0.00000000000E+00  0.45593999997E+02  0.45594000000E+02  0.51100000000E-03 0.  1.
         11   -1    0    0    0    0 -0.00000000000E+00 -0.00000000000E+00 -0.45593999997E+02  0.45594000000E+02  0.51100000000E-03 0. -1.
    9900012    2    1    2    0    0  0.81903041459E+01  0.16012032479E+02 -0.52163914991E+01  0.72461628051E+02  0.70000075238E+02 0.  0.
        -12    1    1    2    0    0 -0.81903041459E+01 -0.16012032479E+02  0.52163914991E+01  0.18726371949E+02  0.00000000000E+00 0.  1.
         11    1    3    3    0    0  0.10671514201E+00  0.14392693064E+02 -0.42535776077E+01  0.15008461762E+02  0.51100000000E-03 0. -1.
        -11    1    3    3    0    0  0.27793518692E+02  0.15625314552E+02 -0.67487360379E+01  0.32591035186E+02  0.51100000000E-03 0.  1.
        -12    1    3    3    0    0 -0.19709929688E+02 -0.14005975137E+02  0.57859221465E+01  0.24862131102E+02  0.00000000000E+00 0.  1.
</event>
<event>
 7    1  0.2604986E-013  0.7246138E+02  0.7816164E-02  0.1226709E+00
        -11   -1    0    0    0    0  0.00000000000E+00  0.00000000000E+00  0.45593999997E+02  0.45594000000E+02  0.51100000000E-03 0.  1.
         11   -1    0    0    0    0 -0.00000000000E+00 -0.00000000000E+00 -0.45593999997E+02  0.45594000000E+02  0.51100000000E-03 0. -1.
    9900012    2    1    2    0    0  0.14324074108E+02  0.74223343970E+01 -0.95087456860E+01  0.72461377467E+02  0.69999748807E+02 0.  0.
        -12    1    1    2    0    0 -0.14324074108E+02 -0.74223343970E+01  0.95087456860E+01  0.18726622533E+02  0.00000000000E+00 0.  1.
         11    1    3    3    0    0  0.19041755556E+02  0.38325241300E+01  0.24815096171E+01  0.19581485799E+02  0.51100000000E-03 0. -1.
        -11    1    3    3    0    0  0.11194381962E+02 -0.77356421924E+01 -0.25657100553E+02  0.29042058410E+02  0.51100000000E-03 0.  1.
         12    1    3    3    0    0 -0.15912063410E+02  0.11325452459E+02  0.13666845250E+02  0.23837833258E+02  0.00000000000E+00 0. -1.
</event>
<event>
 7    1  0.2604986E-013  0.7246139E+02  0.7816164E-02  0.1226709E+00
        -11   -1    0    0    0    0  0.00000000000E+00  0.00000000000E+00  0.45593999997E+02  0.45594000000E+02  0.51100000000E-03 0.  1.
         11   -1    0    0    0    0 -0.00000000000E+00 -0.00000000000E+00 -0.45593999997E+02  0.45594000000E+02  0.51100000000E-03 0. -1.
    9900012    2    1    2    0    0  0.14442549473E+02  0.14700940275E+01  0.11829525961E+02  0.72461385351E+02  0.69999759077E+02 0.  0.
        -12    1    1    2    0    0 -0.14442549473E+02 -0.14700940275E+01 -0.11829525961E+02  0.18726614649E+02  0.00000000000E+00 0.  1.
         11    1    3    3    0    0  0.62598291723E+01 -0.63745922744E+00  0.10435250126E+02  0.12185493875E+02  0.51100000000E-03 0. -1.
        -11    1    3    3    0    0  0.21880475665E+02  0.24766531684E+02  0.54363351741E+01  0.33491641455E+02  0.51100000000E-03 0.  1.
         12    1    3    3    0    0 -0.13697755365E+02 -0.22658978429E+02 -0.40420593385E+01  0.26784250021E+02  0.00000000000E+00 0. -1.
</event>
<event>
 7    1  0.2604986E-013  0.7246128E+02  0.7816164E-02  0.1226709E+00
        -11   -1    0    0    0    0  0.00000000000E+00  0.00000000000E+00  0.45593999997E+02  0.45594000000E+02  0.51100000000E-03 0.  1.
         11   -1    0    0    0    0 -0.00000000000E+00 -0.00000000000E+00 -0.45593999997E+02  0.45594000000E+02  0.51100000000E-03 0. -1.
    9900012    2    1    2    0    0 -0.74418778644E+01 -0.17158599961E+02 -0.94384790131E+00  0.72461282519E+02  0.69999625118E+02 0.  0.
        -12    1    1    2    0    0  0.74418778644E+01  0.17158599961E+02  0.94384790131E+00  0.18726717481E+02  0.00000000000E+00 0.  1.
         11    1    3    3    0    0  0.51299189946E+01 -0.37896273295E+01  0.90997713153E+01  0.11112298702E+02  0.51100000000E-03 0. -1.
        -11    1    3    3    0    0  0.72717925945E+01 -0.18039517009E+02  0.18119288023E+02  0.26582169592E+02  0.51100000000E-03 0.  1.
         12    1    3    3    0    0 -0.19843589454E+02  0.46705443781E+01 -0.28162907240E+02  0.34766814225E+02  0.00000000000E+00 0. -1.
</event>
<event>
 7    1  0.2604986E-013  0.7246152E+02  0.7816164E-02  0.1226708E+00
        -11   -1    0    0    0    0  0.00000000000E+00  0.00000000000E+00  0.45593999997E+02  0.45594000000E+02  0.51100000000E-03 0.  1.
         11   -1    0    0    0    0 -0.00000000000E+00 -0.00000000000E+00 -0.45593999997E+02  0.45594000000E+02  0.51100000000E-03 0. -1.
    9900012    2    1    2    0    0  0.67092368465E-01 -0.18699768576E+02 -0.99763899501E+00  0.72461517956E+02  0.69999931819E+02 0.  0.
        -12    1    1    2    0    0 -0.67092368465E-01  0.18699768576E+02  0.99763899501E+00  0.18726482044E+02  0.00000000000E+00 0.  1.
         11    1    3    3    0    0  0.81159047443E+01 -0.14733541678E+02  0.48359682205E+00  0.16827924006E+02  0.51100000000E-03 0. -1.
        -11    1    3    3    0    0 -0.75207277704E+01 -0.52722572981E+01  0.26278908383E+02  0.27837727445E+02  0.51100000000E-03 0.  1.
         12    1    3    3    0    0 -0.52808460550E+00  0.13060303996E+01 -0.27760144200E+02  0.27795866505E+02  0.00000000000E+00 0. -1.
</event>
<event>
 7    1  0.2604986E-013  0.7246156E+02  0.7816164E-02  0.1226708E+00
        -11   -1    0    0    0    0  0.00000000000E+00  0.00000000000E+00  0.45593999997E+02  0.45594000000E+02  0.51100000000E-03 0.  1.
         11   -1    0    0    0    0 -0.00000000000E+00 -0.00000000000E+00 -0.45593999997E+02  0.45594000000E+02  0.51100000000E-03 0. -1.
    9900012    2    1    2    0    0 -0.71010514892E+01 -0.20027579139E+01 -0.17211724413E+02  0.72461563372E+02  0.69999990983E+02 0.  0.
        -12    1    1    2    0    0  0.71010514892E+01  0.20027579139E+01  0.17211724413E+02  0.18726436628E+02  0.00000000000E+00 0.  1.
         11    1    3    3    0    0 -0.16201403088E+02  0.62547920847E+01  0.16048743735E+01  0.17440857434E+02  0.51100000000E-03 0. -1.
        -11    1    3    3    0    0 -0.75043269347E-01 -0.34336229000E+01  0.17201267022E+02  0.17540780631E+02  0.51100000000E-03 0.  1.
         12    1    3    3    0    0  0.91753948678E+01 -0.48239270987E+01 -0.36017865808E+02  0.37479925307E+02  0.00000000000E+00 0. -1.
</event>
<event>
 7    1  0.2604986E-013  0.7246148E+02  0.7816164E-02  0.1226708E+00
        -11   -1    0    0    0    0  0.00000000000E+00  0.00000000000E+00  0.45593999997E+02  0.45594000000E+02  0.51100000000E-03 0.  1.
         11   -1    0    0    0    0 -0.00000000000E+00 -0.00000000000E+00 -0.45593999997E+02  0.45594000000E+02  0.51100000000E-03 0. -1.
    9900012    2    1    2    0    0  0.15885602175E+02  0.60140641577E+01  0.78842400496E+01  0.72461479626E+02  0.69999881888E+02 0.  0.
        -12    1    1    2    0    0 -0.15885602175E+02 -0.60140641577E+01 -0.78842400496E+01  0.18726520374E+02  0.00000000000E+00 0.  1.
         11    1    3    3    0    0  0.14323801723E+01  0.16192762570E+02 -0.61473592065E+00  0.16267611169E+02  0.51100000000E-03 0. -1.
        -11    1    3    3    0    0 -0.11516438084E+02 -0.70304127541E+01  0.22715525284E+02  0.26420638502E+02  0.51100000000E-03 0.  1.
         12    1    3    3    0    0  0.25969660087E+02 -0.31482856586E+01 -0.14216549314E+02  0.29773229956E+02  0.00000000000E+00 0. -1.
</event>
<event>
 7    1  0.2604986E-013  0.7246156E+02  0.7816164E-02  0.1226708E+00
        -11   -1    0    0    0    0  0.00000000000E+00  0.00000000000E+00  0.45593999997E+02  0.45594000000E+02  0.51100000000E-03 0.  1.
         11   -1    0    0    0    0 -0.00000000000E+00 -0.00000000000E+00 -0.45593999997E+02  0.45594000000E+02  0.51100000000E-03 0. -1.
    9900012    2    1    2    0    0 -0.11202549797E+01 -0.14374967460E+02 -0.11949259331E+02  0.72461562559E+02  0.69999989923E+02 0.  0.
        -12    1    1    2    0    0  0.11202549797E+01  0.14374967460E+02  0.11949259331E+02  0.18726437441E+02  0.00000000000E+00 0.  1.
         11    1    3    3    0    0 -0.18509481466E+02 -0.17649767360E+01 -0.95085496856E+01  0.20883691350E+02  0.51100000000E-03 0. -1.
        -11    1    3    3    0    0  0.18007898414E+01  0.17446703884E+02 -0.25178215659E+01  0.17719191465E+02  0.51100000000E-03 0.  1.
         12    1    3    3    0    0  0.15588436644E+02 -0.30056694608E+02  0.77111920963E-01  0.33858679744E+02  0.00000000000E+00 0. -1.
</event>
<event>
 7    1  0.2604986E-013  0.7246160E+02  0.7816164E-02  0.1226708E+00
        -11   -1    0    0    0    0  0.00000000000E+00  0.00000000000E+00  0.45593999997E+02  0.45594000000E+02  0.51100000000E-03 0.  1.
         11   -1    0    0    0    0 -0.00000000000E+00 -0.00000000000E+00 -0.45593999997E+02  0.45594000000E+02  0.51100000000E-03 0. -1.
    9900012    2    1    2    0    0 -0.11764638067E+02  0.11698267933E+02 -0.86845805678E+01  0.72461598287E+02  0.70000036466E+02 0.  0.
        -12    1    1    2    0    0  0.11764638067E+02 -0.11698267933E+02  0.86845805678E+01  0.18726401713E+02  0.00000000000E+00 0.  1.
         11    1    3    3    0    0 -0.13148908378E+02  0.16846099313E+02 -0.10426992650E+02  0.23778289038E+02  0.51100000000E-03 0. -1.
        -11    1    3    3    0    0 -0.84962160436E+00  0.20053324263E+02 -0.79525742500E+01  0.21589374895E+02  0.51100000000E-03 0.  1.
        -12    1    3    3    0    0  0.22338919159E+01 -0.25201155643E+02  0.96949863317E+01  0.27093934355E+02  0.00000000000E+00 0.  1.
</event>
<event>
 7    1  0.2604986E-013  0.7246141E+02  0.7816164E-02  0.1226708E+00
        -11   -1    0    0    0    0  0.00000000000E+00  0.00000000000E+00  0.45593999997E+02  0.45594000000E+02  0.51100000000E-03 0.  1.
         11   -1    0    0    0    0 -0.00000000000E+00 -0.00000000000E+00 -0.45593999997E+02  0.45594000000E+02  0.51100000000E-03 0. -1.
    9900012    2    1    2    0    0 -0.12420556474E+02  0.12138095013E+02  0.70058357152E+01  0.72461406404E+02  0.69999786502E+02 0.  0.
        -12    1    1    2    0    0  0.12420556474E+02 -0.12138095013E+02 -0.70058357152E+01  0.18726593596E+02  0.00000000000E+00 0.  1.
         11    1    3    3    0    0 -0.15852546012E+02  0.24669333066E+02  0.18709638033E+02  0.34784044684E+02  0.51100000000E-03 0. -1.
        -11    1    3    3    0    0  0.56383002372E+01  0.26193319886E+01  0.96032588838E+01  0.11440013596E+02  0.51100000000E-03 0.  1.
         12    1    3    3    0    0 -0.22063106995E+01 -0.15150570042E+02 -0.21307061202E+02  0.26237348124E+02  0.00000000000E+00 0. -1.
</event>
<event>
 7    1  0.2604986E-013  0.7246157E+02  0.7816164E-02  0.1226708E+00
        -11   -1    0    0    0    0  0.00000000000E+00  0.00000000000E+00  0.45593999997E+02  0.45594000000E+02  0.51100000000E-03 0. -1.
         11   -1    0    0    0    0 -0.00000000000E+00 -0.00000000000E+00 -0.45593999997E+02  0.45594000000E+02  0.51100000000E-03 0.  1.
    9900012    2    1    2    0    0  0.10217798538E+02 -0.82660493659E+01  0.13339720444E+02  0.72461571601E+02  0.70000001702E+02 0.  0.
        -12    1    1    2    0    0 -0.10217798538E+02  0.82660493659E+01 -0.13339720444E+02  0.18726428399E+02  0.00000000000E+00 0.  1.
         11    1    3    3    0    0  0.17564192942E+02  0.56144530286E+01  0.23455789433E+02  0.29836169572E+02  0.51100000000E-03 0. -1.
        -11    1    3    3    0    0  0.14946754401E+02 -0.65184126320E+01  0.16044973554E+01  0.16385041422E+02  0.51100000000E-03 0.  1.
         12    1    3    3    0    0 -0.22293148806E+02 -0.73620897624E+01 -0.11720566345E+02  0.26240360607E+02  0.00000000000E+00 0. -1.
</event>
<event>
 7    1  0.2604986E-013  0.7246157E+02  0.7816164E-02  0.1226708E+00
        -11   -1    0    0    0    0  0.00000000000E+00  0.00000000000E+00  0.45593999997E+02  0.45594000000E+02  0.51100000000E-03 0.  1.
         11   -1    0    0    0    0 -0.00000000000E+00 -0.00000000000E+00 -0.45593999997E+02  0.45594000000E+02  0.51100000000E-03 0. -1.
    9900012    2    1    2    0    0 -0.11086950933E+02 -0.13613811567E+02  0.65132729622E+01  0.72461572923E+02  0.70000003425E+02 0.  0.
        -12    1    1    2    0    0  0.11086950933E+02  0.13613811567E+02 -0.65132729622E+01  0.18726427077E+02  0.00000000000E+00 0.  1.
         11    1    3    3    0    0 -0.90329074099E+01  0.25246643208E+02 -0.29636998907E+00  0.26815559755E+02  0.51100000000E-03 0. -1.
        -11    1    3    3    0    0 -0.38538271721E+00 -0.67655036657E+00  0.73804462012E+01  0.74214032789E+01  0.51100000000E-03 0.  1.
         12    1    3    3    0    0 -0.16686608059E+01 -0.38183904409E+02 -0.57080324994E+00  0.38224609889E+02  0.00000000000E+00 0. -1.
</event>
<event>
 7    1  0.2604986E-013  0.7246152E+02  0.7816164E-02  0.1226708E+00
        -11   -1    0    0    0    0  0.00000000000E+00  0.00000000000E+00  0.45593999997E+02  0.45594000000E+02  0.51100000000E-03 0.  1.
         11   -1    0    0    0    0 -0.00000000000E+00 -0.00000000000E+00 -0.45593999997E+02  0.45594000000E+02  0.51100000000E-03 0. -1.
    9900012    2    1    2    0    0  0.60391069279E+01 -0.56284451722E+01 -0.16808650301E+02  0.72461523223E+02  0.69999938681E+02 0.  0.
        -12    1    1    2    0    0 -0.60391069279E+01  0.56284451722E+01  0.16808650301E+02  0.18726476777E+02  0.00000000000E+00 0.  1.
         11    1    3    3    0    0  0.20069706703E+02 -0.20400762423E+02  0.57990815721E+01  0.29199547633E+02  0.51100000000E-03 0. -1.
        -11    1    3    3    0    0  0.83222581945E+01  0.97006219500E+01 -0.30721502980E+01  0.13145347290E+02  0.51100000000E-03 0.  1.
        -12    1    3    3    0    0 -0.22352857970E+02  0.50716953012E+01 -0.19535581575E+02  0.30116628300E+02  0.00000000000E+00 0.  1.
</event>
<event>
 7    1  0.2604986E-013  0.7246158E+02  0.7816164E-02  0.1226708E+00
        -11   -1    0    0    0    0  0.00000000000E+00  0.00000000000E+00  0.45593999997E+02  0.45594000000E+02  0.51100000000E-03 0. -1.
         11   -1    0    0    0    0 -0.00000000000E+00 -0.00000000000E+00 -0.45593999997E+02  0.45594000000E+02  0.51100000000E-03 0.  1.
    9900012    2    1    2    0    0 -0.13793216952E+02  0.10533725411E+02 -0.70332468202E+01  0.72461581075E+02  0.70000014044E+02 0.  0.
        -12    1    1    2    0    0  0.13793216952E+02 -0.10533725411E+02  0.70332468202E+01  0.18726418925E+02  0.00000000000E+00 0.  1.
         11    1    3    3    0    0 -0.91199191750E+01  0.52329674828E+01  0.16939072348E+02  0.19937127344E+02  0.51100000000E-03 0. -1.
        -11    1    3    3    0    0 -0.22069972269E+02 -0.86500189495E+01 -0.77169173788E+01  0.24929045667E+02  0.51100000000E-03 0.  1.
        -12    1    3    3    0    0  0.17396674492E+02  0.13950776878E+02 -0.16255401790E+02  0.27595408064E+02  0.00000000000E+00 0.  1.
</event>
<event>
 7    1  0.2604986E-013  0.7246158E+02  0.7816164E-02  0.1226708E+00
        -11   -1    0    0    0    0  0.00000000000E+00  0.00000000000E+00  0.45593999997E+02  0.45594000000E+02  0.51100000000E-03 0. -1.
         11   -1    0    0    0    0 -0.00000000000E+00 -0.00000000000E+00 -0.45593999997E+02  0.45594000000E+02  0.51100000000E-03 0.  1.
    9900012    2    1    2    0    0  0.59765694745E+01  0.52761910805E+01  0.16944651632E+02  0.72461580323E+02  0.70000013064E+02 0.  0.
        -12    1    1    2    0    0 -0.59765694745E+01 -0.52761910805E+01 -0.16944651632E+02  0.18726419677E+02  0.00000000000E+00 0.  1.
         11    1    3    3    0    0  0.10497995188E+02 -0.11956011115E+02  0.31536334531E+02  0.35322719327E+02  0.51100000000E-03 0. -1.
        -11    1    3    3    0    0  0.50246744381E+01 -0.13993247389E+01  0.58788093547E+01  0.78591260726E+01  0.51100000000E-03 0.  1.
        -12    1    3    3    0    0 -0.95461001521E+01  0.18631526935E+02 -0.20470492254E+02  0.29279734923E+02  0.00000000000E+00 0.  1.
</event>
<event>
 7    1  0.2604986E-013  0.7246154E+02  0.7816164E-02  0.1226708E+00
        -11   -1    0    0    0    0  0.00000000000E+00  0.00000000000E+00  0.45593999997E+02  0.45594000000E+02  0.51100000000E-03 0. -1.
         11   -1    0    0    0    0 -0.00000000000E+00 -0.00000000000E+00 -0.45593999997E+02  0.45594000000E+02  0.51100000000E-03 0.  1.
    9900012    2    1    2    0    0  0.80107066735E+01  0.72775691350E+01  0.15282209624E+02  0.72461538377E+02  0.69999958422E+02 0.  0.
        -12    1    1    2    0    0 -0.80107066735E+01 -0.72775691350E+01 -0.15282209624E+02  0.18726461623E+02  0.00000000000E+00 0.  1.
         11    1    3    3    0    0  0.15223667043E+01  0.80310438622E+00  0.81400234826E+01  0.83200095911E+01  0.51100000000E-03 0. -1.
        -11    1    3    3    0    0 -0.13440122622E+02  0.27036615133E+02  0.15997001456E+02  0.34168984617E+02  0.51100000000E-03 0.  1.
        -12    1    3    3    0    0  0.19928462591E+02 -0.20562150384E+02 -0.88548153150E+01  0.29972544169E+02  0.00000000000E+00 0.  1.
</event>
<event>
 7    1  0.2604986E-013  0.7246158E+02  0.7816164E-02  0.1226708E+00
        -11   -1    0    0    0    0  0.00000000000E+00  0.00000000000E+00  0.45593999997E+02  0.45594000000E+02  0.51100000000E-03 0. -1.
         11   -1    0    0    0    0 -0.00000000000E+00 -0.00000000000E+00 -0.45593999997E+02  0.45594000000E+02  0.51100000000E-03 0.  1.
    9900012    2    1    2    0    0  0.11305366931E+02 -0.56999132399E+01  0.13797774726E+02  0.72461576962E+02  0.70000008687E+02 0.  0.
        -12    1    1    2    0    0 -0.11305366931E+02  0.56999132399E+01 -0.13797774726E+02  0.18726423038E+02  0.00000000000E+00 0.  1.
         11    1    3    3    0    0 -0.11213809597E+02  0.21301862397E+01  0.54842665210E+01  0.12663506569E+02  0.51100000000E-03 0. -1.
        -11    1    3    3    0    0 -0.17147264939E+02 -0.11674238974E+01  0.93439946669E+01  0.19562765910E+02  0.51100000000E-03 0.  1.
         12    1    3    3    0    0  0.39666441467E+02 -0.66626755822E+01 -0.10304864621E+01  0.40235304484E+02  0.00000000000E+00 0. -1.
</event>
<event>
 7    1  0.2604986E-013  0.7246161E+02  0.7816164E-02  0.1226708E+00
        -11   -1    0    0    0    0  0.00000000000E+00  0.00000000000E+00  0.45593999997E+02  0.45594000000E+02  0.51100000000E-03 0.  1.
         11   -1    0    0    0    0 -0.00000000000E+00 -0.00000000000E+00 -0.45593999997E+02  0.45594000000E+02  0.51100000000E-03 0. -1.
    9900012    2    1    2    0    0 -0.11289439580E+02 -0.90042666717E+01 -0.11922648254E+02  0.72461606708E+02  0.70000047436E+02 0.  0.
        -12    1    1    2    0    0  0.11289439580E+02  0.90042666717E+01  0.11922648254E+02  0.18726393292E+02  0.00000000000E+00 0.  1.
         11    1    3    3    0    0 -0.20136543006E+02  0.13454600631E+02 -0.14766553740E+02  0.28364727250E+02  0.51100000000E-03 0. -1.
        -11    1    3    3    0    0 -0.75802651279E+00  0.30606863349E+01 -0.12443307875E+02  0.12836600647E+02  0.51100000000E-03 0.  1.
        -12    1    3    3    0    0  0.96051299388E+01 -0.25519553638E+02  0.15287213361E+02  0.31260278811E+02  0.00000000000E+00 0.  1.
</event>
<event>
 7    1  0.2604986E-013  0.7246160E+02  0.7816164E-02  0.1226708E+00
        -11   -1    0    0    0    0  0.00000000000E+00  0.00000000000E+00  0.45593999997E+02  0.45594000000E+02  0.51100000000E-03 0. -1.
         11   -1    0    0    0    0 -0.00000000000E+00 -0.00000000000E+00 -0.45593999997E+02  0.45594000000E+02  0.51100000000E-03 0.  1.
    9900012    2    1    2    0    0  0.11599194357E+02  0.11361081991E+02  0.93307331885E+01  0.72461599503E+02  0.70000038050E+02 0.  0.
        -12    1    1    2    0    0 -0.11599194357E+02 -0.11361081991E+02 -0.93307331885E+01  0.18726400497E+02  0.00000000000E+00 0.  1.
         11    1    3    3    0    0 -0.20459102511E+01  0.92740606918E+01  0.12377671728E+01  0.95773701143E+01  0.51100000000E-03 0. -1.
        -11    1    3    3    0    0 -0.26158764041E+01  0.29845284839E+02  0.66061749664E+01  0.30679396741E+02  0.51100000000E-03 0.  1.
        -12    1    3    3    0    0  0.16260981013E+02 -0.27758263540E+02  0.14867910493E+01  0.32204832648E+02  0.00000000000E+00 0.  1.
</event>
<event>
 7    1  0.2604986E-013  0.7246160E+02  0.7816164E-02  0.1226708E+00
        -11   -1    0    0    0    0  0.00000000000E+00  0.00000000000E+00  0.45593999997E+02  0.45594000000E+02  0.51100000000E-03 0. -1.
         11   -1    0    0    0    0 -0.00000000000E+00 -0.00000000000E+00 -0.45593999997E+02  0.45594000000E+02  0.51100000000E-03 0.  1.
    9900012    2    1    2    0    0 -0.23245986767E+01 -0.18015223360E+02  0.45526031417E+01  0.72461595458E+02  0.70000032780E+02 0.  0.
        -12    1    1    2    0    0  0.23245986767E+01  0.18015223360E+02 -0.45526031417E+01  0.18726404542E+02  0.00000000000E+00 0.  1.
         11    1    3    3    0    0 -0.91205580243E+01  0.18073096672E+02  0.17206508376E+02  0.26568502644E+02  0.51100000000E-03 0. -1.
        -11    1    3    3    0    0  0.92286701180E+01 -0.68523699486E+01 -0.11902207672E+02  0.16546476175E+02  0.51100000000E-03 0.  1.
        -12    1    3    3    0    0 -0.24327107704E+01 -0.29235950083E+02 -0.75169756200E+00  0.29346616639E+02  0.00000000000E+00 0.  1.
</event>
<event>
 7    1  0.2604986E-013  0.7246177E+02  0.7816164E-02  0.1226707E+00
        -11   -1    0    0    0    0  0.00000000000E+00  0.00000000000E+00  0.45593999997E+02  0.45594000000E+02  0.51100000000E-03 0.  1.
         11   -1    0    0    0    0 -0.00000000000E+00 -0.00000000000E+00 -0.45593999997E+02  0.45594000000E+02  0.51100000000E-03 0. -1.
    9900012    2    1    2    0    0 -0.49600463206E+01  0.41259764759E+01 -0.17579703548E+02  0.72461769247E+02  0.70000259172E+02 0.  0.
        -12    1    1    2    0    0  0.49600463206E+01 -0.41259764759E+01  0.17579703548E+02  0.18726230753E+02  0.00000000000E+00 0.  1.
         11    1    3    3    0    0  0.17907628928E+02 -0.13961619827E+02 -0.11359050845E+02  0.25389723086E+02  0.51100000000E-03 0. -1.
        -11    1    3    3    0    0  0.81032655202E+01 -0.35539366821E+01 -0.18204832037E+01  0.90336890243E+01  0.51100000000E-03 0.  1.
        -12    1    3    3    0    0 -0.30970940768E+02  0.21641532985E+02 -0.44001694999E+01  0.38038357137E+02  0.00000000000E+00 0.  1.
</event>
<event>
 7    1  0.2604986E-013  0.7246157E+02  0.7816164E-02  0.1226708E+00
        -11   -1    0    0    0    0  0.00000000000E+00  0.00000000000E+00  0.45593999997E+02  0.45594000000E+02  0.51100000000E-03 0. -1.
         11   -1    0    0    0    0 -0.00000000000E+00 -0.00000000000E+00 -0.45593999997E+02  0.45594000000E+02  0.51100000000E-03 0.  1.
    9900012    2    1    2    0    0 -0.91822509386E+01 -0.57547682982E+01  0.15272464809E+02  0.72461567563E+02  0.69999996442E+02 0.  0.
        -12    1    1    2    0    0  0.91822509386E+01  0.57547682982E+01 -0.15272464809E+02  0.18726432437E+02  0.00000000000E+00 0.  1.
         11    1    3    3    0    0  0.13035334337E+02 -0.66990519679E+01  0.15031411309E+02  0.20993822061E+02  0.51100000000E-03 0. -1.
        -11    1    3    3    0    0  0.69508622472E+01 -0.16163674707E+02  0.12310528936E+01  0.17637867147E+02  0.51100000000E-03 0.  1.
        -12    1    3    3    0    0 -0.29168447523E+02  0.17107958377E+02 -0.98999939351E+00  0.33829878355E+02  0.00000000000E+00 0.  1.
</event>
<event>
 7    1  0.2604986E-013  0.7246160E+02  0.7816164E-02  0.1226708E+00
        -11   -1    0    0    0    0  0.00000000000E+00  0.00000000000E+00  0.45593999997E+02  0.45594000000E+02  0.51100000000E-03 0.  1.
         11   -1    0    0    0    0 -0.00000000000E+00 -0.00000000000E+00 -0.45593999997E+02  0.45594000000E+02  0.51100000000E-03 0. -1.
    9900012    2    1    2    0    0 -0.17595325178E+02  0.38182896105E+01  0.51481359825E+01  0.72461598643E+02  0.70000036930E+02 0.  0.
        -12    1    1    2    0    0  0.17595325178E+02 -0.38182896105E+01 -0.51481359825E+01  0.18726401357E+02  0.00000000000E+00 0.  1.
         11    1    3    3    0    0  0.10638117538E+02  0.40171946505E+01 -0.11098158746E+02  0.15889509918E+02  0.51100000000E-03 0.  1.
        -11    1    3    3    0    0 -0.42475709195E+01  0.11400808314E+01  0.29028640876E+02  0.29359898406E+02  0.51100000000E-03 0. -1.
         12    1    3    3    0    0 -0.23985871796E+02 -0.13389858714E+01 -0.12782346147E+02  0.27212190320E+02  0.00000000000E+00 0. -1.
</event>
<event>
 7    1  0.2604986E-013  0.7246161E+02  0.7816164E-02  0.1226708E+00
        -11   -1    0    0    0    0  0.00000000000E+00  0.00000000000E+00  0.45593999997E+02  0.45594000000E+02  0.51100000000E-03 0. -1.
         11   -1    0    0    0    0 -0.00000000000E+00 -0.00000000000E+00 -0.45593999997E+02  0.45594000000E+02  0.51100000000E-03 0.  1.
    9900012    2    1    2    0    0 -0.90645323956E+01 -0.48182053501E+00  0.16379253809E+02  0.72461605421E+02  0.70000045759E+02 0.  0.
        -12    1    1    2    0    0  0.90645323956E+01  0.48182053501E+00 -0.16379253809E+02  0.18726394579E+02  0.00000000000E+00 0.  1.
         11    1    3    3    0    0 -0.17307529780E+02 -0.11006440305E+02  0.22262401310E+02  0.30270560412E+02  0.51100000000E-03 0. -1.
        -11    1    3    3    0    0 -0.59635223816E+01  0.33770309117E+00  0.14295490246E+02  0.15493181862E+02  0.51100000000E-03 0.  1.
        -12    1    3    3    0    0  0.14206519766E+02  0.10186916679E+02 -0.20178637747E+02  0.26697863147E+02  0.00000000000E+00 0.  1.
</event>
<event>
 7    1  0.2604986E-013  0.7246152E+02  0.7816164E-02  0.1226708E+00
        -11   -1    0    0    0    0  0.00000000000E+00  0.00000000000E+00  0.45593999997E+02  0.45594000000E+02  0.51100000000E-03 0. -1.
         11   -1    0    0    0    0 -0.00000000000E+00 -0.00000000000E+00 -0.45593999997E+02  0.45594000000E+02  0.51100000000E-03 0.  1.
    9900012    2    1    2    0    0 -0.17530113713E+02  0.29718745867E+01  0.58774274634E+01  0.72461519313E+02  0.69999933587E+02 0.  0.
        -12    1    1    2    0    0  0.17530113713E+02 -0.29718745867E+01 -0.58774274634E+01  0.18726480687E+02  0.00000000000E+00 0.  1.
         11    1    3    3    0    0 -0.10415821576E+02  0.90566595095E+01  0.61545989663E+00  0.13816338579E+02  0.51100000000E-03 0.  1.
        -11    1    3    3    0    0  0.54893834564E+01 -0.43998228608E+00  0.29898824705E+02  0.30401753801E+02  0.51100000000E-03 0. -1.
        -12    1    3    3    0    0 -0.12603675593E+02 -0.56448026368E+01 -0.24636857139E+02  0.28243426933E+02  0.00000000000E+00 0.  1.
</event>
<event>
 7    1  0.2604986E-013  0.7246156E+02  0.7816164E-02  0.1226708E+00
        -11   -1    0    0    0    0  0.00000000000E+00  0.00000000000E+00  0.45593999997E+02  0.45594000000E+02  0.51100000000E-03 0.  1.
         11   -1    0    0    0    0 -0.00000000000E+00 -0.00000000000E+00 -0.45593999997E+02  0.45594000000E+02  0.51100000000E-03 0. -1.
    9900012    2    1    2    0    0  0.14577880673E+02  0.32594185290E+01 -0.11293411512E+02  0.72461559932E+02  0.69999986501E+02 0.  0.
        -12    1    1    2    0    0 -0.14577880673E+02 -0.32594185290E+01  0.11293411512E+02  0.18726440068E+02  0.00000000000E+00 0.  1.
         11    1    3    3    0    0  0.13363792348E+02  0.11546727674E+02 -0.31724890809E+02  0.36309593264E+02  0.51100000000E-03 0. -1.
        -11    1    3    3    0    0  0.18899178191E+01  0.37874111937E+01 -0.58504561414E+01  0.72210878846E+01  0.51100000000E-03 0.  1.
        -12    1    3    3    0    0 -0.67582949411E+00 -0.12074720339E+02  0.26281935438E+02  0.28930878783E+02  0.00000000000E+00 0.  1.
</event>
<event>
 7    1  0.2604986E-013  0.7246168E+02  0.7816164E-02  0.1226708E+00
        -11   -1    0    0    0    0  0.00000000000E+00  0.00000000000E+00  0.45593999997E+02  0.45594000000E+02  0.51100000000E-03 0.  1.
         11   -1    0    0    0    0 -0.00000000000E+00 -0.00000000000E+00 -0.45593999997E+02  0.45594000000E+02  0.51100000000E-03 0. -1.
    9900012    2    1    2    0    0  0.16193861592E+02  0.81490454022E+01  0.46932867753E+01  0.72461680688E+02  0.70000143808E+02 0.  0.
        -12    1    1    2    0    0 -0.16193861592E+02 -0.81490454022E+01 -0.46932867753E+01  0.18726319312E+02  0.00000000000E+00 0.  1.
         11    1    3    3    0    0 -0.53033725843E+01  0.17975745793E+02  0.18746686955E+02  0.26508328307E+02  0.51100000000E-03 0. -1.
        -11    1    3    3    0    0 -0.14099739988E+01  0.10589815741E+02 -0.10641917967E+02  0.15079212260E+02  0.51100000000E-03 0.  1.
         12    1    3    3    0    0  0.22907208175E+02 -0.20416516131E+02 -0.34114822125E+01  0.30874140121E+02  0.00000000000E+00 0. -1.
</event>
<event>
 7    1  0.2604986E-013  0.7246157E+02  0.7816164E-02  0.1226708E+00
        -11   -1    0    0    0    0  0.00000000000E+00  0.00000000000E+00  0.45593999997E+02  0.45594000000E+02  0.51100000000E-03 0. -1.
         11   -1    0    0    0    0 -0.00000000000E+00 -0.00000000000E+00 -0.45593999997E+02  0.45594000000E+02  0.51100000000E-03 0.  1.
    9900012    2    1    2    0    0  0.10600068711E+02 -0.34628666092E+01  0.15044140151E+02  0.72461573359E+02  0.70000003993E+02 0.  0.
        -12    1    1    2    0    0 -0.10600068711E+02  0.34628666092E+01 -0.15044140151E+02  0.18726426641E+02  0.00000000000E+00 0.  1.
         11    1    3    3    0    0  0.16381409314E+02 -0.79003576574E+01 -0.24866744028E+01  0.18356191655E+02  0.51100000000E-03 0.  1.
        -11    1    3    3    0    0  0.12034655808E+02 -0.16743452568E+02  0.16499829852E+02  0.26408720713E+02  0.51100000000E-03 0. -1.
        -12    1    3    3    0    0 -0.17815996412E+02  0.21180943616E+02  0.10309847024E+01  0.27696660991E+02  0.00000000000E+00 0.  1.
</event>
<event>
 7    1  0.2604986E-013  0.7246192E+02  0.7816164E-02  0.1226707E+00
        -11   -1    0    0    0    0  0.00000000000E+00  0.00000000000E+00  0.45593999997E+02  0.45594000000E+02  0.51100000000E-03 0. -1.
         11   -1    0    0    0    0 -0.00000000000E+00 -0.00000000000E+00 -0.45593999997E+02  0.45594000000E+02  0.51100000000E-03 0.  1.
    9900012    2    1    2    0    0 -0.83217806610E+01  0.16741371558E+02 -0.10678725256E+01  0.72461924417E+02  0.70000461309E+02 0.  0.
        -12    1    1    2    0    0  0.83217806610E+01 -0.16741371558E+02  0.10678725256E+01  0.18726075583E+02  0.00000000000E+00 0.  1.
         11    1    3    3    0    0 -0.63687079958E+00 -0.44341959396E+01  0.25663825545E+01  0.51627529210E+01  0.51100000000E-03 0. -1.
        -11    1    3    3    0    0  0.13170563399E+02  0.26005619120E+02 -0.23994470161E+02  0.37755669304E+02  0.51100000000E-03 0.  1.
         12    1    3    3    0    0 -0.20855473261E+02 -0.48300516224E+01  0.20360215081E+02  0.29543502192E+02  0.00000000000E+00 0. -1.
</event>
<event>
 7    1  0.2604986E-013  0.7246157E+02  0.7816164E-02  0.1226708E+00
        -11   -1    0    0    0    0  0.00000000000E+00  0.00000000000E+00  0.45593999997E+02  0.45594000000E+02  0.51100000000E-03 0. -1.
         11   -1    0    0    0    0 -0.00000000000E+00 -0.00000000000E+00 -0.45593999997E+02  0.45594000000E+02  0.51100000000E-03 0.  1.
    9900012    2    1    2    0    0  0.16802951488E+02 -0.80643038520E+01 -0.18184758290E+01  0.72461574028E+02  0.70000004864E+02 0.  0.
        -12    1    1    2    0    0 -0.16802951488E+02  0.80643038520E+01  0.18184758290E+01  0.18726425972E+02  0.00000000000E+00 0.  1.
         11    1    3    3    0    0 -0.81831107179E+01 -0.28519621991E+01  0.12857155541E+02  0.15504948831E+02  0.51100000000E-03 0. -1.
        -11    1    3    3    0    0 -0.35298727081E+01 -0.83949145090E+00  0.15080822659E+02  0.15511155972E+02  0.51100000000E-03 0.  1.
         12    1    3    3    0    0  0.28515934914E+02 -0.43728502020E+01 -0.29756454029E+02  0.41445469225E+02  0.00000000000E+00 0. -1.
</event>
<event>
 7    1  0.2604986E-013  0.7246155E+02  0.7816164E-02  0.1226708E+00
        -11   -1    0    0    0    0  0.00000000000E+00  0.00000000000E+00  0.45593999997E+02  0.45594000000E+02  0.51100000000E-03 0. -1.
         11   -1    0    0    0    0 -0.00000000000E+00 -0.00000000000E+00 -0.45593999997E+02  0.45594000000E+02  0.51100000000E-03 0.  1.
    9900012    2    1    2    0    0 -0.13199818955E+02 -0.15699602998E+01  0.13190151685E+02  0.72461545524E+02  0.69999967732E+02 0.  0.
        -12    1    1    2    0    0  0.13199818955E+02  0.15699602998E+01 -0.13190151685E+02  0.18726454476E+02  0.00000000000E+00 0.  1.
         11    1    3    3    0    0  0.98715316819E+01  0.97723370860E+01  0.48493406825E+01  0.14712641339E+02  0.51100000000E-03 0. -1.
        -11    1    3    3    0    0  0.14661184616E+02  0.42767957062E+01 -0.25511362666E+01  0.15483850050E+02  0.51100000000E-03 0.  1.
        -12    1    3    3    0    0 -0.37732535253E+02 -0.15619093092E+02  0.10891947269E+02  0.42265054134E+02  0.00000000000E+00 0.  1.
</event>
<event>
 7    1  0.2604986E-013  0.7246151E+02  0.7816164E-02  0.1226708E+00
        -11   -1    0    0    0    0  0.00000000000E+00  0.00000000000E+00  0.45593999997E+02  0.45594000000E+02  0.51100000000E-03 0.  1.
         11   -1    0    0    0    0 -0.00000000000E+00 -0.00000000000E+00 -0.45593999997E+02  0.45594000000E+02  0.51100000000E-03 0. -1.
    9900012    2    1    2    0    0 -0.10782066828E+02  0.83784490875E+01 -0.12815226469E+02  0.72461510642E+02  0.69999922292E+02 0.  0.
        -12    1    1    2    0    0  0.10782066828E+02 -0.83784490875E+01  0.12815226469E+02  0.18726489358E+02  0.00000000000E+00 0.  1.
         11    1    3    3    0    0 -0.13006202927E+02  0.28965772644E+02 -0.22860244786E+02  0.39125031520E+02  0.51100000000E-03 0. -1.
        -11    1    3    3    0    0 -0.64580184714E+01 -0.67198608316E+00 -0.38490224311E+01  0.75480157531E+01  0.51100000000E-03 0.  1.
        -12    1    3    3    0    0  0.86821545699E+01 -0.19915337474E+02  0.13894040748E+02  0.25788463370E+02  0.00000000000E+00 0.  1.
</event>
<event>
 7    1  0.2604986E-013  0.7246142E+02  0.7816164E-02  0.1226708E+00
        -11   -1    0    0    0    0  0.00000000000E+00  0.00000000000E+00  0.45593999997E+02  0.45594000000E+02  0.51100000000E-03 0. -1.
         11   -1    0    0    0    0 -0.00000000000E+00 -0.00000000000E+00 -0.45593999997E+02  0.45594000000E+02  0.51100000000E-03 0.  1.
    9900012    2    1    2    0    0 -0.32689513355E+01  0.87556646550E+01  0.16227667463E+02  0.72461417352E+02  0.69999800764E+02 0.  0.
        -12    1    1    2    0    0  0.32689513355E+01 -0.87556646550E+01 -0.16227667463E+02  0.18726582648E+02  0.00000000000E+00 0.  1.
         11    1    3    3    0    0  0.12452270914E+02 -0.10384170413E+02  0.23272323270E+02  0.28363551906E+02  0.51100000000E-03 0. -1.
        -11    1    3    3    0    0 -0.38423624979E+01 -0.77803879097E+01 -0.11427433242E+02  0.14348672982E+02  0.51100000000E-03 0.  1.
        -12    1    3    3    0    0 -0.11878859752E+02  0.26920222977E+02  0.43827774350E+01  0.29749192463E+02  0.00000000000E+00 0.  1.
</event>
<event>
 7    1  0.2604986E-013  0.7246156E+02  0.7816164E-02  0.1226708E+00
        -11   -1    0    0    0    0  0.00000000000E+00  0.00000000000E+00  0.45593999997E+02  0.45594000000E+02  0.51100000000E-03 0.  1.
         11   -1    0    0    0    0 -0.00000000000E+00 -0.00000000000E+00 -0.45593999997E+02  0.45594000000E+02  0.51100000000E-03 0. -1.
    9900012    2    1    2    0    0 -0.12288175233E+01 -0.18471329480E+02 -0.28247900098E+01  0.72461562969E+02  0.69999990457E+02 0.  0.
        -12    1    1    2    0    0  0.12288175233E+01  0.18471329480E+02  0.28247900098E+01  0.18726437031E+02  0.00000000000E+00 0.  1.
         11    1    3    3    0    0 -0.29319807358E+01 -0.61750807308E+01 -0.45240680143E+01  0.81972754453E+01  0.51100000000E-03 0. -1.
        -11    1    3    3    0    0  0.27091373754E+02  0.52539722193E+00 -0.15311526865E+02  0.31123326128E+02  0.51100000000E-03 0.  1.
        -12    1    3    3    0    0 -0.25388210541E+02 -0.12821645972E+02  0.17010804869E+02  0.33140961395E+02  0.00000000000E+00 0.  1.
</event>
<event>
 7    1  0.2604986E-013  0.7246153E+02  0.7816164E-02  0.1226708E+00
        -11   -1    0    0    0    0  0.00000000000E+00  0.00000000000E+00  0.45593999997E+02  0.45594000000E+02  0.51100000000E-03 0. -1.
         11   -1    0    0    0    0 -0.00000000000E+00 -0.00000000000E+00 -0.45593999997E+02  0.45594000000E+02  0.51100000000E-03 0.  1.
    9900012    2    1    2    0    0 -0.12328323883E+02  0.12589941394E+02  0.63392738488E+01  0.72461532448E+02  0.69999950698E+02 0.  0.
        -12    1    1    2    0    0  0.12328323883E+02 -0.12589941394E+02 -0.63392738488E+01  0.18726467552E+02  0.00000000000E+00 0.  1.
         11    1    3    3    0    0 -0.25747443785E+02 -0.22514959717E+01 -0.14629709542E+02  0.29698964580E+02  0.51100000000E-03 0. -1.
        -11    1    3    3    0    0 -0.36524559027E+01  0.25434747657E+01 -0.66748501652E+01  0.80226755508E+01  0.51100000000E-03 0.  1.
        -12    1    3    3    0    0  0.17071575805E+02  0.12297962600E+02  0.27643833556E+02  0.34739892317E+02  0.00000000000E+00 0.  1.
</event>
<event>
 7    1  0.2604986E-013  0.7246151E+02  0.7816164E-02  0.1226708E+00
        -11   -1    0    0    0    0  0.00000000000E+00  0.00000000000E+00  0.45593999997E+02  0.45594000000E+02  0.51100000000E-03 0.  1.
         11   -1    0    0    0    0 -0.00000000000E+00 -0.00000000000E+00 -0.45593999997E+02  0.45594000000E+02  0.51100000000E-03 0. -1.
    9900012    2    1    2    0    0  0.95040460322E+01 -0.10286930025E+02 -0.12431152169E+02  0.72461511686E+02  0.69999923652E+02 0.  0.
        -12    1    1    2    0    0 -0.95040460322E+01  0.10286930025E+02  0.12431152169E+02  0.18726488314E+02  0.00000000000E+00 0.  1.
         11    1    3    3    0    0  0.68102856454E+01  0.15120021653E+02  0.16013989422E+02  0.23053045414E+02  0.51100000000E-03 0. -1.
        -11    1    3    3    0    0  0.27559618695E+01 -0.86789756826E+00  0.62655166303E+01  0.68996573046E+01  0.51100000000E-03 0.  1.
        -12    1    3    3    0    0 -0.62201482751E-01 -0.24539054110E+02 -0.34710658222E+02  0.42508808968E+02  0.00000000000E+00 0.  1.
</event>
<event>
 7    1  0.2604986E-013  0.7246159E+02  0.7816164E-02  0.1226708E+00
        -11   -1    0    0    0    0  0.00000000000E+00  0.00000000000E+00  0.45593999997E+02  0.45594000000E+02  0.51100000000E-03 0.  1.
         11   -1    0    0    0    0 -0.00000000000E+00 -0.00000000000E+00 -0.45593999997E+02  0.45594000000E+02  0.51100000000E-03 0. -1.
    9900012    2    1    2    0    0 -0.65298894006E+01 -0.24245593617E+01 -0.17382765567E+02  0.72461588640E+02  0.70000023899E+02 0.  0.
        -12    1    1    2    0    0  0.65298894006E+01  0.24245593617E+01  0.17382765567E+02  0.18726411360E+02  0.00000000000E+00 0.  1.
         11    1    3    3    0    0  0.21894240913E+01  0.14970529031E+02 -0.17797463809E+02  0.23359367191E+02  0.51100000000E-03 0. -1.
        -11    1    3    3    0    0 -0.87239021557E+01  0.61817081970E+01  0.17135782227E+02  0.20197896372E+02  0.51100000000E-03 0.  1.
        -12    1    3    3    0    0  0.45886637650E-02 -0.23576796589E+02 -0.16721083986E+02  0.28904325076E+02  0.00000000000E+00 0.  1.
</event>
<event>
 7    1  0.2604986E-013  0.7246157E+02  0.7816164E-02  0.1226708E+00
        -11   -1    0    0    0    0  0.00000000000E+00  0.00000000000E+00  0.45593999997E+02  0.45594000000E+02  0.51100000000E-03 0.  1.
         11   -1    0    0    0    0 -0.00000000000E+00 -0.00000000000E+00 -0.45593999997E+02  0.45594000000E+02  0.51100000000E-03 0. -1.
    9900012    2    1    2    0    0  0.33310073819E+01 -0.37985227682E+01 -0.18032053692E+02  0.72461565589E+02  0.69999993870E+02 0.  0.
        -12    1    1    2    0    0 -0.33310073819E+01  0.37985227682E+01  0.18032053692E+02  0.18726434411E+02  0.00000000000E+00 0.  1.
         11    1    3    3    0    0 -0.69902369205E+01  0.12802154449E+02  0.47580317454E+01  0.15342667209E+02  0.51100000000E-03 0. -1.
        -11    1    3    3    0    0 -0.11606248226E+02 -0.17157516741E+02  0.53940520601E+01  0.21405167051E+02  0.51100000000E-03 0.  1.
         12    1    3    3    0    0  0.21927492529E+02  0.55683952364E+00 -0.28184137498E+02  0.35713731328E+02  0.00000000000E+00 0. -1.
</event>
<event>
 7    1  0.2604986E-013  0.7246158E+02  0.7816164E-02  0.1226708E+00
        -11   -1    0    0    0    0  0.00000000000E+00  0.00000000000E+00  0.45593999997E+02  0.45594000000E+02  0.51100000000E-03 0. -1.
         11   -1    0    0    0    0 -0.00000000000E+00 -0.00000000000E+00 -0.45593999997E+02  0.45594000000E+02  0.51100000000E-03 0.  1.
    9900012    2    1    2    0    0  0.13521152474E+01 -0.17802823130E+01  0.18592504672E+02  0.72461578806E+02  0.70000011088E+02 0.  0.
        -12    1    1    2    0    0 -0.13521152474E+01  0.17802823130E+01 -0.18592504672E+02  0.18726421194E+02  0.00000000000E+00 0.  1.
         11    1    3    3    0    0 -0.88226851892E+01 -0.17320004194E+02  0.30204634663E+02  0.35918550564E+02  0.51100000000E-03 0. -1.
        -11    1    3    3    0    0  0.74528168644E+01  0.12357890955E+02  0.79921491798E+01  0.16496557121E+02  0.51100000000E-03 0.  1.
        -12    1    3    3    0    0  0.27219835723E+01  0.31818309261E+01 -0.19604279171E+02  0.20046471121E+02  0.00000000000E+00 0.  1.
</event>
<event>
 7    1  0.2604986E-013  0.7246174E+02  0.7816164E-02  0.1226708E+00
        -11   -1    0    0    0    0  0.00000000000E+00  0.00000000000E+00  0.45593999997E+02  0.45594000000E+02  0.51100000000E-03 0. -1.
         11   -1    0    0    0    0 -0.00000000000E+00 -0.00000000000E+00 -0.45593999997E+02  0.45594000000E+02  0.51100000000E-03 0.  1.
    9900012    2    1    2    0    0 -0.21901886636E+01 -0.18484864950E+02  0.20458719758E+01  0.72461741678E+02  0.70000223259E+02 0.  0.
        -12    1    1    2    0    0  0.21901886636E+01  0.18484864950E+02 -0.20458719758E+01  0.18726258322E+02  0.00000000000E+00 0.  1.
         11    1    3    3    0    0  0.17390641813E+02 -0.94203577685E+01  0.12613327244E+02  0.23457910981E+02  0.51100000000E-03 0. -1.
        -11    1    3    3    0    0 -0.83992904325E+01 -0.16675835378E+02  0.12354187617E+02  0.22388781058E+02  0.51100000000E-03 0.  1.
        -12    1    3    3    0    0 -0.11181540044E+02  0.76113281969E+01 -0.22921642886E+02  0.26615049639E+02  0.00000000000E+00 0.  1.
</event>
<event>
 7    1  0.2604986E-013  0.7246156E+02  0.7816164E-02  0.1226708E+00
        -11   -1    0    0    0    0  0.00000000000E+00  0.00000000000E+00  0.45593999997E+02  0.45594000000E+02  0.51100000000E-03 0. -1.
         11   -1    0    0    0    0 -0.00000000000E+00 -0.00000000000E+00 -0.45593999997E+02  0.45594000000E+02  0.51100000000E-03 0.  1.
    9900012    2    1    2    0    0 -0.11741212058E+02 -0.11213148345E+02  0.93321419058E+01  0.72461558028E+02  0.69999984021E+02 0.  0.
        -12    1    1    2    0    0  0.11741212058E+02  0.11213148345E+02 -0.93321419058E+01  0.18726441972E+02  0.00000000000E+00 0.  1.
         11    1    3    3    0    0  0.10513527218E+01  0.48855626013E+01  0.74093621605E+01  0.89371534822E+01  0.51100000000E-03 0. -1.
        -11    1    3    3    0    0 -0.70007768742E+01  0.20426974778E+02 -0.11147052399E+02  0.24300801486E+02  0.51100000000E-03 0.  1.
         12    1    3    3    0    0 -0.57917879054E+01 -0.36525685724E+02  0.13069832144E+02  0.39223603060E+02  0.00000000000E+00 0. -1.
</event>
<event>
 7    1  0.2604986E-013  0.7246185E+02  0.7816164E-02  0.1226707E+00
        -11   -1    0    0    0    0  0.00000000000E+00  0.00000000000E+00  0.45593999997E+02  0.45594000000E+02  0.51100000000E-03 0.  1.
         11   -1    0    0    0    0 -0.00000000000E+00 -0.00000000000E+00 -0.45593999997E+02  0.45594000000E+02  0.51100000000E-03 0. -1.
    9900012    2    1    2    0    0  0.45106408674E+00 -0.63787463950E+01 -0.17600480266E+02  0.72461847967E+02  0.70000361719E+02 0.  0.
        -12    1    1    2    0    0 -0.45106408674E+00  0.63787463950E+01  0.17600480266E+02  0.18726152033E+02  0.00000000000E+00 0.  1.
         11    1    3    3    0    0 -0.35606046819E+01 -0.20698861691E+02 -0.93616331124E+00  0.21023729046E+02  0.51100000000E-03 0. -1.
        -11    1    3    3    0    0 -0.58516918153E+01 -0.14900760199E+02  0.73960192878E+00  0.16025665755E+02  0.51100000000E-03 0.  1.
        -12    1    3    3    0    0  0.98633605840E+01  0.29220875495E+02 -0.17403918883E+02  0.35412453166E+02  0.00000000000E+00 0.  1.
</event>
<event>
 7    1  0.2604986E-013  0.7246157E+02  0.7816164E-02  0.1226708E+00
        -11   -1    0    0    0    0  0.00000000000E+00  0.00000000000E+00  0.45593999997E+02  0.45594000000E+02  0.51100000000E-03 0.  1.
         11   -1    0    0    0    0 -0.00000000000E+00 -0.00000000000E+00 -0.45593999997E+02  0.45594000000E+02  0.51100000000E-03 0. -1.
    9900012    2    1    2    0    0 -0.96399036553E+01  0.13539051538E+02 -0.86281796239E+01  0.72461571011E+02  0.70000000934E+02 0.  0.
        -12    1    1    2    0    0  0.96399036553E+01 -0.13539051538E+02  0.86281796239E+01  0.18726428989E+02  0.00000000000E+00 0.  1.
         11    1    3    3    0    0 -0.16663927109E+02  0.57046665514E+01  0.16841115332E+01  0.17693668898E+02  0.51100000000E-03 0. -1.
        -11    1    3    3    0    0 -0.11112934438E+02  0.48818393593E+01  0.17582056938E+02  0.21364886936E+02  0.51100000000E-03 0.  1.
        -12    1    3    3    0    0  0.18136957892E+02  0.29525456277E+01 -0.27894348095E+02  0.33403015177E+02  0.00000000000E+00 0.  1.
</event>
<event>
 7    1  0.2604986E-013  0.7246150E+02  0.7816164E-02  0.1226708E+00
        -11   -1    0    0    0    0  0.00000000000E+00  0.00000000000E+00  0.45593999997E+02  0.45594000000E+02  0.51100000000E-03 0. -1.
         11   -1    0    0    0    0 -0.00000000000E+00 -0.00000000000E+00 -0.45593999997E+02  0.45594000000E+02  0.51100000000E-03 0.  1.
    9900012    2    1    2    0    0  0.47042283123E+00 -0.14296124718E+02  0.12086414202E+02  0.72461497714E+02  0.69999905451E+02 0.  0.
        -12    1    1    2    0    0 -0.47042283123E+00  0.14296124718E+02 -0.12086414202E+02  0.18726502286E+02  0.00000000000E+00 0.  1.
         11    1    3    3    0    0 -0.14788939866E+02 -0.23928681969E+02  0.25509040097E+02  0.37973750013E+02  0.51100000000E-03 0. -1.
        -11    1    3    3    0    0 -0.35221905148E+01 -0.46391821899E+01  0.21649150275E+01  0.62140723162E+01  0.51100000000E-03 0.  1.
        -12    1    3    3    0    0  0.18781553212E+02  0.14271739441E+02 -0.15587540923E+02  0.28273675385E+02  0.00000000000E+00 0.  1.
</event>
<event>
 7    1  0.2604986E-013  0.7246158E+02  0.7816164E-02  0.1226708E+00
        -11   -1    0    0    0    0  0.00000000000E+00  0.00000000000E+00  0.45593999997E+02  0.45594000000E+02  0.51100000000E-03 0.  1.
         11   -1    0    0    0    0 -0.00000000000E+00 -0.00000000000E+00 -0.45593999997E+02  0.45594000000E+02  0.51100000000E-03 0. -1.
    9900012    2    1    2    0    0  0.46766809381E+01 -0.17532740469E+02  0.46271449657E+01  0.72461580067E+02  0.70000012731E+02 0.  0.
        -12    1    1    2    0    0 -0.46766809381E+01  0.17532740469E+02 -0.46271449657E+01  0.18726419933E+02  0.00000000000E+00 0.  1.
         11    1    3    3    0    0  0.57248354108E+01 -0.19960773800E+02  0.21154758557E+02  0.29643381066E+02  0.51100000000E-03 0. -1.
        -11    1    3    3    0    0  0.96972851310E+00 -0.17931176785E+02 -0.27848224207E+01  0.18172030994E+02  0.51100000000E-03 0.  1.
         12    1    3    3    0    0 -0.20178829858E+01  0.20359210115E+02 -0.13742791171E+02  0.24646168007E+02  0.00000000000E+00 0. -1.
</event>
<event>
 7    1  0.2604986E-013  0.7246163E+02  0.7816164E-02  0.1226708E+00
        -11   -1    0    0    0    0  0.00000000000E+00  0.00000000000E+00  0.45593999997E+02  0.45594000000E+02  0.51100000000E-03 0.  1.
         11   -1    0    0    0    0 -0.00000000000E+00 -0.00000000000E+00 -0.45593999997E+02  0.45594000000E+02  0.51100000000E-03 0. -1.
    9900012    2    1    2    0    0 -0.10108662913E+01 -0.11151677391E+02 -0.15009837690E+02  0.72461628574E+02  0.70000075920E+02 0.  0.
        -12    1    1    2    0    0  0.10108662913E+01  0.11151677391E+02  0.15009837690E+02  0.18726371426E+02  0.00000000000E+00 0.  1.
         11    1    3    3    0    0 -0.19309317538E+02  0.12835161133E+02 -0.14395959697E+01  0.23230659524E+02  0.51100000000E-03 0. -1.
        -11    1    3    3    0    0  0.11484958556E+02 -0.86614064837E+01 -0.25064115521E+02  0.28898687210E+02  0.51100000000E-03 0.  1.
        -12    1    3    3    0    0  0.68134926908E+01 -0.15325432041E+02  0.11493873801E+02  0.20332281840E+02  0.00000000000E+00 0.  1.
</event>
<event>
 7    1  0.2604986E-013  0.7246163E+02  0.7816164E-02  0.1226708E+00
        -11   -1    0    0    0    0  0.00000000000E+00  0.00000000000E+00  0.45593999997E+02  0.45594000000E+02  0.51100000000E-03 0.  1.
         11   -1    0    0    0    0 -0.00000000000E+00 -0.00000000000E+00 -0.45593999997E+02  0.45594000000E+02  0.51100000000E-03 0. -1.
    9900012    2    1    2    0    0  0.90982929340E+01  0.71643611870E+01 -0.14716311528E+02  0.72461632746E+02  0.70000081355E+02 0.  0.
        -12    1    1    2    0    0 -0.90982929340E+01 -0.71643611870E+01  0.14716311528E+02  0.18726367254E+02  0.00000000000E+00 0.  1.
         11    1    3    3    0    0  0.50381202911E+01 -0.11884949558E+02  0.99675923293E+00  0.12947131393E+02  0.51100000000E-03 0. -1.
        -11    1    3    3    0    0  0.16231167967E+02  0.15394908043E+02  0.14553655682E+02  0.26688253992E+02  0.51100000000E-03 0.  1.
         12    1    3    3    0    0 -0.12170995324E+02  0.36544027023E+01 -0.30266726443E+02  0.32826247361E+02  0.00000000000E+00 0. -1.
</event>
<event>
 7    1  0.2604986E-013  0.7246159E+02  0.7816164E-02  0.1226708E+00
        -11   -1    0    0    0    0  0.00000000000E+00  0.00000000000E+00  0.45593999997E+02  0.45594000000E+02  0.51100000000E-03 0.  1.
         11   -1    0    0    0    0 -0.00000000000E+00 -0.00000000000E+00 -0.45593999997E+02  0.45594000000E+02  0.51100000000E-03 0. -1.
    9900012    2    1    2    0    0  0.14558242185E+02 -0.98484463929E+01 -0.64609818361E+01  0.72461585550E+02  0.70000019873E+02 0.  0.
        -12    1    1    2    0    0 -0.14558242185E+02  0.98484463929E+01  0.64609818361E+01  0.18726414450E+02  0.00000000000E+00 0.  1.
         11    1    3    3    0    0 -0.46263468458E+01  0.19448126921E+01  0.15682968746E+01  0.52578452710E+01  0.51100000000E-03 0. -1.
        -11    1    3    3    0    0 -0.18434119913E+02 -0.12336752914E+02 -0.17677332000E+02  0.28363714784E+02  0.51100000000E-03 0.  1.
         12    1    3    3    0    0  0.37618708944E+02  0.54349382898E+00  0.96480532893E+01  0.38840025495E+02  0.00000000000E+00 0. -1.
</event>
<event>
 7    1  0.2604986E-013  0.7246156E+02  0.7816164E-02  0.1226708E+00
        -11   -1    0    0    0    0  0.00000000000E+00  0.00000000000E+00  0.45593999997E+02  0.45594000000E+02  0.51100000000E-03 0. -1.
         11   -1    0    0    0    0 -0.00000000000E+00 -0.00000000000E+00 -0.45593999997E+02  0.45594000000E+02  0.51100000000E-03 0.  1.
    9900012    2    1    2    0    0  0.35421881165E+01 -0.97265396449E+00  0.18362634197E+02  0.72461561816E+02  0.69999988956E+02 0.  0.
        -12    1    1    2    0    0 -0.35421881165E+01  0.97265396449E+00 -0.18362634197E+02  0.18726438184E+02  0.00000000000E+00 0.  1.
         11    1    3    3    0    0 -0.14263900587E+02  0.64509508411E+01 -0.13604769977E+02  0.20740380736E+02  0.51100000000E-03 0. -1.
        -11    1    3    3    0    0  0.62525828136E+01  0.13856515582E+01 -0.73834058524E+01  0.97739195988E+01  0.51100000000E-03 0.  1.
         12    1    3    3    0    0  0.11553505890E+02 -0.88092563637E+01  0.39350810026E+02  0.41947261481E+02  0.00000000000E+00 0. -1.
</event>
<event>
 7    1  0.2604986E-013  0.7246151E+02  0.7816164E-02  0.1226708E+00
        -11   -1    0    0    0    0  0.00000000000E+00  0.00000000000E+00  0.45593999997E+02  0.45594000000E+02  0.51100000000E-03 0. -1.
         11   -1    0    0    0    0 -0.00000000000E+00 -0.00000000000E+00 -0.45593999997E+02  0.45594000000E+02  0.51100000000E-03 0.  1.
    9900012    2    1    2    0    0 -0.29364811075E+01 -0.18483035576E+02  0.66027919637E+00  0.72461508230E+02  0.69999919149E+02 0.  0.
        -12    1    1    2    0    0  0.29364811075E+01  0.18483035576E+02 -0.66027919637E+00  0.18726491770E+02  0.00000000000E+00 0.  1.
         11    1    3    3    0    0 -0.77485498583E+01 -0.10488809943E+01  0.50065034705E+01  0.92846784278E+01  0.51100000000E-03 0. -1.
        -11    1    3    3    0    0 -0.50084216702E+00  0.21738459128E+02 -0.86717357343E+01  0.23409623001E+02  0.51100000000E-03 0.  1.
         12    1    3    3    0    0  0.53129109178E+01 -0.39172613710E+02  0.43255114602E+01  0.39767206801E+02  0.00000000000E+00 0. -1.
</event>
<event>
 7    1  0.2604986E-013  0.7246128E+02  0.7816164E-02  0.1226709E+00
        -11   -1    0    0    0    0  0.00000000000E+00  0.00000000000E+00  0.45593999997E+02  0.45594000000E+02  0.51100000000E-03 0.  1.
         11   -1    0    0    0    0 -0.00000000000E+00 -0.00000000000E+00 -0.45593999997E+02  0.45594000000E+02  0.51100000000E-03 0. -1.
    9900012    2    1    2    0    0 -0.54819395039E+01  0.65703347967E+01 -0.16657405342E+02  0.72461278109E+02  0.69999619373E+02 0.  0.
        -12    1    1    2    0    0  0.54819395039E+01 -0.65703347967E+01  0.16657405342E+02  0.18726721891E+02  0.00000000000E+00 0.  1.
         11    1    3    3    0    0  0.21159851222E+02  0.93621817973E+01  0.35637030014E+01  0.23411316304E+02  0.51100000000E-03 0. -1.
        -11    1    3    3    0    0  0.87985845883E+01 -0.93038924628E+00 -0.16672649274E+01  0.90033597899E+01  0.51100000000E-03 0.  1.
        -12    1    3    3    0    0 -0.35440375315E+02 -0.18614577543E+01 -0.18553843416E+02  0.40046602015E+02  0.00000000000E+00 0.  1.
</event>
<event>
 7    1  0.2604986E-013  0.7246156E+02  0.7816164E-02  0.1226708E+00
        -11   -1    0    0    0    0  0.00000000000E+00  0.00000000000E+00  0.45593999997E+02  0.45594000000E+02  0.51100000000E-03 0. -1.
         11   -1    0    0    0    0 -0.00000000000E+00 -0.00000000000E+00 -0.45593999997E+02  0.45594000000E+02  0.51100000000E-03 0.  1.
    9900012    2    1    2    0    0 -0.11939062032E+02  0.39002346572E+01  0.13889796615E+02  0.72461561935E+02  0.69999989110E+02 0.  0.
        -12    1    1    2    0    0  0.11939062032E+02 -0.39002346572E+01 -0.13889796615E+02  0.18726438065E+02  0.00000000000E+00 0.  1.
         11    1    3    3    0    0  0.34777834142E+01  0.84974306330E+01  0.71060620934E+01  0.11610229265E+02  0.51100000000E-03 0. -1.
        -11    1    3    3    0    0  0.18223693015E+02  0.11476539344E+02  0.93527993091E+01  0.23479539978E+02  0.51100000000E-03 0.  1.
        -12    1    3    3    0    0 -0.33640538462E+02 -0.16073735319E+02 -0.25690647874E+01  0.37371792692E+02  0.00000000000E+00 0.  1.
</event>
<event>
 7    1  0.2604986E-013  0.7246145E+02  0.7816164E-02  0.1226708E+00
        -11   -1    0    0    0    0  0.00000000000E+00  0.00000000000E+00  0.45593999997E+02  0.45594000000E+02  0.51100000000E-03 0.  1.
         11   -1    0    0    0    0 -0.00000000000E+00 -0.00000000000E+00 -0.45593999997E+02  0.45594000000E+02  0.51100000000E-03 0. -1.
    9900012    2    1    2    0    0 -0.21193390447E+01  0.90883358723E+01 -0.16235584827E+02  0.72461450355E+02  0.69999843757E+02 0.  0.
        -12    1    1    2    0    0  0.21193390447E+01 -0.90883358723E+01  0.16235584827E+02  0.18726549645E+02  0.00000000000E+00 0.  1.
         11    1    3    3    0    0  0.19803536601E+02  0.13245405511E+02 -0.82253437316E+01  0.25204704101E+02  0.51100000000E-03 0.  1.
        -11    1    3    3    0    0 -0.32120891252E+01 -0.88851657966E+01  0.14687293740E+02  0.17463684761E+02  0.51100000000E-03 0. -1.
         12    1    3    3    0    0 -0.18710786521E+02  0.47280961582E+01 -0.22697534835E+02  0.29793061493E+02  0.00000000000E+00 0. -1.
</event>
<event>
 7    1  0.2604986E-013  0.7246150E+02  0.7816164E-02  0.1226708E+00
        -11   -1    0    0    0    0  0.00000000000E+00  0.00000000000E+00  0.45593999997E+02  0.45594000000E+02  0.51100000000E-03 0. -1.
         11   -1    0    0    0    0 -0.00000000000E+00 -0.00000000000E+00 -0.45593999997E+02  0.45594000000E+02  0.51100000000E-03 0.  1.
    9900012    2    1    2    0    0  0.10492082797E+02 -0.42962616955E+01  0.14904364774E+02  0.72461501254E+02  0.69999910061E+02 0.  0.
        -12    1    1    2    0    0 -0.10492082797E+02  0.42962616955E+01 -0.14904364774E+02  0.18726498746E+02  0.00000000000E+00 0.  1.
         11    1    3    3    0    0 -0.82067492937E+00 -0.10929728021E+01  0.10203362612E+02  0.10294498810E+02  0.51100000000E-03 0. -1.
        -11    1    3    3    0    0  0.12977905963E+02  0.25749678469E+02 -0.88411109629E+01  0.30160192768E+02  0.51100000000E-03 0.  1.
         12    1    3    3    0    0 -0.16651482369E+01 -0.28952967363E+02  0.13542113125E+02  0.32006809676E+02  0.00000000000E+00 0. -1.
</event>
<event>
 7    1  0.2604986E-013  0.7246156E+02  0.7816164E-02  0.1226708E+00
        -11   -1    0    0    0    0  0.00000000000E+00  0.00000000000E+00  0.45593999997E+02  0.45594000000E+02  0.51100000000E-03 0. -1.
         11   -1    0    0    0    0 -0.00000000000E+00 -0.00000000000E+00 -0.45593999997E+02  0.45594000000E+02  0.51100000000E-03 0.  1.
    9900012    2    1    2    0    0 -0.14784602551E+02  0.75482016450E+01  0.86671565976E+01  0.72461563496E+02  0.69999991144E+02 0.  0.
        -12    1    1    2    0    0  0.14784602551E+02 -0.75482016450E+01 -0.86671565976E+01  0.18726436504E+02  0.00000000000E+00 0.  1.
         11    1    3    3    0    0 -0.16893137809E+02 -0.63595364636E+01  0.17364544754E+02  0.25046940409E+02  0.51100000000E-03 0. -1.
        -11    1    3    3    0    0  0.15222053193E+02 -0.98736951439E+00  0.11496889488E+02  0.19101420631E+02  0.51100000000E-03 0.  1.
        -12    1    3    3    0    0 -0.13113517935E+02  0.14895107623E+02 -0.20194277644E+02  0.28313202456E+02  0.00000000000E+00 0.  1.
</event>
<event>
 7    1  0.2604986E-013  0.7246158E+02  0.7816164E-02  0.1226708E+00
        -11   -1    0    0    0    0  0.00000000000E+00  0.00000000000E+00  0.45593999997E+02  0.45594000000E+02  0.51100000000E-03 0.  1.
         11   -1    0    0    0    0 -0.00000000000E+00 -0.00000000000E+00 -0.45593999997E+02  0.45594000000E+02  0.51100000000E-03 0. -1.
    9900012    2    1    2    0    0 -0.89202329122E+01 -0.15503748985E+02 -0.55445642995E+01  0.72461575326E+02  0.70000006555E+02 0.  0.
        -12    1    1    2    0    0  0.89202329122E+01  0.15503748985E+02  0.55445642995E+01  0.18726424674E+02  0.00000000000E+00 0.  1.
         11    1    3    3    0    0  0.44986494481E+01 -0.98283684611E+01 -0.26124993503E+02  0.28272777706E+02  0.51100000000E-03 0. -1.
        -11    1    3    3    0    0 -0.20419768621E+02 -0.10489939443E+02  0.11540724705E+01  0.22985596872E+02  0.51100000000E-03 0.  1.
        -12    1    3    3    0    0  0.70008862606E+01  0.48145589192E+01  0.19426356733E+02  0.21203200747E+02  0.00000000000E+00 0.  1.
</event>
<event>
 7    1  0.2604986E-013  0.7246158E+02  0.7816164E-02  0.1226708E+00
        -11   -1    0    0    0    0  0.00000000000E+00  0.00000000000E+00  0.45593999997E+02  0.45594000000E+02  0.51100000000E-03 0.  1.
         11   -1    0    0    0    0 -0.00000000000E+00 -0.00000000000E+00 -0.45593999997E+02  0.45594000000E+02  0.51100000000E-03 0. -1.
    9900012    2    1    2    0    0 -0.64510964860E+01 -0.55180518515E+01  0.16691711401E+02  0.72461580919E+02  0.70000013840E+02 0.  0.
        -12    1    1    2    0    0  0.64510964860E+01  0.55180518515E+01 -0.16691711401E+02  0.18726419081E+02  0.00000000000E+00 0.  1.
         11    1    3    3    0    0  0.12166307237E+02 -0.73977138420E+01 -0.58123767764E-01  0.14238981021E+02  0.51100000000E-03 0. -1.
        -11    1    3    3    0    0  0.14461701211E+02  0.56167686880E+00  0.20296314117E+02  0.24927828823E+02  0.51100000000E-03 0.  1.
         12    1    3    3    0    0 -0.33079104934E+02  0.13179851216E+01 -0.35464789476E+01  0.33294771075E+02  0.00000000000E+00 0. -1.
</event>
<event>
 7    1  0.2604986E-013  0.7246150E+02  0.7816164E-02  0.1226708E+00
        -11   -1    0    0    0    0  0.00000000000E+00  0.00000000000E+00  0.45593999997E+02  0.45594000000E+02  0.51100000000E-03 0.  1.
         11   -1    0    0    0    0 -0.00000000000E+00 -0.00000000000E+00 -0.45593999997E+02  0.45594000000E+02  0.51100000000E-03 0. -1.
    9900012    2    1    2    0    0  0.44617222898E+01  0.94160528938E+01 -0.15559974943E+02  0.72461499042E+02  0.69999907181E+02 0.  0.
        -12    1    1    2    0    0 -0.44617222898E+01 -0.94160528938E+01  0.15559974943E+02  0.18726500958E+02  0.00000000000E+00 0.  1.
         11    1    3    3    0    0  0.82571621803E+01 -0.47594014884E+01 -0.19280069340E+02  0.21507061720E+02  0.51100000000E-03 0. -1.
        -11    1    3    3    0    0 -0.13192762463E+02  0.57219784363E+01 -0.19670901472E+02  0.24366665418E+02  0.51100000000E-03 0.  1.
        -12    1    3    3    0    0  0.93973225726E+01  0.84534759459E+01  0.23390995868E+02  0.26587771904E+02  0.00000000000E+00 0.  1.
</event>
<event>
 7    1  0.2604986E-013  0.7246151E+02  0.7816164E-02  0.1226708E+00
        -11   -1    0    0    0    0  0.00000000000E+00  0.00000000000E+00  0.45593999997E+02  0.45594000000E+02  0.51100000000E-03 0.  1.
         11   -1    0    0    0    0 -0.00000000000E+00 -0.00000000000E+00 -0.45593999997E+02  0.45594000000E+02  0.51100000000E-03 0. -1.
    9900012    2    1    2    0    0 -0.14349793035E+02 -0.30899053190E+00 -0.12027852919E+02  0.72461513914E+02  0.69999926554E+02 0.  0.
        -12    1    1    2    0    0  0.14349793035E+02  0.30899053190E+00  0.12027852919E+02  0.18726486086E+02  0.00000000000E+00 0.  1.
         11    1    3    3    0    0 -0.56596225379E+01 -0.45355065267E+01  0.60074995008E+01  0.94176534890E+01  0.51100000000E-03 0. -1.
        -11    1    3    3    0    0  0.13828820870E+02 -0.82528349435E+01  0.14420166948E+02  0.21616817211E+02  0.51100000000E-03 0.  1.
         12    1    3    3    0    0 -0.22518991366E+02  0.12479350938E+02 -0.32455519368E+02  0.41427043214E+02  0.00000000000E+00 0. -1.
</event>
<event>
 7    1  0.2604986E-013  0.7246157E+02  0.7816164E-02  0.1226708E+00
        -11   -1    0    0    0    0  0.00000000000E+00  0.00000000000E+00  0.45593999997E+02  0.45594000000E+02  0.51100000000E-03 0.  1.
         11   -1    0    0    0    0 -0.00000000000E+00 -0.00000000000E+00 -0.45593999997E+02  0.45594000000E+02  0.51100000000E-03 0. -1.
    9900012    2    1    2    0    0 -0.25647399124E+01 -0.96921995746E+01 -0.15816531792E+02  0.72461566775E+02  0.69999995415E+02 0.  0.
        -12    1    1    2    0    0  0.25647399124E+01  0.96921995746E+01  0.15816531792E+02  0.18726433225E+02  0.00000000000E+00 0.  1.
         11    1    3    3    0    0  0.84350582624E+01 -0.22139540855E+01 -0.65376485366E+01  0.10899204064E+02  0.51100000000E-03 0. -1.
        -11    1    3    3    0    0  0.11026104058E+02 -0.22257503806E+02 -0.21034957242E+02  0.32549053332E+02  0.51100000000E-03 0.  1.
         12    1    3    3    0    0 -0.22025902233E+02  0.14779258317E+02  0.11756073987E+02  0.29013309379E+02  0.00000000000E+00 0. -1.
</event>
<event>
 7    1  0.2604986E-013  0.7246157E+02  0.7816164E-02  0.1226708E+00
        -11   -1    0    0    0    0  0.00000000000E+00  0.00000000000E+00  0.45593999997E+02  0.45594000000E+02  0.51100000000E-03 0. -1.
         11   -1    0    0    0    0 -0.00000000000E+00 -0.00000000000E+00 -0.45593999997E+02  0.45594000000E+02  0.51100000000E-03 0.  1.
    9900012    2    1    2    0    0  0.14019047471E+02  0.55087418077E+01  0.11126508124E+02  0.72461571848E+02  0.70000002024E+02 0.  0.
        -12    1    1    2    0    0 -0.14019047471E+02 -0.55087418077E+01 -0.11126508124E+02  0.18726428152E+02  0.00000000000E+00 0.  1.
         11    1    3    3    0    0  0.14938912470E+02 -0.43166650568E+01 -0.26661655121E+01  0.15776981390E+02  0.51100000000E-03 0. -1.
        -11    1    3    3    0    0  0.25820014641E+02 -0.14736394979E+01  0.48831999294E+01  0.26319012354E+02  0.51100000000E-03 0.  1.
         12    1    3    3    0    0 -0.26739879640E+02  0.11299046362E+02  0.89094737067E+01  0.30365578104E+02  0.00000000000E+00 0. -1.
</event>
<event>
 7    1  0.2604986E-013  0.7246159E+02  0.7816164E-02  0.1226708E+00
        -11   -1    0    0    0    0  0.00000000000E+00  0.00000000000E+00  0.45593999997E+02  0.45594000000E+02  0.51100000000E-03 0. -1.
         11   -1    0    0    0    0 -0.00000000000E+00 -0.00000000000E+00 -0.45593999997E+02  0.45594000000E+02  0.51100000000E-03 0.  1.
    9900012    2    1    2    0    0  0.59942014117E+01  0.19109444393E+01  0.17637922520E+02  0.72461588971E+02  0.70000024330E+02 0.  0.
        -12    1    1    2    0    0 -0.59942014117E+01 -0.19109444393E+01 -0.17637922520E+02  0.18726411029E+02  0.00000000000E+00 0.  1.
         11    1    3    3    0    0  0.70410110852E+01  0.80795026610E+01  0.29470558264E+01  0.11114825174E+02  0.51100000000E-03 0. -1.
        -11    1    3    3    0    0 -0.21043822917E+00  0.26523921429E+02  0.98132642506E+01  0.28281846611E+02  0.51100000000E-03 0.  1.
         12    1    3    3    0    0 -0.83637144439E+00 -0.32692479651E+02  0.48776024429E+01  0.33064917186E+02  0.00000000000E+00 0. -1.
</event>
<event>
 7    1  0.2604986E-013  0.7246160E+02  0.7816164E-02  0.1226708E+00
        -11   -1    0    0    0    0  0.00000000000E+00  0.00000000000E+00  0.45593999997E+02  0.45594000000E+02  0.51100000000E-03 0.  1.
         11   -1    0    0    0    0 -0.00000000000E+00 -0.00000000000E+00 -0.45593999997E+02  0.45594000000E+02  0.51100000000E-03 0. -1.
    9900012    2    1    2    0    0 -0.53709972505E+01  0.17938929757E+02 -0.15903980530E+00  0.72461598692E+02  0.70000036993E+02 0.  0.
        -12    1    1    2    0    0  0.53709972505E+01 -0.17938929757E+02  0.15903980530E+00  0.18726401308E+02  0.00000000000E+00 0.  1.
         11    1    3    3    0    0 -0.23085005772E+02  0.88015167489E+01 -0.89846963986E+00  0.24722286232E+02  0.51100000000E-03 0. -1.
        -11    1    3    3    0    0 -0.13432657318E+02 -0.10776191640E+01 -0.51669974584E+01  0.14432442921E+02  0.51100000000E-03 0.  1.
         12    1    3    3    0    0  0.31146665839E+02  0.10215032172E+02  0.59064272930E+01  0.33306869539E+02  0.00000000000E+00 0. -1.
</event>
<event>
 7    1  0.2604986E-013  0.7246166E+02  0.7816164E-02  0.1226708E+00
        -11   -1    0    0    0    0  0.00000000000E+00  0.00000000000E+00  0.45593999997E+02  0.45594000000E+02  0.51100000000E-03 0. -1.
         11   -1    0    0    0    0 -0.00000000000E+00 -0.00000000000E+00 -0.45593999997E+02  0.45594000000E+02  0.51100000000E-03 0.  1.
    9900012    2    1    2    0    0  0.72098888102E+01 -0.50483181064E+00  0.17275375953E+02  0.72461655825E+02  0.70000111420E+02 0.  0.
        -12    1    1    2    0    0 -0.72098888102E+01  0.50483181064E+00 -0.17275375953E+02  0.18726344175E+02  0.00000000000E+00 0.  1.
         11    1    3    3    0    0  0.22507787415E+02  0.24002286982E+01  0.38110191590E+01  0.22953985697E+02  0.51100000000E-03 0. -1.
        -11    1    3    3    0    0  0.52384120872E+01  0.27794994342E+01 -0.13732005160E+02  0.14957758665E+02  0.51100000000E-03 0.  1.
        -12    1    3    3    0    0 -0.20536310692E+02 -0.56845599430E+01  0.27196361954E+02  0.34549911463E+02  0.00000000000E+00 0.  1.
</event>
<event>
 7    1  0.2604986E-013  0.7246159E+02  0.7816164E-02  0.1226708E+00
        -11   -1    0    0    0    0  0.00000000000E+00  0.00000000000E+00  0.45593999997E+02  0.45594000000E+02  0.51100000000E-03 0.  1.
         11   -1    0    0    0    0 -0.00000000000E+00 -0.00000000000E+00 -0.45593999997E+02  0.45594000000E+02  0.51100000000E-03 0. -1.
    9900012    2    1    2    0    0 -0.12599094306E+01  0.18523899527E+02 -0.24405213616E+01  0.72461591643E+02  0.70000027810E+02 0.  0.
        -12    1    1    2    0    0  0.12599094306E+01 -0.18523899527E+02  0.24405213616E+01  0.18726408357E+02  0.00000000000E+00 0.  1.
         11    1    3    3    0    0 -0.21038559540E+02 -0.12215923083E+02  0.29057536559E+01  0.24500880981E+02  0.51100000000E-03 0. -1.
        -11    1    3    3    0    0 -0.51547455517E+01  0.12681803096E+02  0.62690486151E+01  0.15056576711E+02  0.51100000000E-03 0.  1.
        -12    1    3    3    0    0  0.24933395661E+02  0.18058019514E+02 -0.11615323633E+02  0.32904133950E+02  0.00000000000E+00 0.  1.
</event>
<event>
 7    1  0.2604986E-013  0.7246160E+02  0.7816164E-02  0.1226708E+00
        -11   -1    0    0    0    0  0.00000000000E+00  0.00000000000E+00  0.45593999997E+02  0.45594000000E+02  0.51100000000E-03 0.  1.
         11   -1    0    0    0    0 -0.00000000000E+00 -0.00000000000E+00 -0.45593999997E+02  0.45594000000E+02  0.51100000000E-03 0. -1.
    9900012    2    1    2    0    0 -0.18070545579E+01  0.16120923850E+02 -0.93556621044E+01  0.72461600309E+02  0.70000039100E+02 0.  0.
        -12    1    1    2    0    0  0.18070545579E+01 -0.16120923850E+02  0.93556621044E+01  0.18726399691E+02  0.00000000000E+00 0.  1.
         11    1    3    3    0    0 -0.41284309780E+01 -0.64286151104E+01  0.52384316632E+01  0.92634875252E+01  0.51100000000E-03 0. -1.
        -11    1    3    3    0    0  0.76659891045E+00 -0.19333961066E+02 -0.71608870063E+01  0.20631723810E+02  0.51100000000E-03 0.  1.
         12    1    3    3    0    0  0.15547775096E+01  0.41883500026E+02 -0.74332067614E+01  0.42566388974E+02  0.00000000000E+00 0. -1.
</event>
<event>
 7    1  0.2604986E-013  0.7246189E+02  0.7816164E-02  0.1226707E+00
        -11   -1    0    0    0    0  0.00000000000E+00  0.00000000000E+00  0.45593999997E+02  0.45594000000E+02  0.51100000000E-03 0.  1.
         11   -1    0    0    0    0 -0.00000000000E+00 -0.00000000000E+00 -0.45593999997E+02  0.45594000000E+02  0.51100000000E-03 0. -1.
    9900012    2    1    2    0    0  0.84434689653E+01 -0.13105804289E+02  0.10373666164E+02  0.72461889248E+02  0.70000415495E+02 0.  0.
        -12    1    1    2    0    0 -0.84434689653E+01  0.13105804289E+02 -0.10373666164E+02  0.18726110752E+02  0.00000000000E+00 0.  1.
         11    1    3    3    0    0 -0.49979680378E+01  0.75680751469E+01 -0.66963390548E+01  0.11273704047E+02  0.51100000000E-03 0. -1.
        -11    1    3    3    0    0 -0.13064231779E+02  0.50153643801E+01  0.19720662309E+02  0.24181243847E+02  0.51100000000E-03 0.  1.
         12    1    3    3    0    0  0.26505668782E+02 -0.25689243816E+02 -0.26506570899E+01  0.37006941354E+02  0.00000000000E+00 0. -1.
</event>
<event>
 7    1  0.2604986E-013  0.7246170E+02  0.7816164E-02  0.1226708E+00
        -11   -1    0    0    0    0  0.00000000000E+00  0.00000000000E+00  0.45593999997E+02  0.45594000000E+02  0.51100000000E-03 0.  1.
         11   -1    0    0    0    0 -0.00000000000E+00 -0.00000000000E+00 -0.45593999997E+02  0.45594000000E+02  0.51100000000E-03 0. -1.
    9900012    2    1    2    0    0  0.14418480878E+02  0.16872198118E+01 -0.11829413767E+02  0.72461699468E+02  0.70000168273E+02 0.  0.
        -12    1    1    2    0    0 -0.14418480878E+02 -0.16872198118E+01  0.11829413767E+02  0.18726300532E+02  0.00000000000E+00 0.  1.
         11    1    3    3    0    0 -0.13324458967E+01 -0.21173437053E+01 -0.26477510420E+02  0.26595434096E+02  0.51100000000E-03 0. -1.
        -11    1    3    3    0    0 -0.15282882070E+01 -0.16142600976E+02  0.12325094590E+01  0.16261559303E+02  0.51100000000E-03 0.  1.
        -12    1    3    3    0    0  0.17279214982E+02  0.19947164494E+02  0.13415587194E+02  0.29604706070E+02  0.00000000000E+00 0.  1.
</event>
<event>
 7    1  0.2604986E-013  0.7246156E+02  0.7816164E-02  0.1226708E+00
        -11   -1    0    0    0    0  0.00000000000E+00  0.00000000000E+00  0.45593999997E+02  0.45594000000E+02  0.51100000000E-03 0. -1.
         11   -1    0    0    0    0 -0.00000000000E+00 -0.00000000000E+00 -0.45593999997E+02  0.45594000000E+02  0.51100000000E-03 0.  1.
    9900012    2    1    2    0    0  0.13051371259E+02 -0.85683963529E+01  0.10340405194E+02  0.72461556468E+02  0.69999981988E+02 0.  0.
        -12    1    1    2    0    0 -0.13051371259E+02  0.85683963529E+01 -0.10340405194E+02  0.18726443532E+02  0.00000000000E+00 0.  1.
         11    1    3    3    0    0 -0.10490223868E+02  0.66041240133E+01 -0.10453515900E+02  0.16215278157E+02  0.51100000000E-03 0. -1.
        -11    1    3    3    0    0  0.87709433080E-02  0.81522093388E+01 -0.86745950971E+01  0.11904083097E+02  0.51100000000E-03 0.  1.
         12    1    3    3    0    0  0.23532824184E+02 -0.23324729705E+02  0.29468516190E+02  0.44342195213E+02  0.00000000000E+00 0. -1.
</event>
<event>
 7    1  0.2604986E-013  0.7246159E+02  0.7816164E-02  0.1226708E+00
        -11   -1    0    0    0    0  0.00000000000E+00  0.00000000000E+00  0.45593999997E+02  0.45594000000E+02  0.51100000000E-03 0. -1.
         11   -1    0    0    0    0 -0.00000000000E+00 -0.00000000000E+00 -0.45593999997E+02  0.45594000000E+02  0.51100000000E-03 0.  1.
    9900012    2    1    2    0    0 -0.16877298035E+02  0.51390597034E+01  0.62789455027E+01  0.72461594039E+02  0.70000030932E+02 0.  0.
        -12    1    1    2    0    0  0.16877298035E+02 -0.51390597034E+01 -0.62789455027E+01  0.18726405961E+02  0.00000000000E+00 0.  1.
         11    1    3    3    0    0 -0.25712759294E+01 -0.71613218898E+01  0.12914296275E+02  0.14989164075E+02  0.51100000000E-03 0. -1.
        -11    1    3    3    0    0  0.20601796423E+02  0.26826200269E+01 -0.40905924476E+01  0.21174593571E+02  0.51100000000E-03 0.  1.
         12    1    3    3    0    0 -0.34907818528E+02  0.96177615663E+01 -0.25447583247E+01  0.36297836394E+02  0.00000000000E+00 0. -1.
</event>
<event>
 7    1  0.2604986E-013  0.7246157E+02  0.7816164E-02  0.1226708E+00
        -11   -1    0    0    0    0  0.00000000000E+00  0.00000000000E+00  0.45593999997E+02  0.45594000000E+02  0.51100000000E-03 0.  1.
         11   -1    0    0    0    0 -0.00000000000E+00 -0.00000000000E+00 -0.45593999997E+02  0.45594000000E+02  0.51100000000E-03 0. -1.
    9900012    2    1    2    0    0 -0.48876021423E+01  0.14730562312E+02 -0.10478598865E+02  0.72461570685E+02  0.70000000509E+02 0.  0.
        -12    1    1    2    0    0  0.48876021423E+01 -0.14730562312E+02  0.10478598865E+02  0.18726429315E+02  0.00000000000E+00 0.  1.
         11    1    3    3    0    0  0.17294741765E+01 -0.69016349903E+01 -0.75797329764E+01  0.10395960693E+02  0.51100000000E-03 0. -1.
        -11    1    3    3    0    0 -0.20052628299E+02 -0.10554335477E+02 -0.12514046620E+02  0.25886352816E+02  0.51100000000E-03 0.  1.
         12    1    3    3    0    0  0.13435551980E+02  0.32186532779E+02  0.96151807310E+01  0.36179257176E+02  0.00000000000E+00 0. -1.
</event>
<event>
 7    1  0.2604986E-013  0.7246165E+02  0.7816164E-02  0.1226708E+00
        -11   -1    0    0    0    0  0.00000000000E+00  0.00000000000E+00  0.45593999997E+02  0.45594000000E+02  0.51100000000E-03 0.  1.
         11   -1    0    0    0    0 -0.00000000000E+00 -0.00000000000E+00 -0.45593999997E+02  0.45594000000E+02  0.51100000000E-03 0. -1.
    9900012    2    1    2    0    0  0.16713284408E+02  0.52742229483E+01 -0.65973384265E+01  0.72461650176E+02  0.70000104061E+02 0.  0.
        -12    1    1    2    0    0 -0.16713284408E+02 -0.52742229483E+01  0.65973384265E+01  0.18726349824E+02  0.00000000000E+00 0.  1.
         11    1    3    3    0    0  0.28949886859E+02  0.21309970874E+02  0.21265674590E-01  0.35947340100E+02  0.51100000000E-03 0. -1.
        -11    1    3    3    0    0  0.37709853704E+01  0.69442959999E+01 -0.15959454019E+01  0.80616759787E+01  0.51100000000E-03 0.  1.
        -12    1    3    3    0    0 -0.16007587821E+02 -0.22980043926E+02 -0.50226586992E+01  0.28452634097E+02  0.00000000000E+00 0.  1.
</event>
<event>
 7    1  0.2604986E-013  0.7246169E+02  0.7816164E-02  0.1226708E+00
        -11   -1    0    0    0    0  0.00000000000E+00  0.00000000000E+00  0.45593999997E+02  0.45594000000E+02  0.51100000000E-03 0. -1.
         11   -1    0    0    0    0 -0.00000000000E+00 -0.00000000000E+00 -0.45593999997E+02  0.45594000000E+02  0.51100000000E-03 0.  1.
    9900012    2    1    2    0    0 -0.14132989432E+02 -0.96336965147E+01  0.76239803148E+01  0.72461692979E+02  0.70000159819E+02 0.  0.
        -12    1    1    2    0    0  0.14132989432E+02  0.96336965147E+01 -0.76239803148E+01  0.18726307021E+02  0.00000000000E+00 0.  1.
         11    1    3    3    0    0 -0.59698194992E+01 -0.86156801608E+01  0.25885836571E+02  0.27927499436E+02  0.51100000000E-03 0. -1.
        -11    1    3    3    0    0 -0.60914630677E+01  0.18779469340E+02 -0.42593930071E+01  0.20196950761E+02  0.51100000000E-03 0.  1.
         12    1    3    3    0    0 -0.20717068646E+01 -0.19797485694E+02 -0.14002463249E+02  0.24337242781E+02  0.00000000000E+00 0. -1.
</event>
<event>
 7    1  0.2604986E-013  0.7246156E+02  0.7816164E-02  0.1226708E+00
        -11   -1    0    0    0    0  0.00000000000E+00  0.00000000000E+00  0.45593999997E+02  0.45594000000E+02  0.51100000000E-03 0.  1.
         11   -1    0    0    0    0 -0.00000000000E+00 -0.00000000000E+00 -0.45593999997E+02  0.45594000000E+02  0.51100000000E-03 0. -1.
    9900012    2    1    2    0    0 -0.15906103691E+02  0.76819877477E+01 -0.62179088029E+01  0.72461562531E+02  0.69999989887E+02 0.  0.
        -12    1    1    2    0    0  0.15906103691E+02 -0.76819877477E+01  0.62179088029E+01  0.18726437469E+02  0.00000000000E+00 0.  1.
         11    1    3    3    0    0 -0.90796995486E+01  0.19132003452E+02 -0.18521486935E+02  0.28133964856E+02  0.51100000000E-03 0. -1.
        -11    1    3    3    0    0 -0.28352400613E+01  0.12950305054E+02 -0.49793465894E+01  0.14161316320E+02  0.51100000000E-03 0.  1.
        -12    1    3    3    0    0 -0.39911640815E+01 -0.24400320758E+02  0.17282924722E+02  0.30166281355E+02  0.00000000000E+00 0.  1.
</event>
<event>
 7    1  0.2604986E-013  0.7246121E+02  0.7816164E-02  0.1226709E+00
        -11   -1    0    0    0    0  0.00000000000E+00  0.00000000000E+00  0.45593999997E+02  0.45594000000E+02  0.51100000000E-03 0. -1.
         11   -1    0    0    0    0 -0.00000000000E+00 -0.00000000000E+00 -0.45593999997E+02  0.45594000000E+02  0.51100000000E-03 0.  1.
    9900012    2    1    2    0    0  0.45528029999E+01 -0.79558148992E+01  0.16330028126E+02  0.72461205708E+02  0.69999525057E+02 0.  0.
        -12    1    1    2    0    0 -0.45528029999E+01  0.79558148992E+01 -0.16330028126E+02  0.18726794292E+02  0.00000000000E+00 0.  1.
         11    1    3    3    0    0 -0.12961342105E+02  0.90429586285E+01  0.55232284721E+00  0.15813808862E+02  0.51100000000E-03 0. -1.
        -11    1    3    3    0    0  0.60741237317E+01  0.14283259632E+02 -0.62304594071E+01  0.16724984589E+02  0.51100000000E-03 0.  1.
         12    1    3    3    0    0  0.11440021374E+02 -0.31282033159E+02  0.22008164685E+02  0.39922412257E+02  0.00000000000E+00 0. -1.
</event>
<event>
 7    1  0.2604986E-013  0.7246102E+02  0.7816164E-02  0.1226709E+00
        -11   -1    0    0    0    0  0.00000000000E+00  0.00000000000E+00  0.45593999997E+02  0.45594000000E+02  0.51100000000E-03 0. -1.
         11   -1    0    0    0    0 -0.00000000000E+00 -0.00000000000E+00 -0.45593999997E+02  0.45594000000E+02  0.51100000000E-03 0.  1.
    9900012    2    1    2    0    0  0.95885656776E+01 -0.13318032812E+02  0.90215969931E+01  0.72461019409E+02  0.69999282366E+02 0.  0.
        -12    1    1    2    0    0 -0.95885656776E+01  0.13318032812E+02 -0.90215969931E+01  0.18726980591E+02  0.00000000000E+00 0.  1.
         11    1    3    3    0    0  0.15029325216E+02  0.13476055795E+01 -0.12561052568E+02  0.19633560531E+02  0.51100000000E-03 0. -1.
        -11    1    3    3    0    0  0.13829601808E+02 -0.21974119110E+02  0.51525891962E+01  0.26470152484E+02  0.51100000000E-03 0.  1.
         12    1    3    3    0    0 -0.19270361345E+02  0.73084807183E+01  0.16430060365E+02  0.26357306395E+02  0.00000000000E+00 0. -1.
</event>
<event>
 7    1  0.2604986E-013  0.7246161E+02  0.7816164E-02  0.1226708E+00
        -11   -1    0    0    0    0  0.00000000000E+00  0.00000000000E+00  0.45593999997E+02  0.45594000000E+02  0.51100000000E-03 0. -1.
         11   -1    0    0    0    0 -0.00000000000E+00 -0.00000000000E+00 -0.45593999997E+02  0.45594000000E+02  0.51100000000E-03 0.  1.
    9900012    2    1    2    0    0 -0.15159414050E+02  0.55035441069E+01  0.95174001370E+01  0.72461608531E+02  0.70000049811E+02 0.  0.
        -12    1    1    2    0    0  0.15159414050E+02 -0.55035441069E+01 -0.95174001370E+01  0.18726391469E+02  0.00000000000E+00 0.  1.
         11    1    3    3    0    0  0.23675563394E+02  0.17446935796E+01  0.13831680129E+02  0.27475291321E+02  0.51100000000E-03 0. -1.
        -11    1    3    3    0    0 -0.75812790504E+01  0.62386891265E+01  0.65532166850E+01  0.11804307826E+02  0.51100000000E-03 0.  1.
        -12    1    3    3    0    0 -0.31253698394E+02 -0.24798385993E+01 -0.10867496677E+02  0.33182009385E+02  0.00000000000E+00 0.  1.
</event>
<event>
 7    1  0.2604986E-013  0.7246176E+02  0.7816164E-02  0.1226708E+00
        -11   -1    0    0    0    0  0.00000000000E+00  0.00000000000E+00  0.45593999997E+02  0.45594000000E+02  0.51100000000E-03 0.  1.
         11   -1    0    0    0    0 -0.00000000000E+00 -0.00000000000E+00 -0.45593999997E+02  0.45594000000E+02  0.51100000000E-03 0. -1.
    9900012    2    1    2    0    0 -0.12695895135E+02 -0.83198910699E+01 -0.10966571769E+02  0.72461760734E+02  0.70000248082E+02 0.  0.
        -12    1    1    2    0    0  0.12695895135E+02  0.83198910699E+01  0.10966571769E+02  0.18726239266E+02  0.00000000000E+00 0.  1.
         11    1    3    3    0    0 -0.14706097953E+02 -0.26295815939E+02  0.30167803241E+01  0.30279369490E+02  0.51100000000E-03 0. -1.
        -11    1    3    3    0    0  0.76132716617E+01 -0.84914275941E+01  0.65243302117E+00  0.11423305874E+02  0.51100000000E-03 0.  1.
        -12    1    3    3    0    0 -0.56030688435E+01  0.26467352463E+02 -0.14635785114E+02  0.30759085370E+02  0.00000000000E+00 0.  1.
</event>
<event>
 7    1  0.2604986E-013  0.7246155E+02  0.7816164E-02  0.1226708E+00
        -11   -1    0    0    0    0  0.00000000000E+00  0.00000000000E+00  0.45593999997E+02  0.45594000000E+02  0.51100000000E-03 0.  1.
         11   -1    0    0    0    0 -0.00000000000E+00 -0.00000000000E+00 -0.45593999997E+02  0.45594000000E+02  0.51100000000E-03 0. -1.
    9900012    2    1    2    0    0 -0.87988652167E+01 -0.11274503605E+01 -0.16492079203E+02  0.72461552129E+02  0.69999976337E+02 0.  0.
        -12    1    1    2    0    0  0.87988652167E+01  0.11274503605E+01  0.16492079203E+02  0.18726447871E+02  0.00000000000E+00 0.  1.
         11    1    3    3    0    0  0.77501480651E+01  0.71056937347E+00 -0.20090011819E+01  0.80377726937E+01  0.51100000000E-03 0. -1.
        -11    1    3    3    0    0  0.14449028959E+02 -0.21038887093E+02 -0.98231097898E+00  0.25541615905E+02  0.51100000000E-03 0.  1.
         12    1    3    3    0    0 -0.30998042241E+02  0.19200867359E+02 -0.13500767042E+02  0.38882163530E+02  0.00000000000E+00 0. -1.
</event>
<event>
 7    1  0.2604986E-013  0.7246158E+02  0.7816164E-02  0.1226708E+00
        -11   -1    0    0    0    0  0.00000000000E+00  0.00000000000E+00  0.45593999997E+02  0.45594000000E+02  0.51100000000E-03 0.  1.
         11   -1    0    0    0    0 -0.00000000000E+00 -0.00000000000E+00 -0.45593999997E+02  0.45594000000E+02  0.51100000000E-03 0. -1.
    9900012    2    1    2    0    0  0.11007945447E+01  0.14923905405E+02 -0.11258074414E+02  0.72461576404E+02  0.70000007959E+02 0.  0.
        -12    1    1    2    0    0 -0.11007945447E+01 -0.14923905405E+02  0.11258074414E+02  0.18726423596E+02  0.00000000000E+00 0.  1.
         11    1    3    3    0    0  0.11561687713E+02  0.88206650243E+00 -0.24769865644E+02  0.27349532142E+02  0.51100000000E-03 0. -1.
        -11    1    3    3    0    0 -0.75415879412E+01 -0.13292049267E+02  0.24365197099E+01  0.15475488715E+02  0.51100000000E-03 0.  1.
        -12    1    3    3    0    0 -0.29193052266E+01  0.27333888170E+02  0.11075271520E+02  0.29636555548E+02  0.00000000000E+00 0.  1.
</event>
<event>
 7    1  0.2604986E-013  0.7246127E+02  0.7816164E-02  0.1226709E+00
        -11   -1    0    0    0    0  0.00000000000E+00  0.00000000000E+00  0.45593999997E+02  0.45594000000E+02  0.51100000000E-03 0. -1.
         11   -1    0    0    0    0 -0.00000000000E+00 -0.00000000000E+00 -0.45593999997E+02  0.45594000000E+02  0.51100000000E-03 0.  1.
    9900012    2    1    2    0    0  0.81386651864E+01 -0.15616985676E+02  0.63688396308E+01  0.72461274957E+02  0.69999615267E+02 0.  0.
        -12    1    1    2    0    0 -0.81386651864E+01  0.15616985676E+02 -0.63688396308E+01  0.18726725043E+02  0.00000000000E+00 0.  1.
         11    1    3    3    0    0 -0.10260826501E+02 -0.35834032234E+02  0.86712913602E+01  0.38269488117E+02  0.51100000000E-03 0. -1.
        -11    1    3    3    0    0  0.40591692235E+01 -0.40655276179E+01 -0.16739246773E+01  0.59839279477E+01  0.51100000000E-03 0.  1.
        -12    1    3    3    0    0  0.14340322464E+02  0.24282574176E+02 -0.62852705211E+00  0.28207858892E+02  0.00000000000E+00 0.  1.
</event>
<event>
 7    1  0.2604986E-013  0.7246157E+02  0.7816164E-02  0.1226708E+00
        -11   -1    0    0    0    0  0.00000000000E+00  0.00000000000E+00  0.45593999997E+02  0.45594000000E+02  0.51100000000E-03 0.  1.
         11   -1    0    0    0    0 -0.00000000000E+00 -0.00000000000E+00 -0.45593999997E+02  0.45594000000E+02  0.51100000000E-03 0. -1.
    9900012    2    1    2    0    0 -0.11609493966E+02 -0.12815574550E+02 -0.71874784236E+01  0.72461570888E+02  0.70000000774E+02 0.  0.
        -12    1    1    2    0    0  0.11609493966E+02  0.12815574550E+02  0.71874784236E+01  0.18726429112E+02  0.00000000000E+00 0.  1.
         11    1    3    3    0    0 -0.63494334586E+01 -0.29156786031E+02 -0.24929616730E+02  0.38883406068E+02  0.51100000000E-03 0. -1.
        -11    1    3    3    0    0 -0.80059132940E+01 -0.15423942357E+01 -0.11912633896E+00  0.81540063156E+01  0.51100000000E-03 0.  1.
        -12    1    3    3    0    0  0.27458527863E+01  0.17883605717E+02  0.17861264645E+02  0.25424158505E+02  0.00000000000E+00 0.  1.
</event>
<event>
 7    1  0.2604986E-013  0.7246160E+02  0.7816164E-02  0.1226708E+00
        -11   -1    0    0    0    0  0.00000000000E+00  0.00000000000E+00  0.45593999997E+02  0.45594000000E+02  0.51100000000E-03 0. -1.
         11   -1    0    0    0    0 -0.00000000000E+00 -0.00000000000E+00 -0.45593999997E+02  0.45594000000E+02  0.51100000000E-03 0.  1.
    9900012    2    1    2    0    0  0.12471410734E+02 -0.11046543585E+02  0.85507767694E+01  0.72461601675E+02  0.70000040879E+02 0.  0.
        -12    1    1    2    0    0 -0.12471410734E+02  0.11046543585E+02 -0.85507767694E+01  0.18726398325E+02  0.00000000000E+00 0.  1.
         11    1    3    3    0    0 -0.20408332070E+02  0.76150005846E+01  0.74035501762E+01  0.23006538359E+02  0.51100000000E-03 0. -1.
        -11    1    3    3    0    0 -0.62907540450E+01 -0.12622940395E+01 -0.12103595967E+01  0.65293141532E+01  0.51100000000E-03 0.  1.
        -12    1    3    3    0    0  0.39170496849E+02 -0.17399250130E+02  0.23575861898E+01  0.42925749162E+02  0.00000000000E+00 0.  1.
</event>
<event>
 7    1  0.2604986E-013  0.7246164E+02  0.7816164E-02  0.1226708E+00
        -11   -1    0    0    0    0  0.00000000000E+00  0.00000000000E+00  0.45593999997E+02  0.45594000000E+02  0.51100000000E-03 0.  1.
         11   -1    0    0    0    0 -0.00000000000E+00 -0.00000000000E+00 -0.45593999997E+02  0.45594000000E+02  0.51100000000E-03 0. -1.
    9900012    2    1    2    0    0 -0.40472501183E+01  0.18237909612E+02 -0.12942637948E+01  0.72461636250E+02  0.70000085919E+02 0.  0.
        -12    1    1    2    0    0  0.40472501183E+01 -0.18237909612E+02  0.12942637948E+01  0.18726363750E+02  0.00000000000E+00 0.  1.
         11    1    3    3    0    0  0.57047806017E+01  0.76787801194E+00 -0.37074003321E+01  0.68468223169E+01  0.51100000000E-03 0. -1.
        -11    1    3    3    0    0  0.23344483204E+02 -0.70422680214E+01  0.68164796282E+00  0.24393094908E+02  0.51100000000E-03 0.  1.
         12    1    3    3    0    0 -0.33096513924E+02  0.24512299622E+02  0.17314885744E+01  0.41221719025E+02  0.00000000000E+00 0. -1.
</event>
<event>
 7    1  0.2604986E-013  0.7246167E+02  0.7816164E-02  0.1226708E+00
        -11   -1    0    0    0    0  0.00000000000E+00  0.00000000000E+00  0.45593999997E+02  0.45594000000E+02  0.51100000000E-03 0. -1.
         11   -1    0    0    0    0 -0.00000000000E+00 -0.00000000000E+00 -0.45593999997E+02  0.45594000000E+02  0.51100000000E-03 0.  1.
    9900012    2    1    2    0    0 -0.14913449505E+02 -0.51837680844E+01 -0.10069412392E+02  0.72461668442E+02  0.70000127856E+02 0.  0.
        -12    1    1    2    0    0  0.14913449505E+02  0.51837680844E+01  0.10069412392E+02  0.18726331558E+02  0.00000000000E+00 0.  1.
         11    1    3    3    0    0 -0.23440353527E+02  0.92837283185E+01 -0.73255653396E+01  0.26254555657E+02  0.51100000000E-03 0. -1.
        -11    1    3    3    0    0 -0.13522587459E+02 -0.33594819929E+00 -0.12345159863E+02  0.18313279473E+02  0.51100000000E-03 0.  1.
        -12    1    3    3    0    0  0.22049491480E+02 -0.14131548204E+02  0.96013128103E+01  0.27893833312E+02  0.00000000000E+00 0.  1.
</event>
<event>
 7    1  0.2604986E-013  0.7246157E+02  0.7816164E-02  0.1226708E+00
        -11   -1    0    0    0    0  0.00000000000E+00  0.00000000000E+00  0.45593999997E+02  0.45594000000E+02  0.51100000000E-03 0.  1.
         11   -1    0    0    0    0 -0.00000000000E+00 -0.00000000000E+00 -0.45593999997E+02  0.45594000000E+02  0.51100000000E-03 0. -1.
    9900012    2    1    2    0    0 -0.38500505290E+01  0.38846032354E+01 -0.17909946533E+02  0.72461569048E+02  0.69999998376E+02 0.  0.
        -12    1    1    2    0    0  0.38500505290E+01 -0.38846032354E+01  0.17909946533E+02  0.18726430952E+02  0.00000000000E+00 0.  1.
         11    1    3    3    0    0 -0.43018839274E+01  0.75927132636E+00 -0.13343414317E+02  0.14040277924E+02  0.51100000000E-03 0. -1.
        -11    1    3    3    0    0 -0.14280208815E+02  0.12273773477E+02 -0.25206493402E+02  0.31463267298E+02  0.51100000000E-03 0.  1.
         12    1    3    3    0    0  0.14732042213E+02 -0.91484415677E+01  0.20639961186E+02  0.26958023827E+02  0.00000000000E+00 0. -1.
</event>
<event>
 7    1  0.2604986E-013  0.7246154E+02  0.7816164E-02  0.1226708E+00
        -11   -1    0    0    0    0  0.00000000000E+00  0.00000000000E+00  0.45593999997E+02  0.45594000000E+02  0.51100000000E-03 0.  1.
         11   -1    0    0    0    0 -0.00000000000E+00 -0.00000000000E+00 -0.45593999997E+02  0.45594000000E+02  0.51100000000E-03 0. -1.
    9900012    2    1    2    0    0  0.79052076324E+01 -0.16973277336E+02  0.30952876011E+00  0.72461541197E+02  0.69999962095E+02 0.  0.
        -12    1    1    2    0    0 -0.79052076324E+01  0.16973277336E+02 -0.30952876011E+00  0.18726458803E+02  0.00000000000E+00 0.  1.
         11    1    3    3    0    0 -0.67245091360E+01 -0.36899387879E+01  0.53672517263E+01  0.93617339598E+01  0.51100000000E-03 0. -1.
        -11    1    3    3    0    0 -0.17364820711E+02  0.98001115845E+01  0.80844785561E+01  0.21515993567E+02  0.51100000000E-03 0.  1.
         12    1    3    3    0    0  0.31994537479E+02 -0.23083450133E+02 -0.13142201522E+02  0.41583813671E+02  0.00000000000E+00 0. -1.
</event>
<event>
 7    1  0.2604986E-013  0.7246157E+02  0.7816164E-02  0.1226708E+00
        -11   -1    0    0    0    0  0.00000000000E+00  0.00000000000E+00  0.45593999997E+02  0.45594000000E+02  0.51100000000E-03 0.  1.
         11   -1    0    0    0    0 -0.00000000000E+00 -0.00000000000E+00 -0.45593999997E+02  0.45594000000E+02  0.51100000000E-03 0. -1.
    9900012    2    1    2    0    0  0.17688324961E+02  0.56988725356E+01  0.23076361544E+01  0.72461570209E+02  0.69999999888E+02 0.  0.
        -12    1    1    2    0    0 -0.17688324961E+02 -0.56988725356E+01 -0.23076361544E+01  0.18726429791E+02  0.00000000000E+00 0.  1.
         11    1    3    3    0    0  0.13844071400E+02 -0.44669526602E+01  0.63680426058E+01  0.15879670837E+02  0.51100000000E-03 0. -1.
        -11    1    3    3    0    0  0.26079600520E+02  0.18208276579E+02  0.28856145113E+01  0.31937652867E+02  0.51100000000E-03 0.  1.
         12    1    3    3    0    0 -0.22235346959E+02 -0.80424513828E+01 -0.69460209627E+01  0.24644246506E+02  0.00000000000E+00 0. -1.
</event>
<event>
 7    1  0.2604986E-013  0.7246157E+02  0.7816164E-02  0.1226708E+00
        -11   -1    0    0    0    0  0.00000000000E+00  0.00000000000E+00  0.45593999997E+02  0.45594000000E+02  0.51100000000E-03 0.  1.
         11   -1    0    0    0    0 -0.00000000000E+00 -0.00000000000E+00 -0.45593999997E+02  0.45594000000E+02  0.51100000000E-03 0. -1.
    9900012    2    1    2    0    0 -0.15647183020E+02  0.85859596623E+01 -0.56680018480E+01  0.72461567219E+02  0.69999995993E+02 0.  0.
        -12    1    1    2    0    0  0.15647183020E+02 -0.85859596623E+01  0.56680018480E+01  0.18726432781E+02  0.00000000000E+00 0.  1.
         11    1    3    3    0    0 -0.10535819109E+02  0.10554454483E+02 -0.12568494945E+02  0.19503001286E+02  0.51100000000E-03 0. -1.
        -11    1    3    3    0    0 -0.12073871388E+02 -0.10331796661E+02  0.26292617731E+02  0.30721753530E+02  0.51100000000E-03 0.  1.
         12    1    3    3    0    0  0.69625074768E+01  0.83633018402E+01 -0.19392124634E+02  0.22236812403E+02  0.00000000000E+00 0. -1.
</event>
<event>
 7    1  0.2604986E-013  0.7246155E+02  0.7816164E-02  0.1226708E+00
        -11   -1    0    0    0    0  0.00000000000E+00  0.00000000000E+00  0.45593999997E+02  0.45594000000E+02  0.51100000000E-03 0.  1.
         11   -1    0    0    0    0 -0.00000000000E+00 -0.00000000000E+00 -0.45593999997E+02  0.45594000000E+02  0.51100000000E-03 0. -1.
    9900012    2    1    2    0    0  0.12266768874E+02  0.59350356376E+01 -0.12844525756E+02  0.72461545223E+02  0.69999967340E+02 0.  0.
        -12    1    1    2    0    0 -0.12266768874E+02 -0.59350356376E+01  0.12844525756E+02  0.18726454777E+02  0.00000000000E+00 0.  1.
         11    1    3    3    0    0 -0.14396230067E+01  0.15453441586E+02 -0.17905044279E+02  0.23695400021E+02  0.51100000000E-03 0. -1.
        -11    1    3    3    0    0  0.22021088941E+02  0.10209991034E+02 -0.55090906368E+01  0.24890206005E+02  0.51100000000E-03 0.  1.
        -12    1    3    3    0    0 -0.83146970609E+01 -0.19728396982E+02  0.10569609160E+02  0.23875939196E+02  0.00000000000E+00 0.  1.
</event>
<event>
 7    1  0.2604986E-013  0.7246160E+02  0.7816164E-02  0.1226708E+00
        -11   -1    0    0    0    0  0.00000000000E+00  0.00000000000E+00  0.45593999997E+02  0.45594000000E+02  0.51100000000E-03 0. -1.
         11   -1    0    0    0    0 -0.00000000000E+00 -0.00000000000E+00 -0.45593999997E+02  0.45594000000E+02  0.51100000000E-03 0.  1.
    9900012    2    1    2    0    0  0.35690841595E+01  0.15536525115E+02  0.98262946896E+01  0.72461600407E+02  0.70000039227E+02 0.  0.
        -12    1    1    2    0    0 -0.35690841595E+01 -0.15536525115E+02 -0.98262946896E+01  0.18726399593E+02  0.00000000000E+00 0.  1.
         11    1    3    3    0    0  0.15637021924E+02  0.94749384493E+01 -0.65866151037E+01  0.19433847073E+02  0.51100000000E-03 0. -1.
        -11    1    3    3    0    0  0.60484169228E+01  0.79396508138E+01 -0.14229520419E+02  0.17381042947E+02  0.51100000000E-03 0.  1.
         12    1    3    3    0    0 -0.18116354687E+02 -0.18780641480E+01  0.30642430212E+02  0.35646710387E+02  0.00000000000E+00 0. -1.
</event>
<event>
 7    1  0.2604986E-013  0.7246158E+02  0.7816164E-02  0.1226708E+00
        -11   -1    0    0    0    0  0.00000000000E+00  0.00000000000E+00  0.45593999997E+02  0.45594000000E+02  0.51100000000E-03 0.  1.
         11   -1    0    0    0    0 -0.00000000000E+00 -0.00000000000E+00 -0.45593999997E+02  0.45594000000E+02  0.51100000000E-03 0. -1.
    9900012    2    1    2    0    0 -0.13626653199E+02 -0.12812180725E+02 -0.91724194954E+00  0.72461575218E+02  0.70000006413E+02 0.  0.
        -12    1    1    2    0    0  0.13626653199E+02  0.12812180725E+02  0.91724194954E+00  0.18726424782E+02  0.00000000000E+00 0.  1.
         11    1    3    3    0    0  0.17455458644E+01 -0.47982438570E+01 -0.11465694177E+02  0.12551183916E+02  0.51100000000E-03 0.  1.
        -11    1    3    3    0    0 -0.22667153990E+02 -0.75574619324E-01  0.30041995762E+02  0.37634121369E+02  0.51100000000E-03 0. -1.
         12    1    3    3    0    0  0.72949549271E+01 -0.79383622489E+01 -0.19493543535E+02  0.22276269933E+02  0.00000000000E+00 0. -1.
</event>
<event>
 7    1  0.2604986E-013  0.7246158E+02  0.7816164E-02  0.1226708E+00
        -11   -1    0    0    0    0  0.00000000000E+00  0.00000000000E+00  0.45593999997E+02  0.45594000000E+02  0.51100000000E-03 0. -1.
         11   -1    0    0    0    0 -0.00000000000E+00 -0.00000000000E+00 -0.45593999997E+02  0.45594000000E+02  0.51100000000E-03 0.  1.
    9900012    2    1    2    0    0 -0.72191890662E+01  0.16161159992E+02  0.61138338946E+01  0.72461581550E+02  0.70000014663E+02 0.  0.
        -12    1    1    2    0    0  0.72191890662E+01 -0.16161159992E+02 -0.61138338946E+01  0.18726418450E+02  0.00000000000E+00 0.  1.
         11    1    3    3    0    0 -0.55559132926E+01  0.29468007563E+01 -0.58213915498E+01  0.85697378636E+01  0.51100000000E-03 0. -1.
        -11    1    3    3    0    0  0.26794583032E+02  0.14752677391E+02 -0.46177436109E+01  0.30934038313E+02  0.51100000000E-03 0.  1.
         12    1    3    3    0    0 -0.28457858805E+02 -0.15383181549E+01  0.16552969055E+02  0.32957805374E+02  0.00000000000E+00 0. -1.
</event>
<event>
 7    1  0.2604986E-013  0.7246162E+02  0.7816164E-02  0.1226708E+00
        -11   -1    0    0    0    0  0.00000000000E+00  0.00000000000E+00  0.45593999997E+02  0.45594000000E+02  0.51100000000E-03 0.  1.
         11   -1    0    0    0    0 -0.00000000000E+00 -0.00000000000E+00 -0.45593999997E+02  0.45594000000E+02  0.51100000000E-03 0. -1.
    9900012    2    1    2    0    0 -0.11385810348E+02 -0.30549500482E+01 -0.14550189497E+02  0.72461617235E+02  0.70000061149E+02 0.  0.
        -12    1    1    2    0    0  0.11385810348E+02  0.30549500482E+01  0.14550189497E+02  0.18726382765E+02  0.00000000000E+00 0.  1.
         11    1    3    3    0    0  0.11772383248E+02 -0.24095249533E+01  0.51725853511E+01  0.13082448445E+02  0.51100000000E-03 0. -1.
        -11    1    3    3    0    0 -0.45758078871E+01 -0.93799278958E+01  0.15454200219E+02  0.18648146552E+02  0.51100000000E-03 0.  1.
         12    1    3    3    0    0 -0.18582385708E+02  0.87345028009E+01 -0.35176975066E+02  0.40731022239E+02  0.00000000000E+00 0. -1.
</event>
<event>
 7    1  0.2604986E-013  0.7246157E+02  0.7816164E-02  0.1226708E+00
        -11   -1    0    0    0    0  0.00000000000E+00  0.00000000000E+00  0.45593999997E+02  0.45594000000E+02  0.51100000000E-03 0. -1.
         11   -1    0    0    0    0 -0.00000000000E+00 -0.00000000000E+00 -0.45593999997E+02  0.45594000000E+02  0.51100000000E-03 0.  1.
    9900012    2    1    2    0    0 -0.92712258453E+01 -0.41554376527E+01  0.15730732344E+02  0.72461568657E+02  0.69999997868E+02 0.  0.
        -12    1    1    2    0    0  0.92712258453E+01  0.41554376527E+01 -0.15730732344E+02  0.18726431343E+02  0.00000000000E+00 0.  1.
         11    1    3    3    0    0  0.49455386119E+01 -0.44709158837E+01  0.37125606272E+02  0.37719465562E+02  0.51100000000E-03 0. -1.
        -11    1    3    3    0    0  0.17298897806E+01 -0.49789722129E+01  0.22533229251E+01  0.57323771174E+01  0.51100000000E-03 0.  1.
        -12    1    3    3    0    0 -0.15946654238E+02  0.52944504439E+01 -0.23648196853E+02  0.29009725978E+02  0.00000000000E+00 0.  1.
</event>
<event>
 7    1  0.2604986E-013  0.7246157E+02  0.7816164E-02  0.1226708E+00
        -11   -1    0    0    0    0  0.00000000000E+00  0.00000000000E+00  0.45593999997E+02  0.45594000000E+02  0.51100000000E-03 0. -1.
         11   -1    0    0    0    0 -0.00000000000E+00 -0.00000000000E+00 -0.45593999997E+02  0.45594000000E+02  0.51100000000E-03 0.  1.
    9900012    2    1    2    0    0 -0.32074623412E+01 -0.10344816908E+02  0.15276651197E+02  0.72461571528E+02  0.70000001607E+02 0.  0.
        -12    1    1    2    0    0  0.32074623412E+01  0.10344816908E+02 -0.15276651197E+02  0.18726428472E+02  0.00000000000E+00 0.  1.
         11    1    3    3    0    0 -0.24413033153E+02 -0.10658814892E+02 -0.14206470977E+02  0.30189904613E+02  0.51100000000E-03 0. -1.
        -11    1    3    3    0    0  0.18785757031E+00  0.76004248700E+01  0.45612765499E+01  0.88660584646E+01  0.51100000000E-03 0.  1.
        -12    1    3    3    0    0  0.21017713242E+02 -0.72864268865E+01  0.24921845623E+02  0.33405608451E+02  0.00000000000E+00 0.  1.
</event>
<event>
 7    1  0.2604986E-013  0.7246160E+02  0.7816164E-02  0.1226708E+00
        -11   -1    0    0    0    0  0.00000000000E+00  0.00000000000E+00  0.45593999997E+02  0.45594000000E+02  0.51100000000E-03 0.  1.
         11   -1    0    0    0    0 -0.00000000000E+00 -0.00000000000E+00 -0.45593999997E+02  0.45594000000E+02  0.51100000000E-03 0. -1.
    9900012    2    1    2    0    0 -0.11328880868E+02  0.66542527992E+01 -0.13343737280E+02  0.72461602946E+02  0.70000042535E+02 0.  0.
        -12    1    1    2    0    0  0.11328880868E+02 -0.66542527992E+01  0.13343737280E+02  0.18726397054E+02  0.00000000000E+00 0.  1.
         11    1    3    3    0    0 -0.63068057134E+01  0.30800054652E+01 -0.22586162264E+01  0.73731661782E+01  0.51100000000E-03 0. -1.
        -11    1    3    3    0    0 -0.34062249857E+02 -0.31545337809E+01 -0.39367681061E+01  0.34433792879E+02  0.51100000000E-03 0.  1.
         12    1    3    3    0    0  0.29040174703E+02  0.67287811149E+01 -0.71483529477E+01  0.30654643888E+02  0.00000000000E+00 0. -1.
</event>
<event>
 7    1  0.2604986E-013  0.7246163E+02  0.7816164E-02  0.1226708E+00
        -11   -1    0    0    0    0  0.00000000000E+00  0.00000000000E+00  0.45593999997E+02  0.45594000000E+02  0.51100000000E-03 0. -1.
         11   -1    0    0    0    0 -0.00000000000E+00 -0.00000000000E+00 -0.45593999997E+02  0.45594000000E+02  0.51100000000E-03 0.  1.
    9900012    2    1    2    0    0  0.61705630062E+00 -0.15507495642E+02  0.10479199003E+02  0.72461633794E+02  0.70000082720E+02 0.  0.
        -12    1    1    2    0    0 -0.61705630062E+00  0.15507495642E+02 -0.10479199003E+02  0.18726366206E+02  0.00000000000E+00 0.  1.
         11    1    3    3    0    0 -0.74100908948E+01  0.25877315706E+01  0.10916093861E+02  0.13444958430E+02  0.51100000000E-03 0. -1.
        -11    1    3    3    0    0 -0.17515268819E+02  0.61941745528E+01  0.11444607156E+02  0.21820437058E+02  0.51100000000E-03 0.  1.
         12    1    3    3    0    0  0.25542416015E+02 -0.24289401765E+02 -0.11881502014E+02  0.37196238305E+02  0.00000000000E+00 0. -1.
</event>
<event>
 7    1  0.2604986E-013  0.7246155E+02  0.7816164E-02  0.1226708E+00
        -11   -1    0    0    0    0  0.00000000000E+00  0.00000000000E+00  0.45593999997E+02  0.45594000000E+02  0.51100000000E-03 0. -1.
         11   -1    0    0    0    0 -0.00000000000E+00 -0.00000000000E+00 -0.45593999997E+02  0.45594000000E+02  0.51100000000E-03 0.  1.
    9900012    2    1    2    0    0 -0.51097234823E+01 -0.88980495020E+00  0.17993854457E+02  0.72461552790E+02  0.69999977197E+02 0.  0.
        -12    1    1    2    0    0  0.51097234823E+01  0.88980495020E+00 -0.17993854457E+02  0.18726447210E+02  0.00000000000E+00 0.  1.
         11    1    3    3    0    0 -0.35189846999E+02 -0.10481302815E+01  0.12192793106E+02  0.37257054539E+02  0.51100000000E-03 0. -1.
        -11    1    3    3    0    0 -0.16986892177E+01 -0.21802840027E+01 -0.23208790589E+00  0.27736345195E+01  0.51100000000E-03 0.  1.
        -12    1    3    3    0    0  0.31778812734E+02  0.23386093340E+01  0.60331492561E+01  0.32430863731E+02  0.00000000000E+00 0.  1.
</event>
<event>
 7    1  0.2604986E-013  0.7246140E+02  0.7816164E-02  0.1226708E+00
        -11   -1    0    0    0    0  0.00000000000E+00  0.00000000000E+00  0.45593999997E+02  0.45594000000E+02  0.51100000000E-03 0.  1.
         11   -1    0    0    0    0 -0.00000000000E+00 -0.00000000000E+00 -0.45593999997E+02  0.45594000000E+02  0.51100000000E-03 0. -1.
    9900012    2    1    2    0    0  0.31241474933E+01 -0.18128881304E+02  0.35026847562E+01  0.72461402995E+02  0.69999782061E+02 0.  0.
        -12    1    1    2    0    0 -0.31241474933E+01  0.18128881304E+02 -0.35026847562E+01  0.18726597005E+02  0.00000000000E+00 0.  1.
         11    1    3    3    0    0  0.22058626371E+01 -0.20023988355E+02  0.96593263522E+01  0.22341184513E+02  0.51100000000E-03 0. -1.
        -11    1    3    3    0    0  0.61978556740E+01  0.13550108566E+02  0.17646663784E+02  0.23095965017E+02  0.51100000000E-03 0.  1.
         12    1    3    3    0    0 -0.52795708178E+01 -0.11655001515E+02 -0.23803305380E+02  0.27024253465E+02  0.00000000000E+00 0. -1.
</event>
<event>
 7    1  0.2604986E-013  0.7246151E+02  0.7816164E-02  0.1226708E+00
        -11   -1    0    0    0    0  0.00000000000E+00  0.00000000000E+00  0.45593999997E+02  0.45594000000E+02  0.51100000000E-03 0. -1.
         11   -1    0    0    0    0 -0.00000000000E+00 -0.00000000000E+00 -0.45593999997E+02  0.45594000000E+02  0.51100000000E-03 0.  1.
    9900012    2    1    2    0    0 -0.17387004164E+02 -0.55942918569E+01  0.41324992028E+01  0.72461506339E+02  0.69999916686E+02 0.  0.
        -12    1    1    2    0    0  0.17387004164E+02  0.55942918569E+01 -0.41324992028E+01  0.18726493661E+02  0.00000000000E+00 0.  1.
         11    1    3    3    0    0  0.27633189144E+01 -0.15885016313E+01 -0.18621265977E+02  0.18892083414E+02  0.51100000000E-03 0. -1.
        -11    1    3    3    0    0 -0.62245160178E+01  0.14071457831E+02 -0.62993406897E+01  0.16626250887E+02  0.51100000000E-03 0.  1.
         12    1    3    3    0    0 -0.13925807061E+02 -0.18077248057E+02  0.29053105870E+02  0.36943172039E+02  0.00000000000E+00 0. -1.
</event>
<event>
 7    1  0.2604986E-013  0.7246156E+02  0.7816164E-02  0.1226708E+00
        -11   -1    0    0    0    0  0.00000000000E+00  0.00000000000E+00  0.45593999997E+02  0.45594000000E+02  0.51100000000E-03 0.  1.
         11   -1    0    0    0    0 -0.00000000000E+00 -0.00000000000E+00 -0.45593999997E+02  0.45594000000E+02  0.51100000000E-03 0. -1.
    9900012    2    1    2    0    0  0.96746984642E+00  0.12003011073E+02 -0.14341243956E+02  0.72461560111E+02  0.69999986734E+02 0.  0.
        -12    1    1    2    0    0 -0.96746984642E+00 -0.12003011073E+02  0.14341243956E+02  0.18726439889E+02  0.00000000000E+00 0.  1.
         11    1    3    3    0    0  0.87266847330E+01  0.33181087123E+01 -0.85105700864E+01  0.12633078616E+02  0.51100000000E-03 0. -1.
        -11    1    3    3    0    0 -0.10634273432E+02  0.30601789272E+02 -0.15242526840E+02  0.35803518023E+02  0.51100000000E-03 0.  1.
        -12    1    3    3    0    0  0.28750585458E+01 -0.21916886911E+02  0.94118529706E+01  0.24024963472E+02  0.00000000000E+00 0.  1.
</event>
<event>
 7    1  0.2604986E-013  0.7246139E+02  0.7816164E-02  0.1226709E+00
        -11   -1    0    0    0    0  0.00000000000E+00  0.00000000000E+00  0.45593999997E+02  0.45594000000E+02  0.51100000000E-03 0.  1.
         11   -1    0    0    0    0 -0.00000000000E+00 -0.00000000000E+00 -0.45593999997E+02  0.45594000000E+02  0.51100000000E-03 0. -1.
    9900012    2    1    2    0    0  0.17618208420E+02  0.56115630873E+01  0.29656591692E+01  0.72461386785E+02  0.69999760945E+02 0.  0.
        -12    1    1    2    0    0 -0.17618208420E+02 -0.56115630873E+01 -0.29656591692E+01  0.18726613215E+02  0.00000000000E+00 0.  1.
         11    1    3    3    0    0 -0.32598891601E+01  0.29502840155E+01  0.40244900793E+01  0.59605011339E+01  0.51100000000E-03 0. -1.
        -11    1    3    3    0    0 -0.11760081133E+02  0.22745885164E+02  0.85426302898E+01  0.26993542426E+02  0.51100000000E-03 0.  1.
         12    1    3    3    0    0  0.32638178712E+02 -0.20084606093E+02 -0.96014612000E+01  0.39507343225E+02  0.00000000000E+00 0. -1.
</event>
<event>
 7    1  0.2604986E-013  0.7246159E+02  0.7816164E-02  0.1226708E+00
        -11   -1    0    0    0    0  0.00000000000E+00  0.00000000000E+00  0.45593999997E+02  0.45594000000E+02  0.51100000000E-03 0. -1.
         11   -1    0    0    0    0 -0.00000000000E+00 -0.00000000000E+00 -0.45593999997E+02  0.45594000000E+02  0.51100000000E-03 0.  1.
    9900012    2    1    2    0    0 -0.10572904373E+02  0.14461112256E+02  0.54560463945E+01  0.72461587722E+02  0.70000022703E+02 0.  0.
        -12    1    1    2    0    0  0.10572904373E+02 -0.14461112256E+02 -0.54560463945E+01  0.18726412278E+02  0.00000000000E+00 0.  1.
         11    1    3    3    0    0  0.15821452679E+02  0.23931149814E+02  0.62859251828E+01  0.29368880672E+02  0.51100000000E-03 0. -1.
        -11    1    3    3    0    0 -0.16709980948E+02 -0.40779596976E+01 -0.16542178805E+02  0.23864134144E+02  0.51100000000E-03 0.  1.
         12    1    3    3    0    0 -0.96843761037E+01 -0.53920778602E+01  0.15712300016E+02  0.19228572905E+02  0.00000000000E+00 0. -1.
</event>
<event>
 7    1  0.2604986E-013  0.7246157E+02  0.7816164E-02  0.1226708E+00
        -11   -1    0    0    0    0  0.00000000000E+00  0.00000000000E+00  0.45593999997E+02  0.45594000000E+02  0.51100000000E-03 0.  1.
         11   -1    0    0    0    0 -0.00000000000E+00 -0.00000000000E+00 -0.45593999997E+02  0.45594000000E+02  0.51100000000E-03 0. -1.
    9900012    2    1    2    0    0 -0.46593812217E+01  0.17982842975E+02  0.23636469372E+01  0.72461566765E+02  0.69999995403E+02 0.  0.
        -12    1    1    2    0    0  0.46593812217E+01 -0.17982842975E+02 -0.23636469372E+01  0.18726433235E+02  0.00000000000E+00 0.  1.
         11    1    3    3    0    0  0.48075988191E+01  0.13732653995E+02  0.18480268668E+02  0.23520610588E+02  0.51100000000E-03 0. -1.
        -11    1    3    3    0    0 -0.50939854211E+01 -0.13642161213E+02  0.95021291200E+01  0.17388148496E+02  0.51100000000E-03 0.  1.
         12    1    3    3    0    0 -0.43729946197E+01  0.17892350194E+02 -0.25618750851E+02  0.31552807681E+02  0.00000000000E+00 0. -1.
</event>
<event>
 7    1  0.2604986E-013  0.7246156E+02  0.7816164E-02  0.1226708E+00
        -11   -1    0    0    0    0  0.00000000000E+00  0.00000000000E+00  0.45593999997E+02  0.45594000000E+02  0.51100000000E-03 0.  1.
         11   -1    0    0    0    0 -0.00000000000E+00 -0.00000000000E+00 -0.45593999997E+02  0.45594000000E+02  0.51100000000E-03 0. -1.
    9900012    2    1    2    0    0 -0.97887391993E+01 -0.14025221602E+02  0.76258307662E+01  0.72461560110E+02  0.69999986732E+02 0.  0.
        -12    1    1    2    0    0  0.97887391993E+01  0.14025221602E+02 -0.76258307662E+01  0.18726439890E+02  0.00000000000E+00 0.  1.
         11    1    3    3    0    0 -0.13179881887E+02 -0.28833436886E+02 -0.13964110515E+02  0.34642066220E+02  0.51100000000E-03 0. -1.
        -11    1    3    3    0    0  0.12306658020E+02 -0.35984858304E+00  0.40122346428E+01  0.12949183361E+02  0.51100000000E-03 0.  1.
        -12    1    3    3    0    0 -0.89155153325E+01  0.15168063867E+02  0.17577706639E+02  0.24870310529E+02  0.00000000000E+00 0.  1.
</event>
<event>
 7    1  0.2604986E-013  0.7246163E+02  0.7816164E-02  0.1226708E+00
        -11   -1    0    0    0    0  0.00000000000E+00  0.00000000000E+00  0.45593999997E+02  0.45594000000E+02  0.51100000000E-03 0.  1.
         11   -1    0    0    0    0 -0.00000000000E+00 -0.00000000000E+00 -0.45593999997E+02  0.45594000000E+02  0.51100000000E-03 0. -1.
    9900012    2    1    2    0    0 -0.41196105565E+01  0.63015271189E+01 -0.17146326079E+02  0.72461630006E+02  0.70000077785E+02 0.  0.
        -12    1    1    2    0    0  0.41196105565E+01 -0.63015271189E+01  0.17146326079E+02  0.18726369994E+02  0.00000000000E+00 0.  1.
         11    1    3    3    0    0  0.97765843752E+01 -0.95213770579E+01  0.13021567758E+00  0.13647533825E+02  0.51100000000E-03 0. -1.
        -11    1    3    3    0    0 -0.33357694501E+01 -0.79929312165E+01  0.15008736017E+02  0.17328487076E+02  0.51100000000E-03 0.  1.
         12    1    3    3    0    0 -0.10560425482E+02  0.23815835393E+02 -0.32285277774E+02  0.41485609104E+02  0.00000000000E+00 0. -1.
</event>
<event>
 7    1  0.2604986E-013  0.7246161E+02  0.7816164E-02  0.1226708E+00
        -11   -1    0    0    0    0  0.00000000000E+00  0.00000000000E+00  0.45593999997E+02  0.45594000000E+02  0.51100000000E-03 0.  1.
         11   -1    0    0    0    0 -0.00000000000E+00 -0.00000000000E+00 -0.45593999997E+02  0.45594000000E+02  0.51100000000E-03 0. -1.
    9900012    2    1    2    0    0  0.13564208154E+02  0.12269300644E+02  0.40192306849E+01  0.72461609626E+02  0.70000051237E+02 0.  0.
        -12    1    1    2    0    0 -0.13564208154E+02 -0.12269300644E+02 -0.40192306849E+01  0.18726390374E+02  0.00000000000E+00 0.  1.
         11    1    3    3    0    0  0.33176412595E+02  0.16385810584E+02 -0.78897765925E+01  0.37834081410E+02  0.51100000000E-03 0. -1.
        -11    1    3    3    0    0  0.59076510230E+01 -0.37310559918E+01  0.23045645562E+01  0.73574545516E+01  0.51100000000E-03 0.  1.
         12    1    3    3    0    0 -0.25519855465E+02 -0.38545394835E+00  0.96044427212E+01  0.27270073665E+02  0.00000000000E+00 0. -1.
</event>
<event>
 7    1  0.2604986E-013  0.7246153E+02  0.7816164E-02  0.1226708E+00
        -11   -1    0    0    0    0  0.00000000000E+00  0.00000000000E+00  0.45593999997E+02  0.45594000000E+02  0.51100000000E-03 0. -1.
         11   -1    0    0    0    0 -0.00000000000E+00 -0.00000000000E+00 -0.45593999997E+02  0.45594000000E+02  0.51100000000E-03 0.  1.
    9900012    2    1    2    0    0 -0.62858256619E+01  0.11582530067E+02  0.13304658980E+02  0.72461533233E+02  0.69999951721E+02 0.  0.
        -12    1    1    2    0    0  0.62858256619E+01 -0.11582530067E+02 -0.13304658980E+02  0.18726466767E+02  0.00000000000E+00 0.  1.
         11    1    3    3    0    0  0.17544771903E+02  0.15859365543E+02  0.37674097582E+01  0.23948525489E+02  0.51100000000E-03 0. -1.
        -11    1    3    3    0    0  0.55177299713E+01 -0.14529837455E+02  0.77669345834E+01  0.17374889743E+02  0.51100000000E-03 0.  1.
        -12    1    3    3    0    0 -0.29348327536E+02  0.10253001978E+02  0.17703146385E+01  0.31138118001E+02  0.00000000000E+00 0.  1.
</event>
<event>
 7    1  0.2604986E-013  0.7246160E+02  0.7816164E-02  0.1226708E+00
        -11   -1    0    0    0    0  0.00000000000E+00  0.00000000000E+00  0.45593999997E+02  0.45594000000E+02  0.51100000000E-03 0.  1.
         11   -1    0    0    0    0 -0.00000000000E+00 -0.00000000000E+00 -0.45593999997E+02  0.45594000000E+02  0.51100000000E-03 0. -1.
    9900012    2    1    2    0    0 -0.13159460433E+01  0.18069279594E+02  0.47378847472E+01  0.72461598026E+02  0.70000036125E+02 0.  0.
        -12    1    1    2    0    0  0.13159460433E+01 -0.18069279594E+02 -0.47378847472E+01  0.18726401974E+02  0.00000000000E+00 0.  1.
         11    1    3    3    0    0  0.70187928323E+00  0.24686662614E+01 -0.16350552705E+02  0.16550755924E+02  0.51100000000E-03 0. -1.
        -11    1    3    3    0    0 -0.12973108794E+01  0.67965231276E+01 -0.16186572775E+02  0.17603433773E+02  0.51100000000E-03 0.  1.
        -12    1    3    3    0    0 -0.72051444710E+00  0.88040902049E+01  0.37275010227E+02  0.38307408328E+02  0.00000000000E+00 0.  1.
</event>
<event>
 7    1  0.2604986E-013  0.7246145E+02  0.7816164E-02  0.1226708E+00
        -11   -1    0    0    0    0  0.00000000000E+00  0.00000000000E+00  0.45593999997E+02  0.45594000000E+02  0.51100000000E-03 0.  1.
         11   -1    0    0    0    0 -0.00000000000E+00 -0.00000000000E+00 -0.45593999997E+02  0.45594000000E+02  0.51100000000E-03 0. -1.
    9900012    2    1    2    0    0  0.13789344000E+02  0.12074920375E+02 -0.38384620297E+01  0.72461454649E+02  0.69999849351E+02 0.  0.
        -12    1    1    2    0    0 -0.13789344000E+02 -0.12074920375E+02  0.38384620297E+01  0.18726545351E+02  0.00000000000E+00 0.  1.
         11    1    3    3    0    0 -0.71377944017E+01 -0.94292928952E+01  0.50029641072E+00  0.11836805742E+02  0.51100000000E-03 0. -1.
        -11    1    3    3    0    0 -0.17279211834E+00  0.27482947324E+01  0.21906265836E+02  0.22078665362E+02  0.51100000000E-03 0.  1.
         12    1    3    3    0    0  0.21099930520E+02  0.18755918538E+02 -0.26245024276E+02  0.38545983545E+02  0.00000000000E+00 0. -1.
</event>
<event>
 7    1  0.2604986E-013  0.7246159E+02  0.7816164E-02  0.1226708E+00
        -11   -1    0    0    0    0  0.00000000000E+00  0.00000000000E+00  0.45593999997E+02  0.45594000000E+02  0.51100000000E-03 0.  1.
         11   -1    0    0    0    0 -0.00000000000E+00 -0.00000000000E+00 -0.45593999997E+02  0.45594000000E+02  0.51100000000E-03 0. -1.
    9900012    2    1    2    0    0  0.16762327006E+02  0.49303860153E+01 -0.67375245509E+01  0.72461586836E+02  0.70000021548E+02 0.  0.
        -12    1    1    2    0    0 -0.16762327006E+02 -0.49303860153E+01  0.67375245509E+01  0.18726413164E+02  0.00000000000E+00 0.  1.
         11    1    3    3    0    0  0.70517242668E+01 -0.22417107163E+02  0.12020504965E+02  0.26395947578E+02  0.51100000000E-03 0. -1.
        -11    1    3    3    0    0 -0.22585760942E+00 -0.27741495214E-01  0.71097417947E+01  0.71133824513E+01  0.51100000000E-03 0.  1.
         12    1    3    3    0    0  0.99364603490E+01  0.27375234673E+02 -0.25867771311E+02  0.38952256806E+02  0.00000000000E+00 0. -1.
</event>
<event>
 7    1  0.2604986E-013  0.7246159E+02  0.7816164E-02  0.1226708E+00
        -11   -1    0    0    0    0  0.00000000000E+00  0.00000000000E+00  0.45593999997E+02  0.45594000000E+02  0.51100000000E-03 0. -1.
         11   -1    0    0    0    0 -0.00000000000E+00 -0.00000000000E+00 -0.45593999997E+02  0.45594000000E+02  0.51100000000E-03 0.  1.
    9900012    2    1    2    0    0  0.14418559804E+02  0.11676785527E+02  0.25369930107E+01  0.72461587621E+02  0.70000022571E+02 0.  0.
        -12    1    1    2    0    0 -0.14418559804E+02 -0.11676785527E+02 -0.25369930107E+01  0.18726412379E+02  0.00000000000E+00 0.  1.
         11    1    3    3    0    0 -0.13711723840E+02 -0.16987725426E+01 -0.30579136885E+01  0.14150902276E+02  0.51100000000E-03 0. -1.
        -11    1    3    3    0    0  0.10536271124E+02  0.25450463220E+01 -0.21594541888E+02  0.24162253818E+02  0.51100000000E-03 0.  1.
         12    1    3    3    0    0  0.17594012520E+02  0.10830511748E+02  0.27189448587E+02  0.34148431527E+02  0.00000000000E+00 0. -1.
</event>
<event>
 7    1  0.2604986E-013  0.7246155E+02  0.7816164E-02  0.1226708E+00
        -11   -1    0    0    0    0  0.00000000000E+00  0.00000000000E+00  0.45593999997E+02  0.45594000000E+02  0.51100000000E-03 0.  1.
         11   -1    0    0    0    0 -0.00000000000E+00 -0.00000000000E+00 -0.45593999997E+02  0.45594000000E+02  0.51100000000E-03 0. -1.
    9900012    2    1    2    0    0  0.31275638275E+01  0.64449657950E+01 -0.17302044624E+02  0.72461548447E+02  0.69999971540E+02 0.  0.
        -12    1    1    2    0    0 -0.31275638275E+01 -0.64449657950E+01  0.17302044624E+02  0.18726451553E+02  0.00000000000E+00 0.  1.
         11    1    3    3    0    0  0.80777977415E+01  0.48442396390E+01 -0.86663472078E+01  0.12799337804E+02  0.51100000000E-03 0. -1.
        -11    1    3    3    0    0  0.18738777850E+02  0.56979793982E+01  0.15962689639E+02  0.25266899796E+02  0.51100000000E-03 0.  1.
         12    1    3    3    0    0 -0.23689011764E+02 -0.40972532421E+01 -0.24598387055E+02  0.34395310847E+02  0.00000000000E+00 0. -1.
</event>
<event>
 7    1  0.2604986E-013  0.7246152E+02  0.7816164E-02  0.1226708E+00
        -11   -1    0    0    0    0  0.00000000000E+00  0.00000000000E+00  0.45593999997E+02  0.45594000000E+02  0.51100000000E-03 0.  1.
         11   -1    0    0    0    0 -0.00000000000E+00 -0.00000000000E+00 -0.45593999997E+02  0.45594000000E+02  0.51100000000E-03 0. -1.
    9900012    2    1    2    0    0 -0.81549692445E+01  0.12226378154E+01 -0.16813170489E+02  0.72461519591E+02  0.69999933950E+02 0.  0.
        -12    1    1    2    0    0  0.81549692445E+01 -0.12226378154E+01  0.16813170489E+02  0.18726480409E+02  0.00000000000E+00 0.  1.
         11    1    3    3    0    0  0.81518431211E+01  0.23977793839E+02 -0.27024159990E+02  0.37036365468E+02  0.51100000000E-03 0. -1.
        -11    1    3    3    0    0 -0.51399240616E+00 -0.11657086268E+02 -0.29838383358E+01  0.12043883922E+02  0.51100000000E-03 0.  1.
        -12    1    3    3    0    0 -0.15792819959E+02 -0.11098069755E+02  0.13194827837E+02  0.23381270201E+02  0.00000000000E+00 0.  1.
</event>
<event>
 7    1  0.2604986E-013  0.7246153E+02  0.7816164E-02  0.1226708E+00
        -11   -1    0    0    0    0  0.00000000000E+00  0.00000000000E+00  0.45593999997E+02  0.45594000000E+02  0.51100000000E-03 0.  1.
         11   -1    0    0    0    0 -0.00000000000E+00 -0.00000000000E+00 -0.45593999997E+02  0.45594000000E+02  0.51100000000E-03 0. -1.
    9900012    2    1    2    0    0  0.15314963161E+02  0.51759412630E+01  0.94520962113E+01  0.72461532438E+02  0.69999950685E+02 0.  0.
        -12    1    1    2    0    0 -0.15314963161E+02 -0.51759412630E+01 -0.94520962113E+01  0.18726467562E+02  0.00000000000E+00 0.  1.
         11    1    3    3    0    0 -0.28578630472E+01  0.27997852574E+01 -0.78360639236E+01  0.87982996517E+01  0.51100000000E-03 0. -1.
        -11    1    3    3    0    0  0.12795653056E+01 -0.22926797412E+02 -0.77772053646E+01  0.24243767250E+02  0.51100000000E-03 0.  1.
        -12    1    3    3    0    0  0.16893260902E+02  0.25302953417E+02  0.25065365500E+02  0.39419465536E+02  0.00000000000E+00 0.  1.
</event>
<event>
 7    1  0.2604986E-013  0.7246157E+02  0.7816164E-02  0.1226708E+00
        -11   -1    0    0    0    0  0.00000000000E+00  0.00000000000E+00  0.45593999997E+02  0.45594000000E+02  0.51100000000E-03 0.  1.
         11   -1    0    0    0    0 -0.00000000000E+00 -0.00000000000E+00 -0.45593999997E+02  0.45594000000E+02  0.51100000000E-03 0. -1.
    9900012    2    1    2    0    0 -0.17767964067E+02 -0.74794690601E+00 -0.58668024132E+01  0.72461565684E+02  0.69999993994E+02 0.  0.
        -12    1    1    2    0    0  0.17767964067E+02  0.74794690601E+00  0.58668024132E+01  0.18726434316E+02  0.00000000000E+00 0.  1.
         11    1    3    3    0    0 -0.66098869145E+01 -0.13641366801E+02 -0.82121774743E+01  0.17239992817E+02  0.51100000000E-03 0. -1.
        -11    1    3    3    0    0 -0.20206863787E+02 -0.13953479001E+02  0.89403586738E+01  0.26133253411E+02  0.51100000000E-03 0.  1.
         12    1    3    3    0    0  0.90487866347E+01  0.26846898896E+02 -0.65949836126E+01  0.29088319456E+02  0.00000000000E+00 0. -1.
</event>
<event>
 7    1  0.2604986E-013  0.7246155E+02  0.7816164E-02  0.1226708E+00
        -11   -1    0    0    0    0  0.00000000000E+00  0.00000000000E+00  0.45593999997E+02  0.45594000000E+02  0.51100000000E-03 0. -1.
         11   -1    0    0    0    0 -0.00000000000E+00 -0.00000000000E+00 -0.45593999997E+02  0.45594000000E+02  0.51100000000E-03 0.  1.
    9900012    2    1    2    0    0  0.11011698188E+02  0.15102546355E+02 -0.11556163482E+01  0.72461552058E+02  0.69999976244E+02 0.  0.
        -12    1    1    2    0    0 -0.11011698188E+02 -0.15102546355E+02  0.11556163482E+01  0.18726447942E+02  0.00000000000E+00 0.  1.
         11    1    3    3    0    0  0.84264931677E+01 -0.20709963069E+02 -0.10753845609E+02  0.24810351732E+02  0.51100000000E-03 0. -1.
        -11    1    3    3    0    0  0.89009733046E+01  0.39207231386E+01 -0.61697678175E+01  0.11518048050E+02  0.51100000000E-03 0.  1.
         12    1    3    3    0    0 -0.63157682841E+01  0.31891786285E+02  0.15767997079E+02  0.36133152275E+02  0.00000000000E+00 0. -1.
</event>
<event>
 7    1  0.2604986E-013  0.7246157E+02  0.7816164E-02  0.1226708E+00
        -11   -1    0    0    0    0  0.00000000000E+00  0.00000000000E+00  0.45593999997E+02  0.45594000000E+02  0.51100000000E-03 0.  1.
         11   -1    0    0    0    0 -0.00000000000E+00 -0.00000000000E+00 -0.45593999997E+02  0.45594000000E+02  0.51100000000E-03 0. -1.
    9900012    2    1    2    0    0 -0.65014800387E+01 -0.11341944478E+02 -0.13407836731E+02  0.72461573939E+02  0.70000004747E+02 0.  0.
        -12    1    1    2    0    0  0.65014800387E+01  0.11341944478E+02  0.13407836731E+02  0.18726426061E+02  0.00000000000E+00 0.  1.
         11    1    3    3    0    0  0.23348723023E+02  0.64378918515E+01 -0.15220893629E+02  0.28605679881E+02  0.51100000000E-03 0. -1.
        -11    1    3    3    0    0 -0.21383493661E+02 -0.17991090903E+02 -0.96845003392E+01  0.29575711320E+02  0.51100000000E-03 0.  1.
        -12    1    3    3    0    0 -0.84667094016E+01  0.21125457387E+00  0.11497557238E+02  0.14280182738E+02  0.00000000000E+00 0.  1.
</event>
<event>
 7    1  0.2604986E-013  0.7246152E+02  0.7816164E-02  0.1226708E+00
        -11   -1    0    0    0    0  0.00000000000E+00  0.00000000000E+00  0.45593999997E+02  0.45594000000E+02  0.51100000000E-03 0.  1.
         11   -1    0    0    0    0 -0.00000000000E+00 -0.00000000000E+00 -0.45593999997E+02  0.45594000000E+02  0.51100000000E-03 0. -1.
    9900012    2    1    2    0    0  0.54389339309E+00 -0.84436651007E+01 -0.16705977416E+02  0.72461521907E+02  0.69999936967E+02 0.  0.
        -12    1    1    2    0    0 -0.54389339309E+00  0.84436651007E+01  0.16705977416E+02  0.18726478093E+02  0.00000000000E+00 0.  1.
         11    1    3    3    0    0  0.19703510821E+02 -0.10491555672E+02 -0.11184269031E+02  0.24967758272E+02  0.51100000000E-03 0. -1.
        -11    1    3    3    0    0  0.20391735647E-01 -0.15995330947E+02 -0.12444238001E+02  0.20265983510E+02  0.51100000000E-03 0.  1.
        -12    1    3    3    0    0 -0.19180009164E+02  0.18043221518E+02  0.69225296170E+01  0.27227780126E+02  0.00000000000E+00 0.  1.
</event>
<event>
 7    1  0.2604986E-013  0.7246158E+02  0.7816164E-02  0.1226708E+00
        -11   -1    0    0    0    0  0.00000000000E+00  0.00000000000E+00  0.45593999997E+02  0.45594000000E+02  0.51100000000E-03 0. -1.
         11   -1    0    0    0    0 -0.00000000000E+00 -0.00000000000E+00 -0.45593999997E+02  0.45594000000E+02  0.51100000000E-03 0.  1.
    9900012    2    1    2    0    0  0.88233760248E+01  0.58432889242E+01  0.15449367585E+02  0.72461576190E+02  0.70000007680E+02 0.  0.
        -12    1    1    2    0    0 -0.88233760248E+01 -0.58432889242E+01 -0.15449367585E+02  0.18726423810E+02  0.00000000000E+00 0.  1.
         11    1    3    3    0    0  0.10369606392E+01  0.12429583963E+01  0.18896380783E+01  0.24881650408E+01  0.51100000000E-03 0. -1.
        -11    1    3    3    0    0 -0.14197500429E+02  0.30718953810E+02  0.11615326336E+02  0.35779029441E+02  0.51100000000E-03 0.  1.
        -12    1    3    3    0    0  0.21983915814E+02 -0.26118623282E+02  0.19444031711E+01  0.34194381708E+02  0.00000000000E+00 0.  1.
</event>
<event>
 7    1  0.2604986E-013  0.7246158E+02  0.7816164E-02  0.1226708E+00
        -11   -1    0    0    0    0  0.00000000000E+00  0.00000000000E+00  0.45593999997E+02  0.45594000000E+02  0.51100000000E-03 0.  1.
         11   -1    0    0    0    0 -0.00000000000E+00 -0.00000000000E+00 -0.45593999997E+02  0.45594000000E+02  0.51100000000E-03 0. -1.
    9900012    2    1    2    0    0  0.15680008768E+02  0.10216722429E+02  0.65945716003E+00  0.72461575464E+02  0.70000006734E+02 0.  0.
        -12    1    1    2    0    0 -0.15680008768E+02 -0.10216722429E+02 -0.65945716003E+00  0.18726424536E+02  0.00000000000E+00 0.  1.
         11    1    3    3    0    0  0.88020823554E+01 -0.12740896783E+02 -0.24755033561E+02  0.29199636838E+02  0.51100000000E-03 0. -1.
        -11    1    3    3    0    0  0.14959112873E+01  0.43176996527E+00 -0.48836866308E+01  0.51258727307E+01  0.51100000000E-03 0.  1.
        -12    1    3    3    0    0  0.53820151250E+01  0.22525849247E+02  0.30298177352E+02  0.38136065895E+02  0.00000000000E+00 0.  1.
</event>
<event>
 7    1  0.2604986E-013  0.7246159E+02  0.7816164E-02  0.1226708E+00
        -11   -1    0    0    0    0  0.00000000000E+00  0.00000000000E+00  0.45593999997E+02  0.45594000000E+02  0.51100000000E-03 0.  1.
         11   -1    0    0    0    0 -0.00000000000E+00 -0.00000000000E+00 -0.45593999997E+02  0.45594000000E+02  0.51100000000E-03 0. -1.
    9900012    2    1    2    0    0  0.56892038216E+01  0.17778986612E+02  0.14896925791E+01  0.72461585793E+02  0.70000020190E+02 0.  0.
        -12    1    1    2    0    0 -0.56892038216E+01 -0.17778986612E+02 -0.14896925791E+01  0.18726414207E+02  0.00000000000E+00 0.  1.
         11    1    3    3    0    0 -0.16851777080E+02  0.92566998800E+01  0.14728163864E+02  0.24219572550E+02  0.51100000000E-03 0. -1.
        -11    1    3    3    0    0 -0.62224984264E+01  0.98746187804E+01  0.64729014002E+01  0.13346386609E+02  0.51100000000E-03 0.  1.
         12    1    3    3    0    0  0.28763479328E+02 -0.13523320487E+01 -0.19711372685E+02  0.34895626634E+02  0.00000000000E+00 0. -1.
</event>
<event>
 7    1  0.2604986E-013  0.7246160E+02  0.7816164E-02  0.1226708E+00
        -11   -1    0    0    0    0  0.00000000000E+00  0.00000000000E+00  0.45593999997E+02  0.45594000000E+02  0.51100000000E-03 0.  1.
         11   -1    0    0    0    0 -0.00000000000E+00 -0.00000000000E+00 -0.45593999997E+02  0.45594000000E+02  0.51100000000E-03 0. -1.
    9900012    2    1    2    0    0 -0.14790766090E+02 -0.98400043083E+01  0.59233175917E+01  0.72461597846E+02  0.70000035892E+02 0.  0.
        -12    1    1    2    0    0  0.14790766090E+02  0.98400043083E+01 -0.59233175917E+01  0.18726402154E+02  0.00000000000E+00 0.  1.
         11    1    3    3    0    0 -0.10338308263E+01  0.13829086747E+02 -0.13449733119E+02  0.19318586068E+02  0.51100000000E-03 0. -1.
        -11    1    3    3    0    0  0.14817818206E+02 -0.89245890294E+01  0.58470526587E+01  0.18259355158E+02  0.51100000000E-03 0.  1.
         12    1    3    3    0    0 -0.28574753470E+02 -0.14744502026E+02  0.13525998052E+02  0.34883656620E+02  0.00000000000E+00 0. -1.
</event>
<event>
 7    1  0.2604986E-013  0.7246158E+02  0.7816164E-02  0.1226708E+00
        -11   -1    0    0    0    0  0.00000000000E+00  0.00000000000E+00  0.45593999997E+02  0.45594000000E+02  0.51100000000E-03 0.  1.
         11   -1    0    0    0    0 -0.00000000000E+00 -0.00000000000E+00 -0.45593999997E+02  0.45594000000E+02  0.51100000000E-03 0. -1.
    9900012    2    1    2    0    0 -0.72831420994E+01  0.95741784408E+01 -0.14351643325E+02  0.72461582356E+02  0.70000015713E+02 0.  0.
        -12    1    1    2    0    0  0.72831420994E+01 -0.95741784408E+01  0.14351643325E+02  0.18726417644E+02  0.00000000000E+00 0.  1.
         11    1    3    3    0    0  0.30451203285E+01 -0.86338263114E+01  0.13900314343E+02  0.16644352006E+02  0.51100000000E-03 0. -1.
        -11    1    3    3    0    0 -0.22813964429E+01 -0.80527585237E+01  0.71515223143E+01  0.11008903726E+02  0.51100000000E-03 0.  1.
         12    1    3    3    0    0 -0.80468659850E+01  0.26260763276E+02 -0.35403479982E+02  0.44808326624E+02  0.00000000000E+00 0. -1.
</event>
<event>
 7    1  0.2604986E-013  0.7246159E+02  0.7816164E-02  0.1226708E+00
        -11   -1    0    0    0    0  0.00000000000E+00  0.00000000000E+00  0.45593999997E+02  0.45594000000E+02  0.51100000000E-03 0. -1.
         11   -1    0    0    0    0 -0.00000000000E+00 -0.00000000000E+00 -0.45593999997E+02  0.45594000000E+02  0.51100000000E-03 0.  1.
    9900012    2    1    2    0    0  0.69887748931E+01 -0.88211810038E+01  0.14967373279E+02  0.72461588927E+02  0.70000024272E+02 0.  0.
        -12    1    1    2    0    0 -0.69887748931E+01  0.88211810038E+01 -0.14967373279E+02  0.18726411073E+02  0.00000000000E+00 0.  1.
         11    1    3    3    0    0  0.20400640504E+01 -0.22064726356E+02  0.94592858249E+01  0.24093403642E+02  0.51100000000E-03 0. -1.
        -11    1    3    3    0    0 -0.16849533604E+02  0.46210106690E+01 -0.10123482933E+02  0.20192707328E+02  0.51100000000E-03 0.  1.
         12    1    3    3    0    0  0.21798244447E+02  0.86225346829E+01  0.15631570387E+02  0.28175477957E+02  0.00000000000E+00 0. -1.
</event>
<event>
 7    1  0.2604986E-013  0.7246154E+02  0.7816164E-02  0.1226708E+00
        -11   -1    0    0    0    0  0.00000000000E+00  0.00000000000E+00  0.45593999997E+02  0.45594000000E+02  0.51100000000E-03 0.  1.
         11   -1    0    0    0    0 -0.00000000000E+00 -0.00000000000E+00 -0.45593999997E+02  0.45594000000E+02  0.51100000000E-03 0. -1.
    9900012    2    1    2    0    0 -0.12489506428E+02  0.13406930989E+02 -0.38660971909E+01  0.72461540728E+02  0.69999961485E+02 0.  0.
        -12    1    1    2    0    0  0.12489506428E+02 -0.13406930989E+02  0.38660971909E+01  0.18726459272E+02  0.00000000000E+00 0.  1.
         11    1    3    3    0    0 -0.22660964838E+01 -0.25624775417E+02 -0.73039727838E+01  0.26741584230E+02  0.51100000000E-03 0. -1.
        -11    1    3    3    0    0 -0.20738814041E+01 -0.22182984771E+01  0.20228965941E+01  0.36488276341E+01  0.51100000000E-03 0.  1.
        -12    1    3    3    0    0 -0.81495285404E+01  0.41250004883E+02  0.14149789988E+01  0.42071128864E+02  0.00000000000E+00 0.  1.
</event>
<event>
 7    1  0.2604986E-013  0.7246158E+02  0.7816164E-02  0.1226708E+00
        -11   -1    0    0    0    0  0.00000000000E+00  0.00000000000E+00  0.45593999997E+02  0.45594000000E+02  0.51100000000E-03 0.  1.
         11   -1    0    0    0    0 -0.00000000000E+00 -0.00000000000E+00 -0.45593999997E+02  0.45594000000E+02  0.51100000000E-03 0. -1.
    9900012    2    1    2    0    0 -0.18259838069E+01 -0.17747368532E+02 -0.56899343412E+01  0.72461583913E+02  0.70000017741E+02 0.  0.
        -12    1    1    2    0    0  0.18259838069E+01  0.17747368532E+02  0.56899343412E+01  0.18726416087E+02  0.00000000000E+00 0.  1.
         11    1    3    3    0    0 -0.15514129901E+02  0.17102576017E+01 -0.60030378696E+01  0.16722729190E+02  0.51100000000E-03 0. -1.
        -11    1    3    3    0    0 -0.16344143024E+02 -0.13214250741E+02  0.10397945878E+02  0.23449194285E+02  0.51100000000E-03 0.  1.
         12    1    3    3    0    0  0.30032289118E+02 -0.62433753920E+01 -0.10084842350E+02  0.32289660438E+02  0.00000000000E+00 0. -1.
</event>
<event>
 7    1  0.2604986E-013  0.7246148E+02  0.7816164E-02  0.1226708E+00
        -11   -1    0    0    0    0  0.00000000000E+00  0.00000000000E+00  0.45593999997E+02  0.45594000000E+02  0.51100000000E-03 0. -1.
         11   -1    0    0    0    0 -0.00000000000E+00 -0.00000000000E+00 -0.45593999997E+02  0.45594000000E+02  0.51100000000E-03 0.  1.
    9900012    2    1    2    0    0  0.14038956939E+02  0.60476753190E+01  0.10817393589E+02  0.72461476223E+02  0.69999877455E+02 0.  0.
        -12    1    1    2    0    0 -0.14038956939E+02 -0.60476753190E+01 -0.10817393589E+02  0.18726523777E+02  0.00000000000E+00 0.  1.
         11    1    3    3    0    0  0.26520364739E+02  0.72372608845E+01  0.14988871226E+02  0.31310923843E+02  0.51100000000E-03 0. -1.
        -11    1    3    3    0    0 -0.95374047965E+01  0.18092603559E+02 -0.66076190145E+01  0.21493371608E+02  0.51100000000E-03 0.  1.
        -12    1    3    3    0    0 -0.29440030029E+01 -0.19282189124E+02  0.24361413773E+01  0.19657180772E+02  0.00000000000E+00 0.  1.
</event>
<event>
 7    1  0.2604986E-013  0.7246155E+02  0.7816164E-02  0.1226708E+00
        -11   -1    0    0    0    0  0.00000000000E+00  0.00000000000E+00  0.45593999997E+02  0.45594000000E+02  0.51100000000E-03 0. -1.
         11   -1    0    0    0    0 -0.00000000000E+00 -0.00000000000E+00 -0.45593999997E+02  0.45594000000E+02  0.51100000000E-03 0.  1.
    9900012    2    1    2    0    0  0.45949104617E+01 -0.12425246057E+02  0.13235559278E+02  0.72461548891E+02  0.69999972118E+02 0.  0.
        -12    1    1    2    0    0 -0.45949104617E+01  0.12425246057E+02 -0.13235559278E+02  0.18726451109E+02  0.00000000000E+00 0.  1.
         11    1    3    3    0    0 -0.53192474599E+01  0.13992250970E+02 -0.59466009955E+01  0.16107127131E+02  0.51100000000E-03 0. -1.
        -11    1    3    3    0    0 -0.93101105128E+01 -0.14274105231E+02 -0.96893972582E+01  0.19603893935E+02  0.51100000000E-03 0.  1.
         12    1    3    3    0    0  0.19224268434E+02 -0.12143391796E+02  0.28871557532E+02  0.36750527826E+02  0.00000000000E+00 0. -1.
</event>
<event>
 7    1  0.2604986E-013  0.7246155E+02  0.7816164E-02  0.1226708E+00
        -11   -1    0    0    0    0  0.00000000000E+00  0.00000000000E+00  0.45593999997E+02  0.45594000000E+02  0.51100000000E-03 0.  1.
         11   -1    0    0    0    0 -0.00000000000E+00 -0.00000000000E+00 -0.45593999997E+02  0.45594000000E+02  0.51100000000E-03 0. -1.
    9900012    2    1    2    0    0  0.15740749026E+02 -0.79252261491E+01 -0.63324305983E+01  0.72461546339E+02  0.69999968794E+02 0.  0.
        -12    1    1    2    0    0 -0.15740749026E+02  0.79252261491E+01  0.63324305983E+01  0.18726453661E+02  0.00000000000E+00 0.  1.
         11    1    3    3    0    0  0.18359691523E+02 -0.13470529273E+02 -0.23962908127E+02  0.33056835872E+02  0.51100000000E-03 0. -1.
        -11    1    3    3    0    0  0.12568821397E+02 -0.65625259850E+01  0.16930765737E+01  0.14279654308E+02  0.51100000000E-03 0.  1.
        -12    1    3    3    0    0 -0.15187763894E+02  0.12107829108E+02  0.15937400955E+02  0.25125056159E+02  0.00000000000E+00 0.  1.
</event>
<event>
 7    1  0.2604986E-013  0.7246156E+02  0.7816164E-02  0.1226708E+00
        -11   -1    0    0    0    0  0.00000000000E+00  0.00000000000E+00  0.45593999997E+02  0.45594000000E+02  0.51100000000E-03 0. -1.
         11   -1    0    0    0    0 -0.00000000000E+00 -0.00000000000E+00 -0.45593999997E+02  0.45594000000E+02  0.51100000000E-03 0.  1.
    9900012    2    1    2    0    0  0.12367858177E+02  0.12325252327E+02 -0.67678448449E+01  0.72461561880E+02  0.69999989039E+02 0.  0.
        -12    1    1    2    0    0 -0.12367858177E+02 -0.12325252327E+02  0.67678448449E+01  0.18726438120E+02  0.00000000000E+00 0.  1.
         11    1    3    3    0    0  0.63366373908E+00  0.10274885775E+02  0.79613149063E+01  0.13013736694E+02  0.51100000000E-03 0. -1.
        -11    1    3    3    0    0 -0.19234671248E+02  0.13965647223E+02 -0.18073560720E+01  0.23838590911E+02  0.51100000000E-03 0.  1.
         12    1    3    3    0    0  0.30968865686E+02 -0.11915280671E+02 -0.12921803679E+02  0.35609234275E+02  0.00000000000E+00 0. -1.
</event>
<event>
 7    1  0.2604986E-013  0.7246157E+02  0.7816164E-02  0.1226708E+00
        -11   -1    0    0    0    0  0.00000000000E+00  0.00000000000E+00  0.45593999997E+02  0.45594000000E+02  0.51100000000E-03 0.  1.
         11   -1    0    0    0    0 -0.00000000000E+00 -0.00000000000E+00 -0.45593999997E+02  0.45594000000E+02  0.51100000000E-03 0. -1.
    9900012    2    1    2    0    0 -0.16538712114E+02 -0.79091341946E+01 -0.38204254604E+01  0.72461573411E+02  0.70000004060E+02 0.  0.
        -12    1    1    2    0    0  0.16538712114E+02  0.79091341946E+01  0.38204254604E+01  0.18726426589E+02  0.00000000000E+00 0.  1.
         11    1    3    3    0    0  0.90533364252E+01  0.97938464233E+01  0.82030306011E+01  0.15657970478E+02  0.51100000000E-03 0. -1.
        -11    1    3    3    0    0 -0.15711213667E+02 -0.32558913241E+02 -0.14177952504E+02  0.38832195454E+02  0.51100000000E-03 0.  1.
         12    1    3    3    0    0 -0.98808348721E+01  0.14855932623E+02  0.21544964427E+01  0.17971407479E+02  0.00000000000E+00 0. -1.
</event>
<event>
 7    1  0.2604986E-013  0.7246151E+02  0.7816164E-02  0.1226708E+00
        -11   -1    0    0    0    0  0.00000000000E+00  0.00000000000E+00  0.45593999997E+02  0.45594000000E+02  0.51100000000E-03 0.  1.
         11   -1    0    0    0    0 -0.00000000000E+00 -0.00000000000E+00 -0.45593999997E+02  0.45594000000E+02  0.51100000000E-03 0. -1.
    9900012    2    1    2    0    0  0.16334247507E+02 -0.21689185124E+01 -0.88977200070E+01  0.72461514199E+02  0.69999926926E+02 0.  0.
        -12    1    1    2    0    0 -0.16334247507E+02  0.21689185124E+01  0.88977200070E+01  0.18726485801E+02  0.00000000000E+00 0.  1.
         11    1    3    3    0    0  0.17542382844E+02  0.29286716617E+01 -0.84735245072E+01  0.19700582006E+02  0.51100000000E-03 0. -1.
        -11    1    3    3    0    0  0.11722687951E+02  0.93770728851E+01  0.19722566164E+02  0.24785691942E+02  0.51100000000E-03 0.  1.
         12    1    3    3    0    0 -0.12930823288E+02 -0.14474663059E+02 -0.20146761664E+02  0.27975240251E+02  0.00000000000E+00 0. -1.
</event>
<event>
 7    1  0.2604986E-013  0.7246157E+02  0.7816164E-02  0.1226708E+00
        -11   -1    0    0    0    0  0.00000000000E+00  0.00000000000E+00  0.45593999997E+02  0.45594000000E+02  0.51100000000E-03 0.  1.
         11   -1    0    0    0    0 -0.00000000000E+00 -0.00000000000E+00 -0.45593999997E+02  0.45594000000E+02  0.51100000000E-03 0. -1.
    9900012    2    1    2    0    0 -0.18722391539E+02 -0.18765813960E+00 -0.34073363449E+00  0.72461567880E+02  0.69999996855E+02 0.  0.
        -12    1    1    2    0    0  0.18722391539E+02  0.18765813960E+00  0.34073363449E+00  0.18726432120E+02  0.00000000000E+00 0.  1.
         11    1    3    3    0    0  0.13214079325E+02 -0.55348342434E+01  0.40160739774E+01  0.14878680485E+02  0.51100000000E-03 0. -1.
        -11    1    3    3    0    0 -0.28717289762E+02 -0.13668530120E+02  0.10221799100E+02  0.33406535648E+02  0.51100000000E-03 0.  1.
         12    1    3    3    0    0 -0.32191811023E+01  0.19015706224E+02 -0.14578606712E+02  0.24176351747E+02  0.00000000000E+00 0. -1.
</event>
<event>
 7    1  0.2604986E-013  0.7246131E+02  0.7816164E-02  0.1226709E+00
        -11   -1    0    0    0    0  0.00000000000E+00  0.00000000000E+00  0.45593999997E+02  0.45594000000E+02  0.51100000000E-03 0. -1.
         11   -1    0    0    0    0 -0.00000000000E+00 -0.00000000000E+00 -0.45593999997E+02  0.45594000000E+02  0.51100000000E-03 0.  1.
    9900012    2    1    2    0    0 -0.13720569204E+01 -0.12030286700E+02  0.14285608509E+02  0.72461309189E+02  0.69999659861E+02 0.  0.
        -12    1    1    2    0    0  0.13720569204E+01  0.12030286700E+02 -0.14285608509E+02  0.18726690811E+02  0.00000000000E+00 0.  1.
         11    1    3    3    0    0  0.19839921430E+01 -0.87040133820E+01 -0.11367798447E+02  0.14454166028E+02  0.51100000000E-03 0. -1.
        -11    1    3    3    0    0 -0.21004865397E+02  0.15458097526E+02  0.10546844239E+02  0.28131709388E+02  0.51100000000E-03 0.  1.
         12    1    3    3    0    0  0.17648816333E+02 -0.18784370844E+02  0.15106562717E+02  0.29875433772E+02  0.00000000000E+00 0. -1.
</event>
<event>
 7    1  0.2604986E-013  0.7246155E+02  0.7816164E-02  0.1226708E+00
        -11   -1    0    0    0    0  0.00000000000E+00  0.00000000000E+00  0.45593999997E+02  0.45594000000E+02  0.51100000000E-03 0. -1.
         11   -1    0    0    0    0 -0.00000000000E+00 -0.00000000000E+00 -0.45593999997E+02  0.45594000000E+02  0.51100000000E-03 0.  1.
    9900012    2    1    2    0    0  0.15149494812E+02 -0.78262387422E+01  0.77409869040E+01  0.72461545873E+02  0.69999968187E+02 0.  0.
        -12    1    1    2    0    0 -0.15149494812E+02  0.78262387422E+01 -0.77409869040E+01  0.18726454127E+02  0.00000000000E+00 0.  1.
         11    1    3    3    0    0 -0.12708915187E+02  0.10780813466E+02  0.66179478250E+01  0.17931528042E+02  0.51100000000E-03 0. -1.
        -11    1    3    3    0    0 -0.10864091968E+02 -0.82939390626E+01 -0.37219829078E+01  0.14165841891E+02  0.51100000000E-03 0.  1.
        -12    1    3    3    0    0  0.38722501967E+02 -0.10313113145E+02  0.48450219867E+01  0.40364175941E+02  0.00000000000E+00 0.  1.
</event>
<event>
 7    1  0.2604986E-013  0.7246138E+02  0.7816164E-02  0.1226709E+00
        -11   -1    0    0    0    0  0.00000000000E+00  0.00000000000E+00  0.45593999997E+02  0.45594000000E+02  0.51100000000E-03 0.  1.
         11   -1    0    0    0    0 -0.00000000000E+00 -0.00000000000E+00 -0.45593999997E+02  0.45594000000E+02  0.51100000000E-03 0. -1.
    9900012    2    1    2    0    0 -0.18199745151E+02 -0.18174487001E+01 -0.40190122937E+01  0.72461379826E+02  0.69999751879E+02 0.  0.
        -12    1    1    2    0    0  0.18199745151E+02  0.18174487001E+01  0.40190122937E+01  0.18726620174E+02  0.00000000000E+00 0.  1.
         11    1    3    3    0    0 -0.28423679014E+02 -0.89357491086E+01 -0.29788553635E+01  0.29943725893E+02  0.51100000000E-03 0. -1.
        -11    1    3    3    0    0  0.90237103073E+01 -0.15876827050E+02 -0.54812537194E+01  0.19066859403E+02  0.51100000000E-03 0.  1.
        -12    1    3    3    0    0  0.12002235554E+01  0.22995127458E+02  0.44410967892E+01  0.23450794530E+02  0.00000000000E+00 0.  1.
</event>
<event>
 7    1  0.2604986E-013  0.7246151E+02  0.7816164E-02  0.1226708E+00
        -11   -1    0    0    0    0  0.00000000000E+00  0.00000000000E+00  0.45593999997E+02  0.45594000000E+02  0.51100000000E-03 0.  1.
         11   -1    0    0    0    0 -0.00000000000E+00 -0.00000000000E+00 -0.45593999997E+02  0.45594000000E+02  0.51100000000E-03 0. -1.
    9900012    2    1    2    0    0 -0.10756364349E+02 -0.10712880606E+02 -0.10964310995E+02  0.72461513397E+02  0.69999925881E+02 0.  0.
        -12    1    1    2    0    0  0.10756364349E+02  0.10712880606E+02  0.10964310995E+02  0.18726486603E+02  0.00000000000E+00 0.  1.
         11    1    3    3    0    0 -0.12758048809E+02  0.25990487778E+01 -0.67414613924E+01  0.14661860930E+02  0.51100000000E-03 0. -1.
        -11    1    3    3    0    0 -0.29805863214E+01  0.90317089488E+00 -0.28803203779E+02  0.28971091811E+02  0.51100000000E-03 0.  1.
        -12    1    3    3    0    0  0.49822707817E+01 -0.14215100278E+02  0.24580354176E+02  0.28828560656E+02  0.00000000000E+00 0.  1.
</event>
<event>
 7    1  0.2604986E-013  0.7246162E+02  0.7816164E-02  0.1226708E+00
        -11   -1    0    0    0    0  0.00000000000E+00  0.00000000000E+00  0.45593999997E+02  0.45594000000E+02  0.51100000000E-03 0. -1.
         11   -1    0    0    0    0 -0.00000000000E+00 -0.00000000000E+00 -0.45593999997E+02  0.45594000000E+02  0.51100000000E-03 0.  1.
    9900012    2    1    2    0    0  0.17482235343E+00 -0.18697376411E+02 -0.10271111150E+01  0.72461617414E+02  0.70000061382E+02 0.  0.
        -12    1    1    2    0    0 -0.17482235343E+00  0.18697376411E+02  0.10271111150E+01  0.18726382586E+02  0.00000000000E+00 0.  1.
         11    1    3    3    0    0 -0.51405066738E+01 -0.24180810121E+02  0.18478586702E+02  0.30864130536E+02  0.51100000000E-03 0. -1.
        -11    1    3    3    0    0  0.12352453111E+02  0.84304419684E+00  0.66941657712E+01  0.14075001848E+02  0.51100000000E-03 0.  1.
        -12    1    3    3    0    0 -0.70371240837E+01  0.46403895130E+01 -0.26199863588E+02  0.27522485030E+02  0.00000000000E+00 0.  1.
</event>
<event>
 7    1  0.2604986E-013  0.7246157E+02  0.7816164E-02  0.1226708E+00
        -11   -1    0    0    0    0  0.00000000000E+00  0.00000000000E+00  0.45593999997E+02  0.45594000000E+02  0.51100000000E-03 0. -1.
         11   -1    0    0    0    0 -0.00000000000E+00 -0.00000000000E+00 -0.45593999997E+02  0.45594000000E+02  0.51100000000E-03 0.  1.
    9900012    2    1    2    0    0 -0.11471820254E+02 -0.14365845733E+02 -0.35635668774E+01  0.72461569682E+02  0.69999999202E+02 0.  0.
        -12    1    1    2    0    0  0.11471820254E+02  0.14365845733E+02  0.35635668774E+01  0.18726430318E+02  0.00000000000E+00 0.  1.
         11    1    3    3    0    0 -0.23668631109E+01  0.99508244573E+01  0.13074604881E+02  0.16600187993E+02  0.51100000000E-03 0. -1.
        -11    1    3    3    0    0 -0.27697907116E+02 -0.91498000518E+01 -0.11286254606E+02  0.31277347120E+02  0.51100000000E-03 0.  1.
        -12    1    3    3    0    0  0.18592949972E+02 -0.15166870138E+02 -0.53519171526E+01  0.24584034569E+02  0.00000000000E+00 0.  1.
</event>
<event>
 7    1  0.2604986E-013  0.7246237E+02  0.7816164E-02  0.1226706E+00
        -11   -1    0    0    0    0  0.00000000000E+00  0.00000000000E+00  0.45593999997E+02  0.45594000000E+02  0.51100000000E-03 0. -1.
         11   -1    0    0    0    0 -0.00000000000E+00 -0.00000000000E+00 -0.45593999997E+02  0.45594000000E+02  0.51100000000E-03 0.  1.
    9900012    2    1    2    0    0  0.15921734711E+02 -0.90775316486E+01  0.38400614849E+01  0.72462368121E+02  0.70001039310E+02 0.  0.
        -12    1    1    2    0    0 -0.15921734711E+02  0.90775316486E+01 -0.38400614849E+01  0.18725631879E+02  0.00000000000E+00 0.  1.
         11    1    3    3    0    0  0.21467278856E+02  0.97136727001E+01  0.15332219779E+02  0.28111856261E+02  0.51100000000E-03 0. -1.
        -11    1    3    3    0    0  0.47879786957E+01  0.85085770809E+01  0.48453421221E+01  0.10899447898E+02  0.51100000000E-03 0.  1.
        -12    1    3    3    0    0 -0.10333522841E+02 -0.27299781430E+02 -0.16337500416E+02  0.33451063963E+02  0.00000000000E+00 0.  1.
</event>
<event>
 7    1  0.2604986E-013  0.7246159E+02  0.7816164E-02  0.1226708E+00
        -11   -1    0    0    0    0  0.00000000000E+00  0.00000000000E+00  0.45593999997E+02  0.45594000000E+02  0.51100000000E-03 0.  1.
         11   -1    0    0    0    0 -0.00000000000E+00 -0.00000000000E+00 -0.45593999997E+02  0.45594000000E+02  0.51100000000E-03 0. -1.
    9900012    2    1    2    0    0 -0.12504016664E+02 -0.13940157205E+02  0.60275239885E-03  0.72461590414E+02  0.70000026209E+02 0.  0.
        -12    1    1    2    0    0  0.12504016664E+02  0.13940157205E+02 -0.60275239885E-03  0.18726409586E+02  0.00000000000E+00 0.  1.
         11    1    3    3    0    0  0.14080969930E+02 -0.10849430061E+02 -0.24550674861E+02  0.30310385732E+02  0.51100000000E-03 0. -1.
        -11    1    3    3    0    0 -0.11786540393E+02 -0.20450451267E+01 -0.16157846405E+01  0.12071267716E+02  0.51100000000E-03 0.  1.
        -12    1    3    3    0    0 -0.14798446201E+02 -0.10456820170E+01  0.26167062254E+02  0.30079936966E+02  0.00000000000E+00 0.  1.
</event>
<event>
 7    1  0.2604986E-013  0.7246157E+02  0.7816164E-02  0.1226708E+00
        -11   -1    0    0    0    0  0.00000000000E+00  0.00000000000E+00  0.45593999997E+02  0.45594000000E+02  0.51100000000E-03 0.  1.
         11   -1    0    0    0    0 -0.00000000000E+00 -0.00000000000E+00 -0.45593999997E+02  0.45594000000E+02  0.51100000000E-03 0. -1.
    9900012    2    1    2    0    0  0.50617012457E+01  0.17915149578E+02 -0.20263075888E+01  0.72461566107E+02  0.69999994545E+02 0.  0.
        -12    1    1    2    0    0 -0.50617012457E+01 -0.17915149578E+02  0.20263075888E+01  0.18726433893E+02  0.00000000000E+00 0.  1.
         11    1    3    3    0    0 -0.84552019887E+01  0.13158291849E+02  0.13470092223E+02  0.20641571399E+02  0.51100000000E-03 0. -1.
        -11    1    3    3    0    0 -0.47131418140E+01  0.20482594291E+02  0.33007976687E+01  0.21275470387E+02  0.51100000000E-03 0.  1.
        -12    1    3    3    0    0  0.18230045048E+02 -0.15725736562E+02 -0.18797197480E+02  0.30544524321E+02  0.00000000000E+00 0.  1.
</event>
<event>
 7    1  0.2604986E-013  0.7246158E+02  0.7816164E-02  0.1226708E+00
        -11   -1    0    0    0    0  0.00000000000E+00  0.00000000000E+00  0.45593999997E+02  0.45594000000E+02  0.51100000000E-03 0. -1.
         11   -1    0    0    0    0 -0.00000000000E+00 -0.00000000000E+00 -0.45593999997E+02  0.45594000000E+02  0.51100000000E-03 0.  1.
    9900012    2    1    2    0    0  0.10514974807E+02  0.12471007172E+02  0.91971758270E+01  0.72461581275E+02  0.70000014304E+02 0.  0.
        -12    1    1    2    0    0 -0.10514974807E+02 -0.12471007172E+02 -0.91971758270E+01  0.18726418725E+02  0.00000000000E+00 0.  1.
         11    1    3    3    0    0  0.21587114025E+02  0.17952755829E+02  0.18257320927E+02  0.33490815181E+02  0.51100000000E-03 0. -1.
        -11    1    3    3    0    0  0.73533790591E+01  0.38617262739E+01 -0.15283550891E+02  0.17394598056E+02  0.51100000000E-03 0.  1.
         12    1    3    3    0    0 -0.18425518277E+02 -0.93434749313E+01  0.62234057913E+01  0.21576168038E+02  0.00000000000E+00 0. -1.
</event>
<event>
 7    1  0.2604986E-013  0.7246159E+02  0.7816164E-02  0.1226708E+00
        -11   -1    0    0    0    0  0.00000000000E+00  0.00000000000E+00  0.45593999997E+02  0.45594000000E+02  0.51100000000E-03 0. -1.
         11   -1    0    0    0    0 -0.00000000000E+00 -0.00000000000E+00 -0.45593999997E+02  0.45594000000E+02  0.51100000000E-03 0.  1.
    9900012    2    1    2    0    0 -0.89844649710E+01  0.33795380225E+01  0.16079071450E+02  0.72461590126E+02  0.70000025835E+02 0.  0.
        -12    1    1    2    0    0  0.89844649710E+01 -0.33795380225E+01 -0.16079071450E+02  0.18726409874E+02  0.00000000000E+00 0.  1.
         11    1    3    3    0    0 -0.19843788737E+02  0.24974621306E+02  0.13547820768E+02  0.34656184277E+02  0.51100000000E-03 0. -1.
        -11    1    3    3    0    0 -0.11438875198E+01  0.14218039158E+01 -0.91567152196E+01  0.93367788293E+01  0.51100000000E-03 0.  1.
        -12    1    3    3    0    0  0.12003211286E+02 -0.23016887199E+02  0.11687965901E+02  0.28468627020E+02  0.00000000000E+00 0.  1.
</event>
<event>
 7    1  0.2604986E-013  0.7246083E+02  0.7816164E-02  0.1226710E+00
        -11   -1    0    0    0    0  0.00000000000E+00  0.00000000000E+00  0.45593999997E+02  0.45594000000E+02  0.51100000000E-03 0. -1.
         11   -1    0    0    0    0 -0.00000000000E+00 -0.00000000000E+00 -0.45593999997E+02  0.45594000000E+02  0.51100000000E-03 0.  1.
    9900012    2    1    2    0    0 -0.48985450296E+01 -0.85480643383E+01 -0.15926130981E+02  0.72460832692E+02  0.69999039129E+02 0.  0.
        -12    1    1    2    0    0  0.48985450296E+01  0.85480643383E+01  0.15926130981E+02  0.18727167308E+02  0.00000000000E+00 0.  1.
         11    1    3    3    0    0 -0.96993822232E+01 -0.14694251517E+02 -0.12056540312E+02  0.21339147305E+02  0.51100000000E-03 0. -1.
        -11    1    3    3    0    0 -0.34592360132E+01 -0.28053471303E+01 -0.25721579291E+02  0.26104327760E+02  0.51100000000E-03 0.  1.
         12    1    3    3    0    0  0.82600732068E+01  0.89515343091E+01  0.21851988622E+02  0.25017357626E+02  0.00000000000E+00 0. -1.
</event>
<event>
 7    1  0.2604986E-013  0.7246159E+02  0.7816164E-02  0.1226708E+00
        -11   -1    0    0    0    0  0.00000000000E+00  0.00000000000E+00  0.45593999997E+02  0.45594000000E+02  0.51100000000E-03 0. -1.
         11   -1    0    0    0    0 -0.00000000000E+00 -0.00000000000E+00 -0.45593999997E+02  0.45594000000E+02  0.51100000000E-03 0.  1.
    9900012    2    1    2    0    0 -0.75831674457E+01 -0.15812112438E+02  0.65689595556E+01  0.72461586625E+02  0.70000021274E+02 0.  0.
        -12    1    1    2    0    0  0.75831674457E+01  0.15812112438E+02 -0.65689595556E+01  0.18726413375E+02  0.00000000000E+00 0.  1.
         11    1    3    3    0    0 -0.41828893337E+01  0.28008938274E+01  0.48414804737E+01  0.69843756234E+01  0.51100000000E-03 0. -1.
        -11    1    3    3    0    0 -0.16016800777E+02  0.19009677417E+02  0.59839133618E+01  0.25567811052E+02  0.51100000000E-03 0.  1.
         12    1    3    3    0    0  0.12616522665E+02 -0.37622683682E+02 -0.42564342798E+01  0.39909399950E+02  0.00000000000E+00 0. -1.
</event>
<event>
 7    1  0.2604986E-013  0.7246163E+02  0.7816164E-02  0.1226708E+00
        -11   -1    0    0    0    0  0.00000000000E+00  0.00000000000E+00  0.45593999997E+02  0.45594000000E+02  0.51100000000E-03 0.  1.
         11   -1    0    0    0    0 -0.00000000000E+00 -0.00000000000E+00 -0.45593999997E+02  0.45594000000E+02  0.51100000000E-03 0. -1.
    9900012    2    1    2    0    0 -0.16135989900E+02  0.52569459731E+01 -0.79165133089E+01  0.72461632653E+02  0.70000081234E+02 0.  0.
        -12    1    1    2    0    0  0.16135989900E+02 -0.52569459731E+01  0.79165133089E+01  0.18726367347E+02  0.00000000000E+00 0.  1.
         11    1    3    3    0    0  0.26444365231E+01 -0.11235886512E+02 -0.26472080400E+02  0.28879217981E+02  0.51100000000E-03 0. -1.
        -11    1    3    3    0    0 -0.12283716246E+02 -0.72322220683E+01  0.10479078058E+02  0.17691969875E+02  0.51100000000E-03 0.  1.
         12    1    3    3    0    0 -0.64967101773E+01  0.23725054554E+02  0.80764890331E+01  0.25890444797E+02  0.00000000000E+00 0. -1.
</event>
<event>
 7    1  0.2604986E-013  0.7246157E+02  0.7816164E-02  0.1226708E+00
        -11   -1    0    0    0    0  0.00000000000E+00  0.00000000000E+00  0.45593999997E+02  0.45594000000E+02  0.51100000000E-03 0.  1.
         11   -1    0    0    0    0 -0.00000000000E+00 -0.00000000000E+00 -0.45593999997E+02  0.45594000000E+02  0.51100000000E-03 0. -1.
    9900012    2    1    2    0    0 -0.12523251236E+02 -0.63894417237E+01 -0.12370224050E+02  0.72461568677E+02  0.69999997893E+02 0.  0.
        -12    1    1    2    0    0  0.12523251236E+02  0.63894417237E+01  0.12370224050E+02  0.18726431323E+02  0.00000000000E+00 0.  1.
         11    1    3    3    0    0 -0.13330106230E+02  0.19574818533E+02  0.94717814973E+01  0.25506467762E+02  0.51100000000E-03 0. -1.
        -11    1    3    3    0    0 -0.11609551503E+02  0.62830621982E+00 -0.98985029040E+01  0.15269473298E+02  0.51100000000E-03 0.  1.
         12    1    3    3    0    0  0.12416406497E+02 -0.26592566476E+02 -0.11943502643E+02  0.31685627617E+02  0.00000000000E+00 0. -1.
</event>
<event>
 7    1  0.2604986E-013  0.7246154E+02  0.7816164E-02  0.1226708E+00
        -11   -1    0    0    0    0  0.00000000000E+00  0.00000000000E+00  0.45593999997E+02  0.45594000000E+02  0.51100000000E-03 0.  1.
         11   -1    0    0    0    0 -0.00000000000E+00 -0.00000000000E+00 -0.45593999997E+02  0.45594000000E+02  0.51100000000E-03 0. -1.
    9900012    2    1    2    0    0  0.13719150811E+02 -0.98866044695E+01  0.80448825218E+01  0.72461543269E+02  0.69999964794E+02 0.  0.
        -12    1    1    2    0    0 -0.13719150811E+02  0.98866044695E+01 -0.80448825218E+01  0.18726456731E+02  0.00000000000E+00 0.  1.
         11    1    3    3    0    0 -0.54281687544E+00 -0.15420945286E+02 -0.95652037320E+01  0.18154705350E+02  0.51100000000E-03 0. -1.
        -11    1    3    3    0    0 -0.11822697582E+02 -0.14071671170E+02  0.32880594872E+01  0.18670817954E+02  0.51100000000E-03 0.  1.
        -12    1    3    3    0    0  0.26084665269E+02  0.19606011986E+02  0.14322026767E+02  0.35636019964E+02  0.00000000000E+00 0.  1.
</event>
<event>
 7    1  0.2604986E-013  0.7246153E+02  0.7816164E-02  0.1226708E+00
        -11   -1    0    0    0    0  0.00000000000E+00  0.00000000000E+00  0.45593999997E+02  0.45594000000E+02  0.51100000000E-03 0.  1.
         11   -1    0    0    0    0 -0.00000000000E+00 -0.00000000000E+00 -0.45593999997E+02  0.45594000000E+02  0.51100000000E-03 0. -1.
    9900012    2    1    2    0    0  0.97427011117E+01 -0.87346668728E+01 -0.13396499329E+02  0.72461526103E+02  0.69999942433E+02 0.  0.
        -12    1    1    2    0    0 -0.97427011117E+01  0.87346668728E+01  0.13396499329E+02  0.18726473897E+02  0.00000000000E+00 0.  1.
         11    1    3    3    0    0  0.13742649406E+01  0.11588827202E+02 -0.94439836873E+01  0.15012606309E+02  0.51100000000E-03 0. -1.
        -11    1    3    3    0    0 -0.10110232814E+02 -0.24131459797E+02  0.15450568763E+02  0.30385263448E+02  0.51100000000E-03 0.  1.
         12    1    3    3    0    0  0.18478668985E+02  0.38079657219E+01 -0.19403084404E+02  0.27063656346E+02  0.00000000000E+00 0. -1.
</event>
<event>
 7    1  0.2604986E-013  0.7246156E+02  0.7816164E-02  0.1226708E+00
        -11   -1    0    0    0    0  0.00000000000E+00  0.00000000000E+00  0.45593999997E+02  0.45594000000E+02  0.51100000000E-03 0.  1.
         11   -1    0    0    0    0 -0.00000000000E+00 -0.00000000000E+00 -0.45593999997E+02  0.45594000000E+02  0.51100000000E-03 0. -1.
    9900012    2    1    2    0    0 -0.10329484799E+02  0.11916714947E+02 -0.10098170149E+02  0.72461564362E+02  0.69999992272E+02 0.  0.
        -12    1    1    2    0    0  0.10329484799E+02 -0.11916714947E+02  0.10098170149E+02  0.18726435638E+02  0.00000000000E+00 0.  1.
         11    1    3    3    0    0  0.17617103700E+02  0.17290851334E+02  0.36961388957E+01  0.24959914375E+02  0.51100000000E-03 0. -1.
        -11    1    3    3    0    0 -0.12435765206E+01  0.12986296394E+02 -0.41988027506E+01  0.13704755430E+02  0.51100000000E-03 0.  1.
        -12    1    3    3    0    0 -0.26703011979E+02 -0.18360432781E+02 -0.95955062942E+01  0.33796894557E+02  0.00000000000E+00 0.  1.
</event>
<event>
 7    1  0.2604986E-013  0.7246162E+02  0.7816164E-02  0.1226708E+00
        -11   -1    0    0    0    0  0.00000000000E+00  0.00000000000E+00  0.45593999997E+02  0.45594000000E+02  0.51100000000E-03 0. -1.
         11   -1    0    0    0    0 -0.00000000000E+00 -0.00000000000E+00 -0.45593999997E+02  0.45594000000E+02  0.51100000000E-03 0.  1.
    9900012    2    1    2    0    0 -0.44241057097E+01 -0.17695915374E+02 -0.42378124942E+01  0.72461623228E+02  0.70000068956E+02 0.  0.
        -12    1    1    2    0    0  0.44241057097E+01  0.17695915374E+02  0.42378124942E+01  0.18726376772E+02  0.00000000000E+00 0.  1.
         11    1    3    3    0    0 -0.11072204205E+02  0.46741984548E+01  0.14420287341E+02  0.18771961123E+02  0.51100000000E-03 0. -1.
        -11    1    3    3    0    0 -0.28990373285E+01  0.12414207037E+02 -0.10948212071E+02  0.16804175124E+02  0.51100000000E-03 0.  1.
         12    1    3    3    0    0  0.95471358233E+01 -0.34784320866E+02 -0.77098877649E+01  0.36885486982E+02  0.00000000000E+00 0. -1.
</event>
<event>
 7    1  0.2604986E-013  0.7246156E+02  0.7816164E-02  0.1226708E+00
        -11   -1    0    0    0    0  0.00000000000E+00  0.00000000000E+00  0.45593999997E+02  0.45594000000E+02  0.51100000000E-03 0.  1.
         11   -1    0    0    0    0 -0.00000000000E+00 -0.00000000000E+00 -0.45593999997E+02  0.45594000000E+02  0.51100000000E-03 0. -1.
    9900012    2    1    2    0    0  0.17616378223E+02 -0.14865805887E+01 -0.61751738677E+01  0.72461562116E+02  0.69999989346E+02 0.  0.
        -12    1    1    2    0    0 -0.17616378223E+02  0.14865805887E+01  0.61751738677E+01  0.18726437884E+02  0.00000000000E+00 0.  1.
         11    1    3    3    0    0 -0.48734402766E+00  0.99344328030E+00  0.50760719401E+01  0.51952805848E+01  0.51100000000E-03 0. -1.
        -11    1    3    3    0    0  0.19407780021E+02 -0.25945042910E+02  0.11669788317E+02  0.34438222030E+02  0.51100000000E-03 0.  1.
         12    1    3    3    0    0 -0.13040577710E+01  0.23465019041E+02 -0.22921034125E+02  0.32828059501E+02  0.00000000000E+00 0. -1.
</event>
<event>
 7    1  0.2604986E-013  0.7246141E+02  0.7816164E-02  0.1226708E+00
        -11   -1    0    0    0    0  0.00000000000E+00  0.00000000000E+00  0.45593999997E+02  0.45594000000E+02  0.51100000000E-03 0. -1.
         11   -1    0    0    0    0 -0.00000000000E+00 -0.00000000000E+00 -0.45593999997E+02  0.45594000000E+02  0.51100000000E-03 0.  1.
    9900012    2    1    2    0    0  0.84819400590E+01  0.14694176464E+02  0.79261006677E+01  0.72461409255E+02  0.69999790216E+02 0.  0.
        -12    1    1    2    0    0 -0.84819400590E+01 -0.14694176464E+02 -0.79261006677E+01  0.18726590745E+02  0.00000000000E+00 0.  1.
         11    1    3    3    0    0  0.16262900948E+02 -0.88728661479E+01  0.95540685434E+01  0.20844421961E+02  0.51100000000E-03 0. -1.
        -11    1    3    3    0    0  0.11270645122E+02 -0.21092187375E+01 -0.13318456813E+02  0.17574343154E+02  0.51100000000E-03 0.  1.
        -12    1    3    3    0    0 -0.19051606011E+02  0.25676261350E+02  0.11690488937E+02  0.34042644140E+02  0.00000000000E+00 0.  1.
</event>
<event>
 7    1  0.2604986E-013  0.7246172E+02  0.7816164E-02  0.1226708E+00
        -11   -1    0    0    0    0  0.00000000000E+00  0.00000000000E+00  0.45593999997E+02  0.45594000000E+02  0.51100000000E-03 0. -1.
         11   -1    0    0    0    0 -0.00000000000E+00 -0.00000000000E+00 -0.45593999997E+02  0.45594000000E+02  0.51100000000E-03 0.  1.
    9900012    2    1    2    0    0 -0.13955283428E+01 -0.17599261940E+02  0.62443745160E+01  0.72461715444E+02  0.70000189084E+02 0.  0.
        -12    1    1    2    0    0  0.13955283428E+01  0.17599261940E+02 -0.62443745160E+01  0.18726284556E+02  0.00000000000E+00 0.  1.
         11    1    3    3    0    0 -0.66184101136E+01 -0.10419786526E+02 -0.17661891042E+02  0.21548032372E+02  0.51100000000E-03 0. -1.
        -11    1    3    3    0    0 -0.43135479616E+01 -0.13353579862E+02 -0.86141898096E+01  0.16465997009E+02  0.51100000000E-03 0.  1.
         12    1    3    3    0    0  0.95364297324E+01  0.61741044481E+01  0.32520455367E+02  0.34447686063E+02  0.00000000000E+00 0. -1.
</event>
<event>
 7    1  0.2604986E-013  0.7246168E+02  0.7816164E-02  0.1226708E+00
        -11   -1    0    0    0    0  0.00000000000E+00  0.00000000000E+00  0.45593999997E+02  0.45594000000E+02  0.51100000000E-03 0.  1.
         11   -1    0    0    0    0 -0.00000000000E+00 -0.00000000000E+00 -0.45593999997E+02  0.45594000000E+02  0.51100000000E-03 0. -1.
    9900012    2    1    2    0    0  0.45888352934E+00 -0.68794337493E+01 -0.17410855294E+02  0.72461679890E+02  0.70000142769E+02 0.  0.
        -12    1    1    2    0    0 -0.45888352934E+00  0.68794337493E+01  0.17410855294E+02  0.18726320110E+02  0.00000000000E+00 0.  1.
         11    1    3    3    0    0  0.33123003804E+00 -0.20710612754E+02 -0.16128384982E+02  0.26251933193E+02  0.51100000000E-03 0. -1.
        -11    1    3    3    0    0  0.12246854628E+02 -0.87063111816E+01  0.10201217904E+02  0.18161777161E+02  0.51100000000E-03 0.  1.
        -12    1    3    3    0    0 -0.12119201137E+02  0.22537490186E+02 -0.11483688215E+02  0.28047969536E+02  0.00000000000E+00 0.  1.
</event>
<event>
 8    1  0.2604986E-013  0.7246168E+02  0.7816164E-02  0.1226708E+00
        -11   -1    0    0    0    0  0.00000000000E+00  0.00000000000E+00  0.45593999997E+02  0.45594000000E+02  0.51100000000E-03 0. -1.
         11   -1    0    0    0    0 -0.00000000000E+00 -0.00000000000E+00 -0.45593999997E+02  0.45594000000E+02  0.51100000000E-03 0.  1.
    9900012    2    1    2    0    0 -0.44151067261E+01 -0.10534145162E+02  0.14839603122E+02  0.72461676215E+02  0.70000137981E+02 0.  0.
         23    2    3    3    0    0 -0.14822198673E+02 -0.16815602828E+02  0.14468895509E+02  0.60300192040E+02  0.54076817130E+02 0.  0.
        -12    1    1    2    0    0  0.44151067261E+01  0.10534145162E+02 -0.14839603122E+02  0.18726323785E+02  0.00000000000E+00 0.  1.
         11    1    4    4    0    0 -0.56405882219E+01  0.19119396491E+02  0.11685007362E+02  0.23106426703E+02  0.51100000000E-03 0.  1.
        -11    1    4    4    0    0 -0.91816104508E+01 -0.35934999319E+02  0.27838881461E+01  0.37193765337E+02  0.51100000000E-03 0. -1.
         12    1    3    3    0    0  0.10407091947E+02  0.62814576658E+01  0.37070761340E+00  0.12161484175E+02  0.00000000000E+00 0. -1.
</event>
<event>
 7    1  0.2604986E-013  0.7246165E+02  0.7816164E-02  0.1226708E+00
        -11   -1    0    0    0    0  0.00000000000E+00  0.00000000000E+00  0.45593999997E+02  0.45594000000E+02  0.51100000000E-03 0.  1.
         11   -1    0    0    0    0 -0.00000000000E+00 -0.00000000000E+00 -0.45593999997E+02  0.45594000000E+02  0.51100000000E-03 0. -1.
    9900012    2    1    2    0    0 -0.15582810343E+02 -0.81500251951E+01  0.64365540366E+01  0.72461651805E+02  0.70000106183E+02 0.  0.
        -12    1    1    2    0    0  0.15582810343E+02  0.81500251951E+01 -0.64365540366E+01  0.18726348195E+02  0.00000000000E+00 0.  1.
         11    1    3    3    0    0 -0.15815279344E+02 -0.17685856013E+02  0.75102104914E+00  0.23737661985E+02  0.51100000000E-03 0. -1.
        -11    1    3    3    0    0  0.32875783519E+01 -0.19189035875E+02  0.13730029820E+01  0.19516977396E+02  0.51100000000E-03 0.  1.
        -12    1    3    3    0    0 -0.30551093505E+01  0.28724866693E+02  0.43125300055E+01  0.29207012424E+02  0.00000000000E+00 0.  1.
</event>
<event>
 7    1  0.2604986E-013  0.7246156E+02  0.7816164E-02  0.1226708E+00
        -11   -1    0    0    0    0  0.00000000000E+00  0.00000000000E+00  0.45593999997E+02  0.45594000000E+02  0.51100000000E-03 0. -1.
         11   -1    0    0    0    0 -0.00000000000E+00 -0.00000000000E+00 -0.45593999997E+02  0.45594000000E+02  0.51100000000E-03 0.  1.
    9900012    2    1    2    0    0 -0.12466597946E+02  0.10680787754E+02 -0.90102327923E+01  0.72461559165E+02  0.69999985501E+02 0.  0.
        -12    1    1    2    0    0  0.12466597946E+02 -0.10680787754E+02  0.90102327923E+01  0.18726440835E+02  0.00000000000E+00 0.  1.
         11    1    3    3    0    0 -0.83087201794E+01  0.13409780111E+01 -0.54533990537E+01  0.10028589858E+02  0.51100000000E-03 0. -1.
        -11    1    3    3    0    0 -0.19947990349E+00  0.11835427459E+02 -0.31734040643E+02  0.33869846046E+02  0.51100000000E-03 0.  1.
         12    1    3    3    0    0 -0.39583978631E+01 -0.24956177160E+01  0.28177206905E+02  0.28563123260E+02  0.00000000000E+00 0. -1.
</event>
<event>
 7    1  0.2604986E-013  0.7246160E+02  0.7816164E-02  0.1226708E+00
        -11   -1    0    0    0    0  0.00000000000E+00  0.00000000000E+00  0.45593999997E+02  0.45594000000E+02  0.51100000000E-03 0.  1.
         11   -1    0    0    0    0 -0.00000000000E+00 -0.00000000000E+00 -0.45593999997E+02  0.45594000000E+02  0.51100000000E-03 0. -1.
    9900012    2    1    2    0    0  0.18101961587E+02 -0.18562946181E+01  0.44216555073E+01  0.72461604713E+02  0.70000044837E+02 0.  0.
        -12    1    1    2    0    0 -0.18101961587E+02  0.18562946181E+01 -0.44216555073E+01  0.18726395287E+02  0.00000000000E+00 0.  1.
         11    1    3    3    0    0 -0.12793561513E+02 -0.67973002642E+01  0.10596221435E+01  0.14525884015E+02  0.51100000000E-03 0. -1.
        -11    1    3    3    0    0 -0.12598989119E+02 -0.21524046407E+01  0.52698797899E+01  0.13825303100E+02  0.51100000000E-03 0.  1.
         12    1    3    3    0    0  0.43494512219E+02  0.70934102868E+01 -0.19078464261E+01  0.44110417598E+02  0.00000000000E+00 0. -1.
</event>
<event>
 7    1  0.2604986E-013  0.7246163E+02  0.7816164E-02  0.1226708E+00
        -11   -1    0    0    0    0  0.00000000000E+00  0.00000000000E+00  0.45593999997E+02  0.45594000000E+02  0.51100000000E-03 0.  1.
         11   -1    0    0    0    0 -0.00000000000E+00 -0.00000000000E+00 -0.45593999997E+02  0.45594000000E+02  0.51100000000E-03 0. -1.
    9900012    2    1    2    0    0 -0.44644039749E+01  0.18172220303E+02  0.71860439930E+00  0.72461631269E+02  0.70000079431E+02 0.  0.
        -12    1    1    2    0    0  0.44644039749E+01 -0.18172220303E+02 -0.71860439930E+00  0.18726368731E+02  0.00000000000E+00 0.  1.
         11    1    3    3    0    0 -0.26825068635E+02 -0.11461141351E+02 -0.32850022123E+01  0.29355294380E+02  0.51100000000E-03 0. -1.
        -11    1    3    3    0    0  0.18310965668E+01 -0.20990727866E+01  0.45189814140E+01  0.53085039778E+01  0.51100000000E-03 0.  1.
        -12    1    3    3    0    0  0.20529568094E+02  0.31732434440E+02 -0.51537480239E+00  0.37797832911E+02  0.00000000000E+00 0.  1.
</event>
<event>
 7    1  0.2604986E-013  0.7246155E+02  0.7816164E-02  0.1226708E+00
        -11   -1    0    0    0    0  0.00000000000E+00  0.00000000000E+00  0.45593999997E+02  0.45594000000E+02  0.51100000000E-03 0.  1.
         11   -1    0    0    0    0 -0.00000000000E+00 -0.00000000000E+00 -0.45593999997E+02  0.45594000000E+02  0.51100000000E-03 0. -1.
    9900012    2    1    2    0    0  0.54066645525E+01 -0.10053516417E+02 -0.14845017468E+02  0.72461554594E+02  0.69999979547E+02 0.  0.
        -12    1    1    2    0    0 -0.54066645525E+01  0.10053516417E+02  0.14845017468E+02  0.18726445406E+02  0.00000000000E+00 0.  1.
         11    1    3    3    0    0  0.71474355625E+01 -0.35154457600E+01 -0.22672567820E+01  0.82815848476E+01  0.51100000000E-03 0. -1.
        -11    1    3    3    0    0 -0.12266574875E+01 -0.13632301604E+02  0.23614990267E+02  0.27294909803E+02  0.51100000000E-03 0.  1.
         12    1    3    3    0    0 -0.51411352249E+00  0.70942309465E+01 -0.36192750953E+02  0.36885059943E+02  0.00000000000E+00 0. -1.
</event>
<event>
 7    1  0.2604986E-013  0.7246156E+02  0.7816164E-02  0.1226708E+00
        -11   -1    0    0    0    0  0.00000000000E+00  0.00000000000E+00  0.45593999997E+02  0.45594000000E+02  0.51100000000E-03 0. -1.
         11   -1    0    0    0    0 -0.00000000000E+00 -0.00000000000E+00 -0.45593999997E+02  0.45594000000E+02  0.51100000000E-03 0.  1.
    9900012    2    1    2    0    0 -0.15718436335E+02 -0.10117440664E+02  0.11169906113E+01  0.72461561085E+02  0.69999988003E+02 0.  0.
        -12    1    1    2    0    0  0.15718436335E+02  0.10117440664E+02 -0.11169906113E+01  0.18726438915E+02  0.00000000000E+00 0.  1.
         11    1    3    3    0    0  0.12555376540E+02 -0.21581457268E+02  0.21458935552E+02  0.32922373747E+02  0.51100000000E-03 0. -1.
        -11    1    3    3    0    0 -0.27458083144E+01  0.23028808387E+01 -0.98099385291E+01  0.10444023059E+02  0.51100000000E-03 0.  1.
        -12    1    3    3    0    0 -0.25528004561E+02  0.91611357649E+01 -0.10532006412E+02  0.29095164279E+02  0.00000000000E+00 0.  1.
</event>
<event>
 7    1  0.2604986E-013  0.7246157E+02  0.7816164E-02  0.1226708E+00
        -11   -1    0    0    0    0  0.00000000000E+00  0.00000000000E+00  0.45593999997E+02  0.45594000000E+02  0.51100000000E-03 0. -1.
         11   -1    0    0    0    0 -0.00000000000E+00 -0.00000000000E+00 -0.45593999997E+02  0.45594000000E+02  0.51100000000E-03 0.  1.
    9900012    2    1    2    0    0  0.16549837565E+02 -0.47128564077E+01  0.73872307391E+01  0.72461566358E+02  0.69999994872E+02 0.  0.
        -12    1    1    2    0    0 -0.16549837565E+02  0.47128564077E+01 -0.73872307391E+01  0.18726433642E+02  0.00000000000E+00 0.  1.
         11    1    3    3    0    0  0.30510993363E+02  0.13427214246E+02  0.24757334007E+02  0.41522721319E+02  0.51100000000E-03 0. -1.
        -11    1    3    3    0    0 -0.41911031482E+01 -0.17658530131E+01  0.77967356250E+00  0.46142684781E+01  0.51100000000E-03 0.  1.
        -12    1    3    3    0    0 -0.97700526493E+01 -0.16374217640E+02 -0.18149776830E+02  0.26324576560E+02  0.00000000000E+00 0.  1.
</event>
<event>
 7    1  0.3089766E-013  0.7246157E+02  0.7816164E-02  0.1226708E+00
        -11   -1    0    0    0    0  0.00000000000E+00  0.00000000000E+00  0.45593999997E+02  0.45594000000E+02  0.51100000000E-03 0.  1.
         11   -1    0    0    0    0 -0.00000000000E+00 -0.00000000000E+00 -0.45593999997E+02  0.45594000000E+02  0.51100000000E-03 0. -1.
    9900012    2    1    2    0    0 -0.85832065049E+01  0.16592735877E+02 -0.12995924976E+01  0.72461567920E+02  0.69999996907E+02 0.  0.
        -12    1    1    2    0    0  0.85832065049E+01 -0.16592735877E+02  0.12995924976E+01  0.18726432080E+02  0.00000000000E+00 0.  1.
         11    1    3    3    0    0 -0.17282829281E+01 -0.27480407352E+01  0.23892380189E+01  0.40307751530E+01  0.51100000000E-03 0. -1.
        -11    1    3    3    0    0  0.11844924475E+02 -0.98242328544E+01  0.20894525704E+02  0.25949932402E+02  0.51100000000E-03 0.  1.
         12    1    3    3    0    0 -0.18699848052E+02  0.29165009466E+02 -0.24583356220E+02  0.42480860366E+02  0.00000000000E+00 0. -1.
</event>
<event>
 7    1  0.2604986E-013  0.7246150E+02  0.7816164E-02  0.1226708E+00
        -11   -1    0    0    0    0  0.00000000000E+00  0.00000000000E+00  0.45593999997E+02  0.45594000000E+02  0.51100000000E-03 0.  1.
         11   -1    0    0    0    0 -0.00000000000E+00 -0.00000000000E+00 -0.45593999997E+02  0.45594000000E+02  0.51100000000E-03 0. -1.
    9900012    2    1    2    0    0 -0.99490062746E+00 -0.18630078070E+02  0.16162171828E+01  0.72461500217E+02  0.69999908711E+02 0.  0.
        -12    1    1    2    0    0  0.99490062746E+00  0.18630078070E+02 -0.16162171828E+01  0.18726499783E+02  0.00000000000E+00 0.  1.
         11    1    3    3    0    0  0.60238238639E+01 -0.24002861288E+02 -0.46491179106E+01  0.25180113216E+02  0.51100000000E-03 0. -1.
        -11    1    3    3    0    0 -0.13687849220E+02 -0.13366963201E+02 -0.99990092707E+01  0.21587336754E+02  0.51100000000E-03 0.  1.
        -12    1    3    3    0    0  0.66691247288E+01  0.18739746419E+02  0.16264344364E+02  0.25694050247E+02  0.00000000000E+00 0.  1.
</event>
<event>
 7    1  0.2604986E-013  0.7246153E+02  0.7816164E-02  0.1226708E+00
        -11   -1    0    0    0    0  0.00000000000E+00  0.00000000000E+00  0.45593999997E+02  0.45594000000E+02  0.51100000000E-03 0.  1.
         11   -1    0    0    0    0 -0.00000000000E+00 -0.00000000000E+00 -0.45593999997E+02  0.45594000000E+02  0.51100000000E-03 0. -1.
    9900012    2    1    2    0    0 -0.51569864020E+01 -0.12728916352E+02 -0.12730308105E+02  0.72461533043E+02  0.69999951474E+02 0.  0.
        -12    1    1    2    0    0  0.51569864020E+01  0.12728916352E+02  0.12730308105E+02  0.18726466957E+02  0.00000000000E+00 0.  1.
         11    1    3    3    0    0 -0.11710023805E+01 -0.93209778781E+01  0.18303294019E+01  0.95708923910E+01  0.51100000000E-03 0. -1.
        -11    1    3    3    0    0 -0.14127531550E+02  0.46173322839E+01  0.20614213952E+02  0.25413632606E+02  0.51100000000E-03 0.  1.
         12    1    3    3    0    0  0.10141547528E+02 -0.80252707574E+01 -0.35174851459E+02  0.37477008047E+02  0.00000000000E+00 0. -1.
</event>
<event>
 7    1  0.2604986E-013  0.7246158E+02  0.7816164E-02  0.1226708E+00
        -11   -1    0    0    0    0  0.00000000000E+00  0.00000000000E+00  0.45593999997E+02  0.45594000000E+02  0.51100000000E-03 0.  1.
         11   -1    0    0    0    0 -0.00000000000E+00 -0.00000000000E+00 -0.45593999997E+02  0.45594000000E+02  0.51100000000E-03 0. -1.
    9900012    2    1    2    0    0 -0.12388812961E+02 -0.12512620856E+02 -0.63741949839E+01  0.72461582057E+02  0.70000015324E+02 0.  0.
        -12    1    1    2    0    0  0.12388812961E+02  0.12512620856E+02  0.63741949839E+01  0.18726417943E+02  0.00000000000E+00 0.  1.
         11    1    3    3    0    0 -0.20999175049E+02 -0.51298937296E+01  0.79369348334E+01  0.23027724534E+02  0.51100000000E-03 0. -1.
        -11    1    3    3    0    0 -0.23260719581E+01  0.15472879270E+02  0.62045818561E+01  0.16832036120E+02  0.51100000000E-03 0.  1.
         12    1    3    3    0    0  0.10936434046E+02 -0.22855606397E+02 -0.20515711673E+02  0.32601821404E+02  0.00000000000E+00 0. -1.
</event>
<event>
 7    1  0.2604986E-013  0.7246160E+02  0.7816164E-02  0.1226708E+00
        -11   -1    0    0    0    0  0.00000000000E+00  0.00000000000E+00  0.45593999997E+02  0.45594000000E+02  0.51100000000E-03 0.  1.
         11   -1    0    0    0    0 -0.00000000000E+00 -0.00000000000E+00 -0.45593999997E+02  0.45594000000E+02  0.51100000000E-03 0. -1.
    9900012    2    1    2    0    0  0.12546347294E+02 -0.12913021213E+02 -0.51498540216E+01  0.72461603024E+02  0.70000042636E+02 0.  0.
        -12    1    1    2    0    0 -0.12546347294E+02  0.12913021213E+02  0.51498540216E+01  0.18726396976E+02  0.00000000000E+00 0.  1.
         11    1    3    3    0    0 -0.10807795159E+02 -0.14097440872E+02 -0.48292952945E+01  0.18408377675E+02  0.51100000000E-03 0. -1.
        -11    1    3    3    0    0  0.10752314350E+02 -0.22312012033E+02  0.81555344487E+01  0.26075867909E+02  0.51100000000E-03 0.  1.
        -12    1    3    3    0    0  0.12601828102E+02  0.23496431691E+02 -0.84760931758E+01  0.27977357439E+02  0.00000000000E+00 0.  1.
</event>
<event>
 7    1  0.2604986E-013  0.7246161E+02  0.7816164E-02  0.1226708E+00
        -11   -1    0    0    0    0  0.00000000000E+00  0.00000000000E+00  0.45593999997E+02  0.45594000000E+02  0.51100000000E-03 0.  1.
         11   -1    0    0    0    0 -0.00000000000E+00 -0.00000000000E+00 -0.45593999997E+02  0.45594000000E+02  0.51100000000E-03 0. -1.
    9900012    2    1    2    0    0  0.18451357681E+02 -0.25312266590E+01 -0.19539893770E+01  0.72461607311E+02  0.70000048221E+02 0.  0.
        -12    1    1    2    0    0 -0.18451357681E+02  0.25312266590E+01  0.19539893770E+01  0.18726392689E+02  0.00000000000E+00 0.  1.
         11    1    3    3    0    0 -0.21531356226E+02  0.80154873935E+01  0.97844488778E+01  0.24971639498E+02  0.51100000000E-03 0. -1.
        -11    1    3    3    0    0  0.11150688340E+02 -0.12669622632E+02 -0.20606025360E+01  0.17003037116E+02  0.51100000000E-03 0.  1.
        -12    1    3    3    0    0  0.28832025567E+02  0.21229085798E+01 -0.96778357188E+01  0.30486930697E+02  0.00000000000E+00 0.  1.
</event>
